/*--------------------------------*- C++ -*----------------------------------*\
  =========                 |
  \\      /  F ield         | OpenFOAM: The Open Source CFD Toolbox
   \\    /   O peration     | Website:  https://openfoam.org
    \\  /    A nd           | Version:  10
     \\/     M anipulation  |
\*---------------------------------------------------------------------------*/
FoamFile
{
    format      ascii;
    class       surfaceScalarField;
    location    "6";
    object      phi;
}
// * * * * * * * * * * * * * * * * * * * * * * * * * * * * * * * * * * * * * //

dimensions      [0 3 -1 0 0 0 0];

internalField   nonuniform List<scalar> 
17370
(
-0.0915445
0.0960459
0.284509
-0.0776574
0.0595536
0.364879
-0.0432459
0.0318047
0.427609
-0.0223713
0.0161624
0.505461
-0.0114505
0.00855545
0.602297
-0.00641265
0.00505097
0.720419
-0.00393667
0.00314251
0.863701
-0.00243321
0.00186905
1.03601
-0.0012968
0.000818331
1.24298
-0.00034322
-3.81245e-05
1.49157
0.00043525
-0.000921511
1.49168
0.00139852
-0.00196435
1.24326
0.00251888
-0.00321334
1.03633
0.00399172
-0.00509181
0.864007
0.00644455
-0.00858283
0.721196
0.0114767
-0.0161872
0.603925
0.0223949
-0.0318264
0.508871
0.0432639
-0.0595669
0.432471
0.0776667
-0.0960511
0.36516
0.0915509
0.19746
-0.127461
0.0889636
0.0384975
-0.364725
0.35489
-0.0701775
0.0800132
-0.44632
0.454888
-0.0769754
0.0684082
-0.520729
0.529035
-0.0598849
0.0515786
-0.613058
0.620501
-0.0443172
0.0368733
-0.727386
0.733507
-0.0305857
0.024464
-0.867619
0.872139
-0.0195442
0.0150246
-1.03847
1.04143
-0.0116255
0.00866002
-1.24461
1.24658
-0.00644521
0.004481
-1.49267
1.49424
-0.00293606
0.00136249
-1.49244
1.49397
0.000197155
-0.00173149
-1.244
1.24554
0.00328943
-0.00482784
-1.03751
1.03971
0.00679303
-0.00899809
-0.86617
0.869551
0.0119532
-0.015334
-0.724762
0.729654
0.0198318
-0.0247239
-0.609262
0.615515
0.0308062
-0.037059
-0.515071
0.522305
0.044469
-0.0517038
-0.439452
0.447964
0.05999
-0.0685018
-0.374774
0.377796
0.0770561
-0.080078
-0.25734
0.225633
0.0702211
-0.0385139
-0.0706505
0.0621229
0.00852755
-0.0462953
0.0524281
-0.376122
0.369989
-0.0516385
0.0479947
-0.454646
0.45829
-0.0428164
0.0384899
-0.527555
0.531882
-0.0340895
0.030269
-0.620082
0.623902
-0.0264622
0.0232148
-0.733712
0.736959
-0.0197622
0.016682
-0.872932
0.876012
-0.0134121
0.0105699
-1.04236
1.0452
-0.0076116
0.00503235
-1.24775
1.25033
-0.00224007
-0.00037551
-1.49641
1.49902
0.00298295
-0.0057217
-1.49659
1.49933
0.00826038
-0.011166
-1.24904
1.25194
0.0139612
-0.0171704
-1.04458
1.04778
0.0202061
-0.023611
-0.876083
0.879488
0.0268277
-0.0306096
-0.738017
0.741799
0.0344146
-0.0387783
-0.625622
0.629986
0.0430708
-0.0482129
-0.535435
0.540577
0.0518173
-0.0525633
-0.459369
0.460115
0.0463917
-0.028251
-0.338997
0.320857
0.00854521
-0.0705965
0.0620513
-0.0579695
0.0563068
0.00166271
-0.0182361
0.0260635
-0.361807
0.353979
-0.0307904
0.0328066
-0.458849
0.456833
-0.0331569
0.0325935
-0.534662
0.535226
-0.0313296
0.0297801
-0.626507
0.628056
-0.0274771
0.0250447
-0.739817
0.742249
-0.0221304
0.0193208
-0.878966
0.881776
-0.0161101
0.0130968
-1.04818
1.0512
-0.00968348
0.00647679
-1.25325
1.25646
-0.00289321
-0.000487775
-1.50187
1.50525
0.00387571
-0.00745542
-1.50247
1.50604
0.0106239
-0.0139756
-1.25515
1.2585
0.0169318
-0.0200735
-1.05101
1.05415
0.0228211
-0.0256635
-0.882665
0.885507
0.0280257
-0.0302452
-0.74481
0.747029
0.0317162
-0.032923
-0.632958
0.634165
0.0334453
-0.0330576
-0.543292
0.542904
0.0310104
-0.0262447
-0.4576
0.452834
0.018369
-0.00788955
-0.305791
0.295312
0.00168716
-0.0578818
0.0561946
-0.0559585
0.0558915
6.69776e-05
-0.00548652
0.0107191
-0.347448
0.342216
-0.0164553
0.0208086
-0.45315
0.448797
-0.0243294
0.0262409
-0.53411
0.532198
-0.0271442
0.0270786
-0.628759
0.628824
-0.0262601
0.0249091
-0.744071
0.745422
-0.0228449
0.0204935
-0.884364
0.886715
-0.0175082
0.0144612
-1.05425
1.0573
-0.0108372
0.00728628
-1.2599
1.26345
-0.00313709
-0.000929142
-1.50911
1.51318
0.00497365
-0.00904635
-1.50997
1.51404
0.0124944
-0.0159877
-1.26195
1.26545
0.0189183
-0.0217749
-1.05715
1.06001
0.0240037
-0.0259417
-0.887852
0.88979
0.027191
-0.0279005
-0.748321
0.74903
0.0278627
-0.0268602
-0.633915
0.632913
0.0248639
-0.0212534
-0.54032
0.53671
0.0168186
-0.010987
-0.44705
0.441218
0.00566567
-0.00148333
-0.288783
0.284601
9.69163e-05
-0.0558181
0.0557212
-0.0557673
0.0556948
7.24874e-05
-0.00249478
0.00554904
-0.338102
0.335048
-0.00983036
0.0137316
-0.444451
0.44055
-0.0173698
0.0197691
-0.529958
0.527558
-0.0214045
0.0220903
-0.628565
0.627879
-0.0220065
0.021312
-0.746462
0.747157
-0.0199258
0.0181808
-0.888776
0.890521
-0.0157757
0.0132023
-1.06016
1.06273
-0.00999292
0.0067391
-1.26691
1.27017
-0.00273979
-0.0012779
-1.51727
1.52129
0.00525552
-0.00916401
-1.51809
1.522
0.0123502
-0.0154553
-1.26881
1.27191
0.0178589
-0.0200788
-1.06259
1.06481
0.0216617
-0.0228819
-0.891374
0.892594
0.0234475
-0.0233806
-0.749389
0.749322
0.0225419
-0.0207218
-0.631538
0.629718
0.0181651
-0.0143687
-0.5328
0.529004
0.0103334
-0.00591414
-0.435913
0.431494
0.00274014
-0.000761397
-0.281701
0.279723
0.000113397
-0.0555635
0.0554501
-0.0557013
0.0557121
-1.08069e-05
-0.000924955
0.00234262
-0.332933
0.331515
-0.00461514
0.00694185
-0.437407
0.43508
-0.00937184
0.0112651
-0.525302
0.523408
-0.0128802
0.0139111
-0.626895
0.625864
-0.0145155
0.0145772
-0.747407
0.747346
-0.0141093
0.013206
-0.891843
0.892746
-0.011716
0.00992209
-1.06494
1.06673
-0.0075088
0.00492174
-1.27313
1.27571
-0.00166765
-0.00163445
-1.52504
1.52834
0.00489064
-0.00802941
-1.5256
1.52874
0.0105022
-0.0127658
-1.27465
1.27691
0.014369
-0.0156112
-1.06655
1.0678
0.0162867
-0.0165107
-0.89328
0.893504
0.0162337
-0.0154029
-0.748751
0.74792
0.0141727
-0.0123478
-0.627771
0.625946
0.0102734
-0.00765857
-0.525713
0.523099
0.00517445
-0.00274008
-0.428118
0.425684
0.0011841
-0.000303781
-0.278428
0.277548
3.05699e-05
-0.0554146
0.0553841
-0.0557067
0.0557043
2.34656e-06
-0.000446181
0.00108897
-0.330561
0.329918
-0.00214837
0.00329664
-0.43343
0.432282
-0.00459135
0.00570292
-0.521929
0.520817
-0.00676235
0.00753224
-0.624937
0.624168
-0.00810536
0.00835268
-0.747141
0.746893
-0.00828352
0.00789042
-0.893341
0.893734
-0.00707334
0.0059705
-1.06814
1.06925
-0.00436516
0.00256213
-1.2779
1.2797
-0.000277544
-0.00204616
-1.53114
1.53346
0.00432447
-0.00646335
-1.53137
1.53351
0.00804961
-0.00937891
-1.27868
1.28001
0.0102305
-0.0107486
-1.06863
1.06914
0.0108604
-0.0106223
-0.893436
0.893198
0.0101
-0.00923782
-0.747027
0.746165
0.0082224
-0.00691889
-0.624377
0.623073
0.00560218
-0.00409764
-0.521105
0.5196
0.00277158
-0.00153144
-0.423955
0.422715
0.000737517
-0.000247249
-0.276902
0.276412
5.17752e-05
-0.0553342
0.0552824
-0.0557145
0.0557356
-2.11527e-05
-0.000119327
0.000391202
-0.329493
0.329221
-0.000860691
0.00138857
-0.431495
0.430967
-0.00201119
0.00257394
-0.520011
0.519448
-0.00314467
0.00358685
-0.623565
0.623123
-0.00394818
0.00413562
-0.746659
0.746471
-0.00414806
0.00395338
-0.894
0.894194
-0.0034814
0.00279869
-1.07011
1.07079
-0.00176233
0.000569147
-1.28117
1.28236
0.000955416
-0.00250274
-1.53537
1.53691
0.00399352
-0.00533672
-1.53521
1.53656
0.0062603
-0.00693349
-1.28098
1.28165
0.0072876
-0.00739553
-1.06943
1.06954
0.00725231
-0.00687232
-0.892864
0.892484
0.00635809
-0.00565495
-0.745374
0.744671
0.00492126
-0.00405822
-0.62201
0.621147
0.00324947
-0.00237688
-0.518463
0.51759
0.00163728
-0.000950901
-0.421807
0.42112
0.000493679
-0.000183793
-0.276031
0.275721
4.33652e-05
-0.0552369
0.0551936
-0.0557633
0.0557985
-3.51851e-05
7.70563e-05
1.93668e-06
-0.329057
0.328978
-0.000177177
0.000387531
-0.430623
0.430413
-0.000642581
0.000876002
-0.519072
0.518839
-0.00111391
0.00129603
-0.622822
0.62264
-0.00143615
0.00148965
-0.746348
0.746295
-0.00144038
0.00127416
-0.894361
0.894527
-0.000934477
0.000464013
-1.07135
1.07182
0.000239281
-0.00104085
-1.28334
1.28414
0.00205624
-0.00306711
-1.53817
1.53918
0.00400387
-0.00478785
-1.53759
1.53838
0.00526484
-0.00555025
-1.2821
1.28239
0.00562618
-0.00551721
-1.06952
1.06941
0.00526959
-0.00487281
-0.892089
0.891692
0.00442551
-0.00387419
-0.744051
0.7435
0.00333937
-0.00274293
-0.620438
0.619842
0.00220623
-0.00164344
-0.516902
0.516339
0.00117167
-0.000726552
-0.420579
0.420134
0.000411231
-0.000172885
-0.275456
0.275217
4.76061e-05
-0.0551486
0.055101
-0.0558427
0.055893
-5.03118e-05
0.000212498
-0.000247374
-0.328969
0.329004
0.000245596
-0.00021944
-0.430304
0.430277
0.000182369
-0.000152838
-0.518717
0.518687
0.000134225
-0.000139096
-0.622558
0.622563
0.000179578
-0.00026071
-0.74631
0.746391
0.000412925
-0.000623573
-0.89471
0.89492
0.000947207
-0.00133699
-1.07224
1.07263
0.00187107
-0.00244727
-1.28481
1.28539
0.00314685
-0.00380636
-1.53999
1.54065
0.00437229
-0.00479993
-1.53896
1.53939
0.00500853
-0.00502682
-1.28252
1.28254
0.00491744
-0.00467924
-1.06923
1.06899
0.00437591
-0.00397397
-0.891295
0.890893
0.00356676
-0.00309775
-0.742999
0.74253
0.00266419
-0.002197
-0.619323
0.618856
0.00178672
-0.00136252
-0.51586
0.515436
0.0010066
-0.000661904
-0.419751
0.419407
0.000401234
-0.00018357
-0.274994
0.274776
5.52007e-05
-0.0550501
0.0549949
-0.0559497
0.0560151
-6.54472e-05
0.000339595
-0.000465796
-0.329084
0.32921
0.000578735
-0.000675392
-0.430318
0.430415
0.000785994
-0.000898356
-0.518735
0.518847
0.00103864
-0.00118693
-0.622643
0.622792
0.00137693
-0.00158148
-0.746535
0.74674
0.00184674
-0.00213243
-0.895166
0.895451
0.00249865
-0.00288263
-1.07301
1.07339
0.00335402
-0.0038171
-1.2859
1.28636
0.0043317
-0.004765
-1.54119
1.54162
0.00508016
-0.00523847
-1.53968
1.53983
0.00523729
-0.00512101
-1.28249
1.28238
0.00488139
-0.00454383
-1.0687
1.06836
0.00418248
-0.00375259
-0.89048
0.89005
0.00334477
-0.00289566
-0.742078
0.741628
0.00249328
-0.00206915
-0.618419
0.617995
0.00170201
-0.00132526
-0.515044
0.514667
0.00100757
-0.000691924
-0.419083
0.418767
0.000439458
-0.000211995
-0.274557
0.274329
6.70024e-05
-0.0549343
0.0548673
-0.0560908
0.0561772
-8.63959e-05
0.000475989
-0.000681286
-0.329376
0.329581
0.000895964
-0.00109444
-0.430564
0.430762
0.00132531
-0.00155419
-0.519019
0.519248
0.00182765
-0.00210046
-0.623003
0.623276
0.00242656
-0.00275117
-0.747004
0.747328
0.00313745
-0.00351825
-0.895782
0.896163
0.00396399
-0.00439107
-1.07379
1.07422
0.0048688
-0.00529407
-1.2868
1.28722
0.00571437
-0.00601039
-1.54197
1.54227
0.00615773
-0.00613573
-1.53989
1.53987
0.0059737
-0.0056814
-1.28217
1.28188
0.0053438
-0.00490913
-1.06798
1.06755
0.00447948
-0.0039922
-0.889596
0.889109
0.00354589
-0.00306695
-0.74117
0.740691
0.00264582
-0.00220777
-0.61757
0.617132
0.00183188
-0.00144768
-0.514292
0.513908
0.00112208
-0.000791926
-0.418449
0.418119
0.000516955
-0.000256679
-0.274088
0.273828
8.31948e-05
-0.0547927
0.0547095
-0.0562751
0.0563861
-0.000110996
0.000629464
-0.000917157
-0.329827
0.330114
0.0012319
-0.00152983
-0.43101
0.431308
0.00187804
-0.00222133
-0.519533
0.519877
0.00262707
-0.00302558
-0.623611
0.624009
0.00349263
-0.00394606
-0.747716
0.748169
0.00446953
-0.00496712
-0.896599
0.897097
0.00552504
-0.00603322
-1.07468
1.07519
0.00656803
-0.00700854
-1.28765
1.28809
0.00739693
-0.0076136
-1.54252
1.54274
0.0076432
-0.00747571
-1.53977
1.53961
0.00718079
-0.006742
-1.28151
1.28107
0.00627525
-0.00571818
-1.06705
1.0665
0.00518955
-0.00460667
-0.888578
0.887995
0.00408373
-0.00353064
-0.74018
0.739627
0.00304959
-0.00255307
-0.616669
0.616173
0.00212929
-0.00169711
-0.513505
0.513072
0.00132959
-0.000952203
-0.417769
0.417391
0.000630394
-0.000317478
-0.273544
0.273231
0.000104131
-0.0546166
0.0545125
-0.056512
0.056655
-0.000142939
0.000819863
-0.00120309
-0.330448
0.330831
0.00162951
-0.0020367
-0.431658
0.432066
0.00251343
-0.00298229
-0.520281
0.520749
0.00353417
-0.0040732
-0.624475
0.625014
0.00469999
-0.00530238
-0.748694
0.749296
0.0059889
-0.00663088
-0.897663
0.898305
0.00733571
-0.00796082
-1.07575
1.07638
0.00859561
-0.00909247
-1.28855
1.28905
0.00949301
-0.00966605
-1.54293
1.5431
0.00960231
-0.00929867
-1.53937
1.53907
0.0088645
-0.00826794
-1.28056
1.27996
0.00765564
-0.00694551
-1.06587
1.06516
0.0062849
-0.00556734
-0.88735
0.886633
0.00493048
-0.0042623
-0.739022
0.738354
0.00368436
-0.00309033
-0.615633
0.615038
0.0025846
-0.00206932
-0.512603
0.512088
0.0016302
-0.00117616
-0.416979
0.416525
0.000784061
-0.000397518
-0.272884
0.272497
0.000131062
-0.0543957
0.0542646
-0.0568173
0.0570018
-0.000184479
0.00106221
-0.00156277
-0.331269
0.33177
0.00212324
-0.00266013
-0.432534
0.433071
0.00328914
-0.00390701
-0.521289
0.521907
0.00463291
-0.00533995
-0.625633
0.62634
0.00615915
-0.00694267
-0.749984
0.750768
0.00782978
-0.00865232
-0.899032
0.899854
0.00954544
-0.010326
-1.07707
1.07785
0.0111025
-0.0116913
-1.28959
1.29018
0.0121372
-0.0122875
-1.54326
1.54341
0.0121377
-0.0116903
-1.53869
1.53825
0.0110978
-0.0103138
-1.27928
1.27849
0.00952456
-0.00862112
-1.06436
1.06345
0.00778874
-0.00689121
-0.885831
0.884934
0.00609889
-0.00527113
-0.737612
0.736784
0.00455752
-0.00382581
-0.614381
0.613649
0.00320379
-0.0025704
-0.511518
0.510885
0.00203012
-0.00146954
-0.416022
0.415462
0.000982504
-0.000499345
-0.272066
0.271582
0.000164862
-0.0541176
0.0539527
-0.0572117
0.0574505
-0.000238829
0.00137523
-0.00202436
-0.33234
0.332989
0.00275269
-0.003451
-0.433684
0.434382
0.00426922
-0.00507205
-0.522612
0.523415
0.00601402
-0.00692987
-0.627145
0.628061
0.00798847
-0.00899776
-0.751658
0.752667
0.0101359
-0.0111858
-0.900784
0.901834
0.012318
-0.0132985
-1.07873
1.07971
0.0142611
-0.0149758
-1.29083
1.29154
0.0154934
-0.0156308
-1.54356
1.54369
0.015388
-0.0147733
-1.53772
1.5371
0.0139899
-0.0129734
-1.2776
1.27658
0.0119619
-0.0108125
-1.06243
1.06128
0.00975968
-0.00862893
-0.883927
0.882796
0.00763382
-0.0065964
-0.735858
0.734821
0.00570342
-0.0047887
-0.612832
0.611917
0.00401183
-0.00322125
-0.510178
0.509387
0.00254682
-0.00184605
-0.414835
0.414135
0.00123555
-0.000628362
-0.271041
0.270434
0.000207435
-0.0537678
0.0535604
-0.0577232
0.0580338
-0.000310582
0.00178433
-0.00262506
-0.333728
0.334568
0.00356852
-0.00447297
-0.435177
0.436081
0.00553232
-0.00657038
-0.524328
0.525366
0.00778657
-0.00896705
-0.629102
0.630282
0.0103286
-0.0116234
-0.753811
0.755106
0.0130788
-0.0144157
-0.903019
0.904356
0.0158496
-0.0170823
-1.08081
1.08204
0.0182798
-0.0191541
-1.29233
1.2932
0.0197639
-0.019888
-1.54382
1.54395
0.0195315
-0.0187091
-1.53639
1.53557
0.0176871
-0.0163777
-1.27543
1.27412
0.0150844
-0.0136223
-1.05999
1.05853
0.0122879
-0.0108586
-0.881525
0.880096
0.00960343
-0.00829685
-0.733657
0.73235
0.00717346
-0.00602354
-0.610892
0.609742
0.00504729
-0.00405387
-0.508502
0.507508
0.00320602
-0.00232428
-0.413349
0.412467
0.0015554
-0.000790498
-0.269752
0.268987
0.00026066
-0.0533277
0.0530671
-0.0583903
0.0587968
-0.000406491
0.00232627
-0.00341811
-0.335524
0.336616
0.00464215
-0.00581431
-0.437108
0.43828
0.00718566
-0.0085268
-0.526545
0.527886
0.0100949
-0.0116139
-0.631622
0.633141
0.013362
-0.01502
-0.756572
0.75823
0.0168773
-0.018576
-0.905863
0.907562
0.0203877
-0.0219336
-1.08342
1.08497
0.0234195
-0.0244861
-1.29417
1.29524
0.0252013
-0.025299
-1.54406
1.54416
0.0247912
-0.0237017
-1.53462
1.53353
0.0223759
-0.0206947
-1.27263
1.27095
0.0190447
-0.0171869
-1.05688
1.05502
0.0154962
-0.0136889
-0.878489
0.876681
0.0121036
-0.0104551
-0.730883
0.729234
0.00903851
-0.00758919
-0.608452
0.607002
0.00635906
-0.00510728
-0.506394
0.505142
0.00403865
-0.00292697
-0.411478
0.410366
0.00195755
-0.00099368
-0.268129
0.267165
0.000327059
-0.0527752
0.0524481
-0.0592675
0.0598049
-0.000537355
0.00305636
-0.00448404
-0.337857
0.339285
0.00608225
-0.00760847
-0.439607
0.441133
0.00938829
-0.0111224
-0.529411
0.531145
0.0131434
-0.0150965
-0.634869
0.636822
0.0173382
-0.0194582
-0.760109
0.762229
0.0218238
-0.0239766
-0.909475
0.911628
0.0262569
-0.0281853
-1.0867
1.08862
0.0300153
-0.0313021
-1.29641
1.2977
0.0321232
-0.0321638
-1.54423
1.54428
0.031447
-0.0300085
-1.53228
1.53084
0.0282936
-0.0261411
-1.26905
1.2669
0.0240405
-0.0216841
-1.05293
1.05057
0.0195447
-0.0172613
-0.874648
0.872365
0.015261
-0.0131821
-0.727381
0.725302
0.0113963
-0.009569
-0.605375
0.603547
0.00801737
-0.0064374
-0.503738
0.502158
0.00508786
-0.00368389
-0.40912
0.407716
0.0024608
-0.00124695
-0.266084
0.26487
0.000409543
-0.0520823
0.0516728
-0.0604323
0.0611571
-0.000724802
0.0040737
-0.00596464
-0.340897
0.342788
0.00807327
-0.0100707
-0.442852
0.44485
0.0123813
-0.0146186
-0.533129
0.535366
0.0172157
-0.0197216
-0.63906
0.641566
0.0225926
-0.0253008
-0.764636
0.767344
0.0283089
-0.0310281
-0.914047
0.916766
0.0338817
-0.0362657
-1.09077
1.09315
0.0384898
-0.0400113
-1.2991
1.30062
0.0409165
-0.0408434
-1.54427
1.54419
0.0398327
-0.0379358
-1.52919
1.52729
0.0357244
-0.0329776
-1.26446
1.26172
0.0303137
-0.0273356
-1.04792
1.04494
0.0246379
-0.0217625
-0.869795
0.86692
0.0192458
-0.0166313
-0.722963
0.720348
0.0143852
-0.0120851
-0.601495
0.599195
0.0101291
-0.00813346
-0.50039
0.498395
0.00642545
-0.00464727
-0.406147
0.404369
0.00310039
-0.00156892
-0.26351
0.261979
0.000514865
-0.0512157
0.0507008
-0.0619984
0.0630116
-0.0010132
0.0055677
-0.00811625
-0.344887
0.347436
0.0109203
-0.0135269
-0.447099
0.449706
0.0164982
-0.0193593
-0.537983
0.540844
0.0226775
-0.0258867
-0.644482
0.647692
0.0295667
-0.0330301
-0.770422
0.773886
0.0368517
-0.0402719
-0.919797
0.923218
0.0438125
-0.0467195
-1.09577
1.09867
0.0493678
-0.0511106
-1.30224
1.30399
0.0520405
-0.05176
-1.54403
1.54375
0.0503361
-0.0478419
-1.52511
1.52262
0.0450034
-0.0415195
-1.25862
1.25513
0.0381618
-0.0344206
-1.04159
1.03785
0.0310389
-0.0274386
-0.863681
0.860081
0.0242902
-0.0210206
-0.717395
0.714126
0.0182104
-0.0153283
-0.596604
0.593722
0.0128688
-0.0103472
-0.496172
0.493651
0.00817687
-0.00590881
-0.402403
0.400135
0.00393754
-0.00199191
-0.260271
0.258325
0.000655592
-0.0501326
0.049477
-0.0641474
0.0656279
-0.00148042
0.00787661
-0.0113521
-0.350191
0.353667
0.0150538
-0.0184013
-0.452737
0.456085
0.0221517
-0.0257793
-0.544373
0.548001
0.030025
-0.0341639
-0.651507
0.655646
0.0389187
-0.0433658
-0.777782
0.782229
0.0482108
-0.0524738
-0.92695
0.931213
0.0567973
-0.0602582
-1.10178
1.10525
0.0633065
-0.0652006
-1.30577
1.30767
0.0660328
-0.0653973
-1.54328
1.54265
0.0633987
-0.0601367
-1.51975
1.51649
0.056522
-0.0521446
-1.25121
1.24683
0.0479538
-0.0432991
-1.03365
1.02899
0.0390987
-0.0346308
-0.856011
0.851543
0.0307266
-0.0266736
-0.710396
0.706343
0.0231894
-0.0196107
-0.59044
0.586861
0.0165423
-0.0133689
-0.490853
0.487679
0.0106025
-0.00767451
-0.397688
0.39476
0.00511616
-0.00259218
-0.256195
0.253671
0.000860839
-0.0487805
0.0479196
-0.0672048
0.069471
-0.00226629
0.0116286
-0.016385
-0.357402
0.362158
0.0212052
-0.0254603
-0.460349
0.464605
0.0302037
-0.0348732
-0.552826
0.557495
0.040427
-0.0458541
-0.660577
0.666004
0.0520299
-0.0576931
-0.787058
0.792721
0.0637134
-0.0688688
-0.935681
0.940836
0.0739449
-0.0778677
-1.10878
1.11271
0.0811557
-0.0830158
-1.30946
1.31132
0.0835132
-0.0822922
-1.54168
1.54046
0.0795019
-0.0752687
-1.51273
1.50849
0.0707181
-0.06529
-1.24192
1.23649
0.0601331
-0.0544245
-1.02378
1.01807
0.0492772
-0.0438019
-0.846467
0.840992
0.0390168
-0.0340498
-0.701635
0.696668
0.0297798
-0.0253924
-0.582671
0.578283
0.0216135
-0.017664
-0.48412
0.480171
0.0141485
-0.0103238
-0.391734
0.38791
0.00691504
-0.00351273
-0.251061
0.247659
0.00117573
-0.0470837
0.045908
-0.0717859
0.0755562
-0.00377026
0.0183712
-0.0249786
-0.367501
0.374109
0.0312822
-0.0367748
-0.470774
0.476267
0.0429796
-0.0491845
-0.564003
0.570208
0.0565698
-0.0636335
-0.672206
0.67927
0.0714136
-0.0782853
-0.798551
0.805422
0.085334
-0.0911551
-0.945987
0.951808
0.0966649
-0.100719
-1.11648
1.12054
0.103853
-0.105312
-1.31285
1.31431
0.105079
-0.102931
-1.53869
1.53655
0.0990617
-0.0936208
-1.50361
1.49817
0.0879715
-0.0813502
-1.23042
1.2238
0.075122
-0.0682576
-1.01171
1.00484
0.0620706
-0.055478
-0.834764
0.828172
0.049702
-0.043692
-0.690788
0.684778
0.0385148
-0.0331852
-0.572924
0.567594
0.0285728
-0.0237098
-0.475561
0.470698
0.0192741
-0.0142538
-0.384124
0.379104
0.00963932
-0.00490686
-0.244498
0.239766
0.00162699
-0.0448963
0.0432693
-0.0791177
0.0864114
-0.00729372
0.0324515
-0.0419439
-0.382428
0.39192
0.050014
-0.056978
-0.485272
0.492236
0.0651146
-0.0732289
-0.578657
0.586771
0.0825639
-0.0910563
-0.686758
0.695251
0.0999752
-0.107518
-0.812129
0.819672
0.114958
-0.120841
-0.957316
0.963199
0.126128
-0.129707
-1.12411
1.12769
0.132067
-0.132573
-1.31512
1.31563
0.131084
-0.127577
-1.5336
1.5301
0.122293
-0.115402
-1.49192
1.48503
0.108498
-0.100586
-1.21647
1.20856
0.0932339
-0.0851894
-0.997276
0.989231
0.0779537
-0.0702348
-0.82076
0.813041
0.0634449
-0.0563439
-0.677662
0.670561
0.0501841
-0.0437976
-0.560909
0.554523
0.0382403
-0.0323457
-0.464713
0.458818
0.026816
-0.0201946
-0.374146
0.367525
0.0136509
-0.00678215
-0.235627
0.228758
0.00214173
-0.0419553
0.0398136
-0.0937644
0.0964563
-0.0026919
0.0193453
-0.0279087
-0.404877
0.413441
0.0360446
-0.0438356
-0.504667
0.512458
0.0532759
-0.0630541
-0.596621
0.606399
0.0737101
-0.0831835
-0.703428
0.712901
0.0937019
-0.102995
-0.826482
0.835775
0.112635
-0.120894
-0.968188
0.976447
0.1291
-0.135682
-1.13025
1.13684
0.141564
-0.145452
-1.31505
1.31893
0.147612
-0.14718
-1.52548
1.52505
0.144031
-0.138525
-1.47718
1.47168
0.131943
-0.123488
-1.19992
1.19146
0.115135
-0.105005
-0.980527
0.970397
0.0955993
-0.0851287
-0.804583
0.794112
0.0756511
-0.0654731
-0.662388
0.65221
0.0562012
-0.046651
-0.54666
0.53711
0.0385022
-0.0295531
-0.451375
0.442426
0.021459
-0.0128846
-0.360854
0.35228
0.00622711
-0.00160334
-0.222444
0.21782
-0.000178878
-0.037702
0.0378808
-0.103497
0.0986192
0.00487829
-0.0044669
-0.000687421
-0.425255
0.43041
0.0080963
-0.0151253
-0.52381
0.530839
0.0239196
-0.0322303
-0.616256
0.624567
0.0416553
-0.0502535
-0.722337
0.730936
0.059421
-0.0677213
-0.844578
0.852878
0.0763303
-0.0834267
-0.984405
0.991501
0.0906874
-0.096206
-1.14329
1.14881
0.101127
-0.104155
-1.32268
1.3257
0.10532
-0.10429
-1.52408
1.52305
0.10078
-0.0952103
-1.46573
1.46017
0.0886523
-0.0805284
-1.18293
1.17481
0.0727077
-0.0637255
-0.960455
0.951472
0.055292
-0.0458957
-0.783459
0.774063
0.0374825
-0.0288455
-0.640919
0.632282
0.0214981
-0.013971
-0.525652
0.518125
0.00758952
-0.00138469
-0.430948
0.424743
-0.00334222
0.00695852
-0.34162
0.338004
-0.00786203
0.00586424
-0.210484
0.212481
-0.00271671
-0.0362795
0.0389962
-0.100335
0.0958375
0.00449776
-0.0105925
0.00835123
-0.439363
0.441605
-0.0034852
-0.00210969
-0.54001
0.545605
0.00907404
-0.0159517
-0.633008
0.639886
0.0237004
-0.0307889
-0.738952
0.74604
0.038545
-0.0454283
-0.860404
0.867288
0.0523784
-0.058477
-0.998349
1.00445
0.0645867
-0.0693764
-1.15393
1.15872
0.0733081
-0.0756162
-1.32826
1.33057
0.0765437
-0.0754186
-1.52173
1.5206
0.0721449
-0.0671751
-1.45458
1.44961
0.061523
-0.0548484
-1.16724
1.16057
0.0482277
-0.0410112
-0.942966
0.935749
0.0344024
-0.027213
-0.765737
0.758548
0.021114
-0.0148978
-0.623965
0.617749
0.00986161
-0.00474901
-0.509744
0.504631
0.000889385
0.00250272
-0.416707
0.413315
-0.00495188
0.00636807
-0.33139
0.329974
-0.00577946
0.00355804
-0.208061
0.210282
-0.00158841
-0.0383889
0.0399773
-0.0965098
0.0926754
0.00383441
-0.0114488
0.0108286
-0.448475
0.449095
-0.00761695
0.00319536
-0.552424
0.556846
0.00251229
-0.00787391
-0.64638
0.651742
0.0140761
-0.0197863
-0.752756
0.758466
0.0260196
-0.0315954
-0.873629
0.879204
0.0376016
-0.04253
-1.01007
1.015
0.0476854
-0.0513437
-1.16312
1.16678
0.0546749
-0.0566248
-1.3328
1.33475
0.0572944
-0.0560496
-1.51939
1.51815
0.0533622
-0.0493472
-1.4447
1.44069
0.0447479
-0.0391035
-1.15435
1.14871
0.0338738
-0.028298
-0.929012
0.923436
0.0231125
-0.0178427
-0.752136
0.746866
0.0130888
-0.00849787
-0.611589
0.606998
0.00478844
-0.00137474
-0.498938
0.495524
-0.00106817
0.00318682
-0.40763
0.405511
-0.00465899
0.00512246
-0.324941
0.324478
-0.00458874
0.00287249
-0.206495
0.208211
-0.00127764
-0.0388939
0.0401715
-0.0936003
0.0907589
0.00284145
-0.00989538
0.0103272
-0.454589
0.454157
-0.00787873
0.00457605
-0.562313
0.565616
-0.000263499
-0.00419934
-0.657008
0.661471
0.00901278
-0.0137006
-0.763677
0.768364
0.018722
-0.023243
-0.884308
0.888829
0.0280815
-0.032249
-1.01974
1.02391
0.0363985
-0.0396657
-1.17031
1.17357
0.0424681
-0.0441169
-1.33647
1.33812
0.0447127
-0.0436725
-1.51704
1.516
0.0414683
-0.0380207
-1.43652
1.43307
0.034257
-0.0297934
-1.14358
1.13911
0.0256019
-0.0210341
-0.918144
0.913576
0.0169904
-0.0127862
-0.741858
0.737653
0.00917704
-0.00558162
-0.6025
0.598905
0.00275733
-0.00017554
-0.491252
0.48867
-0.00181553
0.00338477
-0.401341
0.399772
-0.00417501
0.00453392
-0.320456
0.320097
-0.00405917
0.00234923
-0.204585
0.206295
-0.0010667
-0.0390543
0.040121
-0.0918825
0.0896895
0.00219307
-0.00804146
0.00852477
-0.458769
0.458286
-0.00716171
0.00450681
-0.569497
0.572152
-0.00073667
-0.00273912
-0.665393
0.668869
0.00655695
-0.0103534
-0.772448
0.776244
0.0145334
-0.0183266
-0.893003
0.896796
0.022511
-0.0259276
-1.02776
1.03118
0.0294616
-0.0322548
-1.17656
1.17935
0.0346122
-0.0360073
-1.33957
1.34097
0.0365023
-0.0359454
-1.51508
1.51452
0.0340677
-0.0313233
-1.42958
1.42684
0.0281697
-0.0244275
-1.13489
1.13114
0.0211305
-0.0172063
-0.909277
0.905352
0.0137998
-0.0104007
-0.733674
0.730274
0.00741635
-0.00443463
-0.595457
0.592475
0.00204372
0.000304886
-0.485343
0.482995
-0.0017842
0.00302852
-0.396393
0.395149
-0.003865
0.00407055
-0.316638
0.316432
-0.00352964
0.00209526
-0.203011
0.204445
-0.000913559
-0.0390253
0.0399388
-0.0909786
0.0893246
0.00165401
-0.00626112
0.00679366
-0.462026
0.461494
-0.00556684
0.00361537
-0.575483
0.577434
-0.000433495
-0.00247817
-0.672122
0.675033
0.00592309
-0.00894454
-0.77976
0.782782
0.0123475
-0.0154644
-0.900526
0.903643
0.0192232
-0.0221081
-1.03456
1.03745
0.0250075
-0.0275029
-1.18194
1.18443
0.0299003
-0.0311045
-1.3424
1.3436
0.0316809
-0.0312023
-1.51372
1.51324
0.0299143
-0.0273855
-1.42415
1.42162
0.0248445
-0.0217787
-1.12753
1.12447
0.0188524
-0.0156389
-0.901726
0.898512
0.0126443
-0.00951531
-0.726831
0.723702
0.00711914
-0.00440866
-0.589447
0.586737
0.00216464
-0.000194051
-0.480181
0.478211
-0.00129082
0.0025876
-0.392346
0.391049
-0.0032448
0.00342931
-0.313553
0.313368
-0.00297729
0.00176896
-0.201562
0.20277
-0.00078391
-0.0388866
0.0396705
-0.0906836
0.0893249
0.00135869
-0.0049467
0.00546021
-0.464774
0.464261
-0.0041876
0.00235164
-0.580409
0.582245
0.000361656
-0.00279286
-0.677779
0.68021
0.00551329
-0.00830498
-0.785818
0.78861
0.0112498
-0.0143799
-0.90654
0.909671
0.0173195
-0.0198949
-1.04034
1.04292
0.0227499
-0.0248677
-1.18676
1.18887
0.0266669
-0.0281478
-1.3447
1.34618
0.028812
-0.0285965
-1.51289
1.51268
0.0275207
-0.0256289
-1.41945
1.41756
0.0234792
-0.0207952
-1.12129
1.1186
0.018274
-0.0153821
-0.895346
0.892455
0.0126948
-0.00999221
-0.72074
0.718037
0.00751021
-0.00506152
-0.583959
0.58151
0.00305646
-0.00100376
-0.47574
0.473687
-0.000548635
0.00161688
-0.388466
0.387398
-0.00235004
0.00270713
-0.310689
0.310332
-0.00247237
0.00145683
-0.200186
0.201202
-0.000661467
-0.0386945
0.039356
-0.0908544
0.0896008
0.0012536
-0.00374294
0.00395898
-0.467394
0.467178
-0.00280134
0.00101428
-0.584746
0.586533
0.00127911
-0.00354137
-0.682768
0.68503
0.00604432
-0.00839906
-0.791254
0.793608
0.0113597
-0.0136516
-0.912214
0.914506
0.0164199
-0.018679
-1.04553
1.04779
0.0212473
-0.023373
-1.19088
1.19301
0.025239
-0.0263499
-1.34739
1.3485
0.0271803
-0.0272483
-1.51242
1.51249
0.0267447
-0.0251401
-1.41568
1.41408
0.0233999
-0.0210725
-1.11615
1.11382
0.0188491
-0.0161464
-0.889481
0.886779
0.0137364
-0.0110684
-0.715205
0.712537
0.00869167
-0.00624967
-0.578937
0.576495
0.0041462
-0.00227527
-0.471312
0.469441
0.000605715
0.000621569
-0.384798
0.38357
-0.00156661
0.00201564
-0.307825
0.307376
-0.00188806
0.00120542
-0.198666
0.199349
-0.000502263
-0.0383872
0.0388895
-0.0911405
0.0901423
0.000998173
-0.00280841
0.00255743
-0.470194
0.470445
-0.00153001
-0.000228958
-0.588366
0.590125
0.0021575
-0.00427405
-0.687198
0.689315
0.00658464
-0.00901122
-0.795873
0.7983
0.011329
-0.0136671
-0.916929
0.919267
0.0162573
-0.0181618
-1.05033
1.05223
0.0206081
-0.0224816
-1.19481
1.19669
0.0241631
-0.0255442
-1.3499
1.35128
0.0266168
-0.0268143
-1.5126
1.5128
0.0264734
-0.0255482
-1.41276
1.41183
0.0243159
-0.022299
-1.11151
1.10949
0.0202578
-0.017949
-0.884113
0.881804
0.0153294
-0.0128842
-0.709713
0.707268
0.0105425
-0.00800297
-0.57412
0.571581
0.00598407
-0.00389162
-0.466911
0.464818
0.0021835
-0.000584713
-0.381268
0.379669
-0.000426248
0.00108612
-0.304917
0.304258
-0.00132179
0.000904945
-0.197012
0.197429
-0.000383628
-0.0378867
0.0382703
-0.0916819
0.0908144
0.000867552
-0.00205369
0.00185562
-0.473109
0.473307
-0.000313331
-0.00117143
-0.592023
0.593508
0.00322026
-0.00520046
-0.691126
0.693106
0.00735692
-0.00938737
-0.800448
0.802478
0.0117583
-0.0137173
-0.921552
0.923511
0.0161221
-0.0182615
-1.05444
1.05658
0.0201333
-0.0220662
-1.19843
1.20036
0.0238388
-0.025033
-1.35242
1.35361
0.0261827
-0.0269373
-1.51318
1.51394
0.0269537
-0.0266439
-1.41091
1.4106
0.0256876
-0.0241741
-1.10768
1.10616
0.0225294
-0.0203306
-0.879249
0.87705
0.017968
-0.0154766
-0.704443
0.701952
0.0131021
-0.0104119
-0.568957
0.566267
0.00816246
-0.00597898
-0.462361
0.460177
0.00393985
-0.00214701
-0.377315
0.375522
0.000840695
0.000109017
-0.301719
0.30077
-0.000545883
0.00049067
-0.195173
0.195228
-0.000222315
-0.0372307
0.0374531
-0.0923917
0.0916912
0.000700525
-0.00115525
0.000780489
-0.476065
0.476439
0.000633281
-0.00225996
-0.595321
0.596948
0.00418669
-0.00602401
-0.694812
0.69665
0.00825623
-0.0101305
-0.804498
0.806373
0.0123131
-0.0143076
-0.925856
0.927851
0.0164865
-0.0184223
-1.05846
1.06039
0.0202536
-0.0219226
-1.20203
1.2037
0.023503
-0.0250473
-1.35487
1.35641
0.0262624
-0.027072
-1.51456
1.51537
0.0276825
-0.0277862
-1.41038
1.41048
0.0275179
-0.0267207
-1.10483
1.10404
0.0252672