/*--------------------------------*- C++ -*----------------------------------*\
  =========                 |
  \\      /  F ield         | OpenFOAM: The Open Source CFD Toolbox
   \\    /   O peration     | Website:  https://openfoam.org
    \\  /    A nd           | Version:  10
     \\/     M anipulation  |
\*---------------------------------------------------------------------------*/
FoamFile
{
    format      ascii;
    class       volScalarField;
    location    "57";
    object      p;
}
// * * * * * * * * * * * * * * * * * * * * * * * * * * * * * * * * * * * * * //

dimensions      [0 2 -2 0 0 0 0];

internalField   nonuniform List<scalar> 
8800
(
0.856083
0.808295
0.769606
0.740612
0.719749
0.70492
0.694328
0.686853
0.682041
0.679995
0.681276
0.685477
0.69213
0.701451
0.714234
0.731971
0.756749
0.790691
0.833242
0.891944
0.687332
0.695011
0.702486
0.705795
0.704292
0.699216
0.692731
0.686658
0.681941
0.679108
0.678841
0.681359
0.685857
0.691809
0.698583
0.704866
0.708508
0.707773
0.702354
0.693665
0.665736
0.671895
0.676022
0.678967
0.681017
0.681623
0.680519
0.678419
0.676412
0.675517
0.676493
0.678886
0.681693
0.683879
0.68449
0.683293
0.680953
0.677561
0.673003
0.669242
0.659927
0.662578
0.665329
0.667732
0.669367
0.67053
0.671274
0.671397
0.67111
0.671074
0.671841
0.673023
0.673871
0.673941
0.673335
0.672247
0.670432
0.667862
0.66546
0.663956
0.654549
0.655973
0.657752
0.659783
0.661567
0.662909
0.6639
0.664703
0.665328
0.665907
0.666575
0.667083
0.667191
0.666909
0.666215
0.664969
0.663275
0.661428
0.660121
0.659289
0.649475
0.650395
0.651636
0.653201
0.654833
0.656358
0.657646
0.658718
0.659693
0.660603
0.66131
0.661652
0.661619
0.661185
0.660308
0.65911
0.657784
0.656525
0.655703
0.655151
0.644573
0.645242
0.646203
0.647504
0.648912
0.650369
0.65181
0.653138
0.654348
0.655473
0.656314
0.656697
0.656622
0.656119
0.655316
0.654371
0.653359
0.652436
0.651852
0.651446
0.639794
0.64031
0.641092
0.642221
0.643496
0.644869
0.646315
0.647792
0.649231
0.650586
0.651614
0.6521
0.652085
0.651706
0.651106
0.650383
0.64961
0.648927
0.648493
0.648176
0.635069
0.635479
0.636133
0.637137
0.63834
0.639665
0.64111
0.64267
0.644302
0.645919
0.647187
0.64786
0.648034
0.64787
0.647489
0.646974
0.646404
0.645912
0.645589
0.645331
0.630311
0.630646
0.631211
0.632134
0.633287
0.634596
0.636076
0.637731
0.639547
0.641448
0.643029
0.643991
0.644435
0.644519
0.644364
0.64407
0.643691
0.643357
0.643118
0.642902
0.625433
0.625711
0.626214
0.627091
0.628225
0.629558
0.631108
0.632901
0.634941
0.637171
0.639145
0.64048
0.64125
0.641616
0.641707
0.641633
0.641443
0.641248
0.641077
0.64089
0.620348
0.620581
0.621045
0.621906
0.623061
0.624459
0.626123
0.628105
0.630435
0.633073
0.63553
0.637312
0.638462
0.639152
0.639519
0.639671
0.639669
0.639602
0.639486
0.639321
0.614965
0.615163
0.615607
0.616481
0.617698
0.619206
0.621038
0.623278
0.625976
0.629128
0.632171
0.634483
0.636078
0.637136
0.637809
0.638201
0.638407
0.638456
0.638387
0.638235
0.609184
0.609354
0.609795
0.610711
0.612031
0.613701
0.615769
0.618345
0.621512
0.625301
0.629054
0.632
0.634116
0.635597
0.636619
0.6373
0.637706
0.63787
0.63784
0.637698
0.60289
0.603036
0.60349
0.604477
0.605947
0.607838
0.610217
0.613224
0.616983
0.621555
0.626168
0.629872
0.632606
0.634585
0.636001
0.636994
0.63763
0.637914
0.637921
0.637783
0.595946
0.596067
0.596548
0.597639
0.599311
0.601492
0.604271
0.607825
0.612319
0.617851
0.623506
0.628116
0.631583
0.634148
0.63603
0.637381
0.638273
0.638679
0.63872
0.638583
0.588177
0.588275
0.588799
0.590029
0.59196
0.594511
0.597801
0.602045
0.607453
0.614158
0.621069
0.626763
0.631095
0.634348
0.636788
0.638559
0.639735
0.640269
0.640342
0.640202
0.579355
0.579456
0.580034
0.58142
0.583682
0.586713
0.590654
0.595767
0.60231
0.610452
0.618873
0.625851
0.631205
0.635267
0.638368
0.640627
0.642123
0.642795
0.642898
0.642752
0.569176
0.569258
0.569927
0.571539
0.574232
0.57788
0.582646
0.588851
0.596807
0.606704
0.616936
0.62543
0.631983
0.636999
0.640856
0.643692
0.645554
0.64637
0.646501
0.646345
0.557274
0.55734
0.558108
0.560032
0.563282
0.567723
0.573545
0.581135
0.590851
0.602889
0.615283
0.625556
0.633506
0.639637
0.64437
0.647879
0.65014
0.651104
0.651257
0.651088
0.543104
0.543159
0.544069
0.546406
0.550391
0.555876
0.563075
0.572442
0.584362
0.599004
0.613958
0.626305
0.635858
0.643264
0.649021
0.653284
0.655974
0.657084
0.657252
0.657065
0.525905
0.525947
0.527071
0.529992
0.534984
0.541881
0.550916
0.562603
0.577307
0.595112
0.613056
0.627765
0.639132
0.647981
0.654877
0.659983
0.663117
0.664357
0.664529
0.664322
0.504534
0.504575
0.506044
0.509841
0.516286
0.525172
0.536725
0.55147
0.569679
0.591282
0.612676
0.630032
0.643417
0.653866
0.661987
0.66801
0.671569
0.672905
0.673064
0.672835
0.477275
0.477335
0.479387
0.484597
0.493285
0.505092
0.520192
0.539005
0.561596
0.587692
0.612979
0.633229
0.648779
0.660942
0.670399
0.677327
0.681243
0.682617
0.682741
0.68249
0.441097
0.441255
0.444508
0.452326
0.464806
0.481069
0.501222
0.525373
0.553333
0.584613
0.614179
0.637489
0.655297
0.669243
0.680067
0.68781
0.691946
0.693267
0.693333
0.693063
0.39024
0.391206
0.397669
0.410838
0.429909
0.453065
0.480188
0.511092
0.545386
0.58243
0.616511
0.64295
0.663026
0.678717
0.690849
0.699217
0.703363
0.704528
0.704519
0.704235
0.315829
0.323038
0.337989
0.361168
0.390074
0.422458
0.458097
0.496772
0.538092
0.581405
0.620365
0.650199
0.672753
0.690372
0.703853
0.712721
0.716773
0.717767
0.717711
0.717463
0.235784
0.252868
0.277105
0.310956
0.350069
0.391823
0.436067
0.482738
0.531526
0.581838
0.626618
0.66072
0.686394
0.706395
0.721538
0.730787
0.734466
0.735198
0.735158
0.735007
0.16908
0.189214
0.221135
0.264044
0.312186
0.362773
0.415358
0.469862
0.525958
0.583068
0.633425
0.671532
0.700124
0.722205
0.738437
0.74767
0.751065
0.751719
0.751726
0.751624
0.114444
0.136229
0.173648
0.22297
0.278244
0.336276
0.396247
0.457954
0.520942
0.584543
0.640201
0.682065
0.713305
0.737172
0.754444
0.763897
0.767365
0.768082
0.768112
0.768046
0.0689364
0.0919046
0.133106
0.187522
0.248535
0.312722
0.379043
0.447156
0.516447
0.586111
0.646784
0.692203
0.725943
0.751583
0.769902
0.780042
0.783768
0.784411
0.784476
0.78444
0.0302983
0.0539406
0.0980007
0.156461
0.222299
0.291719
0.363553
0.437357
0.512395
0.587709
0.653124
0.701935
0.738099
0.765489
0.784925
0.795757
0.799779
0.800478
0.800566
0.800557
-0.00348712
0.0206024
0.0669316
0.128718
0.19863
0.272603
0.349328
0.428274
0.508597
0.589193
0.659094
0.711133
0.749598
0.778652
0.799139
0.810629
0.815005
0.815854
0.815991
0.816004
-0.0339076
-0.00942254
0.0387574
0.10339
0.176817
0.254779
0.335889
0.419522
0.504746
0.590324
0.664496
0.71961
0.760236
0.79078
0.812272
0.824349
0.82906
0.830108
0.83024
0.83025
-0.0619188
-0.0370735
0.0126826
0.0797711
0.156293
0.23779
0.322841
0.41077
0.500579
0.5909
0.669193
0.727249
0.769898
0.801798
0.824154
0.836735
0.841727
0.842916
0.843049
0.843048
-0.0883146
-0.0630635
-0.0118064
0.05735
0.136639
0.221286
0.309902
0.401785
0.495896
0.590767
0.673089
0.734024
0.778609
0.811784
0.834807
0.847759
0.852931
0.85421
0.854341
0.854325
-0.113465
-0.0877907
-0.0353351
0.0358242
0.11755
0.205026
0.296872
0.392395
0.49055
0.58982
0.67613
0.739948
0.786431
0.820775
0.844377
0.857531
0.862784
0.864107
0.86421
0.864169
-0.13778
-0.111549
-0.0580665
0.0149255
0.0988265
0.188839
0.283617
0.382489
0.484443
0.587971
0.678279
0.745047
0.793467
0.82892
0.85299
0.866224
0.8715
0.872822
0.872901
0.872836
-0.161388
-0.134761
-0.0801059
-0.00550606
0.0803413
0.17263
0.270058
0.372005
0.477515
0.585163
0.679505
0.749359
0.799827
0.836415
0.860876
0.874093
0.879285
0.880545
0.880614
0.880528
-0.184422
-0.157272
-0.101594
-0.0255514
0.0620399
0.15636
0.256169
0.360914
0.469733
0.581343
0.679766
0.752915
0.805621
0.843422
0.868208
0.881279
0.8863
0.887461
0.887471
0.887359
-0.20701
-0.179283
-0.122609
-0.0452432
0.0438941
0.140025
0.241961
0.349231
0.461095
0.576481
0.679019
0.755708
0.810942
0.850096
0.875126
0.887895
0.892595
0.893591
0.893539
0.893404
-0.229168
-0.200781
-0.143179
-0.0645836
0.025932
0.123652
0.227477
0.336997
0.451626
0.570552
0.677204
0.757697
0.815844
0.85661
0.881828
0.894056
0.898248
0.899003
0.898892
0.898738
-0.250743
-0.221731
-0.16324
-0.0835522
0.00818448
0.107304
0.212772
0.324282
0.441381
0.563577
0.674255
0.758807
0.820321
0.863122
0.888607
0.90003
0.903388
0.903762
0.90358
0.903427
-0.271714
-0.242108
-0.182779
-0.102102
-0.00929439
0.0910364
0.197935
0.31116
0.430433
0.555582
0.67012
0.758914
0.82429
0.869718
0.895856
0.90633
0.908336
0.907962
0.907657
0.907555
-0.292149
-0.261876
-0.201774
-0.120203
-0.0264438
0.0749302
0.18305
0.297732
0.418872
0.546627
0.66475
0.757869
0.827566
0.876306
0.903925
0.913829
0.913995
0.912003
0.911262
0.911441
-0.311877
-0.281015
-0.220168
-0.137795
-0.043206
0.0590671
0.168211
0.284109
0.406813
0.536805
0.65813
0.755499
0.829865
0.882522
0.912781
0.923512
0.922343
0.917911
0.915208
0.914741
-0.330993
-0.299514
-0.237979
-0.154908
-0.059614
0.0434044
0.153363
0.270234
0.394189
0.526042
0.650124
0.75153
0.830869
0.887834
0.921766
0.935632
0.935773
0.929451
0.921152
0.907058
-0.349422
-0.317359
-0.255324
-0.171742
-0.0759507
0.0276145
0.138097
0.255631
0.380473
0.513713
0.640097
0.745191
0.830013
0.891509
0.92915
0.947952
0.95011
0.937643
0.917915
0.906153
-0.36699
-0.334685
-0.272009
-0.188091
-0.0918691
0.0120384
0.122636
0.240624
0.365967
0.500071
0.628107
0.735999
0.826459
0.89239
0.930703
0.94932
0.954249
0.931058
0.863338
0.832932
-0.383028
-0.352734
-0.287703
-0.203455
-0.106588
-0.00282365
0.107294
0.225438
0.350885
0.485234
0.614081
0.723631
0.818778
0.889812
0.921446
0.934593
0.924066
0.869922
0.800821
0.758304
-0.438695
-0.368662
-0.301959
-0.21895
-0.121719
-0.0184293
0.092004
0.209792
0.334856
0.468738
0.597413
0.707428
0.803106
0.880684
0.885547
0.888277
0.838693
0.768343
0.691654
0.648967
-0.400112
-0.384048
-0.323262
-0.239359
-0.144067
-0.0408449
0.068566
0.185691
0.309737
0.442155
0.568848
0.677103
0.764813
0.846989
0.833849
0.720441
0.615084
0.541759
0.468269
0.498765
-0.431131
-0.40173
-0.340005
-0.256907
-0.161622
-0.0585429
0.0511288
0.167608
0.290569
0.421158
0.545016
0.649047
0.727468
0.771271
0.722768
0.573711
0.445696
0.354163
0.255317
0.305358
-0.455038
-0.422697
-0.35972
-0.276449
-0.181059
-0.0780798
0.0315077
0.147147
0.268695
0.396857
0.516977
0.614837
0.684413
0.693876
0.587317
0.414324
0.261499
0.142569
0.0113532
0.0441206
-0.478451
-0.444562
-0.380387
-0.296188
-0.200696
-0.0978583
0.0112104
0.125882
0.245825
0.371185
0.486644
0.576728
0.631028
0.609231
0.450748
0.254443
0.0641262
-0.103803
-0.292396
-0.310829
-0.501278
-0.466927
-0.401845
-0.316859
-0.221201
-0.118571
-0.0101444
0.10344
0.221523
0.343686
0.453777
0.536091
0.571135
0.513241
0.320885
0.110504
-0.106657
-0.295844
-0.537781
-0.836033
-0.524411
-0.490045
-0.424404
-0.338912
-0.243047
-0.14057
-0.0327103
0.0797546
0.195872
0.31458
0.418987
0.493102
0.5073
0.398326
0.20797
-0.00174018
-0.205866
-0.378032
-0.447125
-0.526315
-0.54881
-0.514368
-0.448412
-0.362669
-0.266732
-0.164497
-0.0572947
0.0538813
0.167717
0.282449
0.380825
0.443994
0.433392
0.290808
0.107707
-0.0829864
-0.245602
-0.338331
-0.362351
-0.378268
-0.574784
-0.540206
-0.474044
-0.388213
-0.292388
-0.190563
-0.0842542
0.0253347
0.136475
0.246592
0.338427
0.387635
0.35946
0.191071
0.016889
-0.148713
-0.275049
-0.313965
-0.326832
-0.328158
-0.602538
-0.567738
-0.501365
-0.415539
-0.319964
-0.218773
-0.113606
-0.00593185
0.102082
0.207017
0.291369
0.326294
0.278916
0.0990096
-0.0660759
-0.214337
-0.290384
-0.307395
-0.308666
-0.308463
-0.632137
-0.59703
-0.530401
-0.444648
-0.349477
-0.249114
-0.145353
-0.0399307
0.0645518
0.163791
0.239773
0.263227
0.179895
0.014943
-0.141769
-0.2639
-0.300469
-0.298753
-0.297733
-0.297096
-0.663298
-0.627899
-0.561049
-0.475451
-0.380839
-0.28153
-0.17946
-0.0766311
0.0239276
0.117018
0.184438
0.190947
0.0896239
-0.063326
-0.201746
-0.27676
-0.287212
-0.289993
-0.290737
-0.290431
-0.695473
-0.659914
-0.593057
-0.507721
-0.413865
-0.315864
-0.215772
-0.115896
-0.0195998
0.067047
0.125813
0.117135
0.00825703
-0.12937
-0.244974
-0.276035
-0.284482
-0.286057
-0.28594
-0.285688
-0.728196
-0.692517
-0.625986
-0.541065
-0.448213
-0.351795
-0.254006
-0.157433
-0.0657407
0.0145533
0.0628846
0.0465585
-0.0673046
-0.182593
-0.274676
-0.290627
-0.282944
-0.282132
-0.282166
-0.282013
-0.760575
-0.724982
-0.658941
-0.574901
-0.483339
-0.388851
-0.293712
-0.200752
-0.114019
-0.0398196
-0.00132187
-0.0192888
-0.135557
-0.223089
-0.273412
-0.285589
-0.282699
-0.281123
-0.280509
-0.280288
-0.791036
-0.756137
-0.690968
-0.608308
-0.518483
-0.426336
-0.334237
-0.245156
-0.163611
-0.0954333
-0.0603375
-0.09281
-0.19587
-0.262403
-0.258924
-0.278436
-0.28371
-0.28192
-0.281065
-0.280582
-0.817985
-0.784184
-0.72094
-0.640087
-0.552613
-0.463326
-0.37472
-0.289787
-0.213346
-0.151343
-0.116779
-0.163802
-0.256977
-0.303789
-0.305272
-0.301144
-0.295043
-0.29083
-0.289231
-0.288385
-0.839303
-0.807229
-0.746867
-0.66885
-0.584468
-0.49868
-0.414084
-0.333616
-0.262019
-0.206075
-0.174415
-0.21965
-0.312906
-0.413593
-0.413001
-0.365356
-0.330057
-0.316853
-0.311483
-0.308897
-0.852758
-0.823399
-0.766755
-0.692755
-0.612559
-0.531114
-0.451125
-0.375449
-0.308547
-0.257582
-0.228
-0.257436
-0.332266
-0.486538
-0.4551
-0.380739
-0.352879
-0.339911
-0.33261
-0.330575
-0.855728
-0.830444
-0.778726
-0.709979
-0.635214
-0.559242
-0.484572
-0.414082
-0.351721
-0.303845
-0.26799
-0.255105
-0.241538
-0.343968
-0.320344
-0.30263
-0.300949
-0.29964
-0.299481
-0.299411
-0.846033
-0.825667
-0.780611
-0.718937
-0.650985
-0.581637
-0.513185
-0.448286
-0.39039
-0.344809
-0.295405
-0.22283
-0.0446827
0.157831
0.0155182
-0.138153
-0.221232
-0.253117
-0.266288
-0.269564
-0.821631
-0.806282
-0.770587
-0.718423
-0.658906
-0.597288
-0.535834
-0.476989
-0.424275
-0.382312
-0.32627
-0.249184
-0.0154818
0.247039
0.0321877
-0.192049
-0.301635
-0.343731
-0.360511
-0.367319
-0.785032
-0.775131
-0.749426
-0.708569
-0.65893
-0.605911
-0.551879
-0.499285
-0.452641
-0.417013
-0.387321
-0.462962
-0.720724
-1.07456
-1.14636
-0.91591
-0.736679
-0.659292
-0.641295
-0.638586
-0.742906
-0.737314
-0.721967
-0.692129
-0.652869
-0.60814
-0.561164
-0.51443
-0.472285
-0.444428
-0.43584
-0.67571
-1.11196
-1.53824
-1.48548
-1.11619
-0.903683
-0.81763
-0.776401
-0.764257
-0.705029
-0.701705
-0.694395
-0.674489
-0.643514
-0.605652
-0.564259
-0.521105
-0.480484
-0.449199
-0.44525
-0.495136
-0.506861
-0.482066
-0.424146
-0.463322
-0.5546
-0.536547
-0.503002
-0.49972
-0.67808
-0.676057
-0.672481
-0.659969
-0.635101
-0.601427
-0.562726
-0.520043
-0.475855
-0.433323
-0.414597
-0.379792
-0.33344
-0.302269
-0.329957
-0.423037
-0.509884
-0.48464
-0.405962
-0.363914
-0.657607
-0.656852
-0.655764
-0.64958
-0.63016
-0.598639
-0.559321
-0.514581
-0.464871
-0.416318
-0.380978
-0.35912
-0.215457
-0.0331561
0.130745
0.2161
0.237424
0.244818
0.261174
0.275312
-0.645892
-0.645515
-0.644927
-0.642343
-0.628299
-0.597592
-0.555416
-0.505642
-0.450732
-0.388341
-0.327114
-0.264546
-0.0732885
0.187133
0.426299
0.594302
0.670641
0.71787
0.742027
0.749638
-0.638846
-0.63858
-0.637995
-0.637732
-0.62922
-0.598772
-0.552281
-0.496872
-0.431676
-0.355334
-0.274796
-0.177821
0.0406222
0.303044
0.537591
0.712433
0.843608
0.95298
1.0279
1.05837
-0.635033
-0.635248
-0.635796
-0.637314
-0.631865
-0.601766
-0.551052
-0.489173
-0.41469
-0.329224
-0.229017
-0.126514
0.111623
0.404886
0.689532
0.938434
1.13349
1.2746
1.35922
1.38983
-0.62884
-0.629789
-0.632048
-0.634771
-0.630461
-0.602137
-0.551466
-0.485019
-0.403136
-0.305266
-0.199834
-0.107594
0.116394
0.417928
0.751456
1.04867
1.28205
1.4313
1.503
1.52394
-0.623676
-0.622806
-0.617735
-0.609194
-0.604901
-0.594657
-0.556393
-0.487719
-0.398442
-0.294025
-0.186223
-0.0802483
0.082015
0.390499
0.686657
0.952129
1.16341
1.29139
1.34936
1.36456
-0.651961
-0.646383
-0.628316
-0.604201
-0.598703
-0.609258
-0.577821
-0.499065
-0.398421
-0.287321
-0.180059
-0.0741963
0.0537769
0.284918
0.541338
0.760314
0.929063
1.02679
1.06917
1.07896
-0.734179
-0.734165
-0.738942
-0.75115
-0.746354
-0.725886
-0.63442
-0.518122
-0.399212
-0.283075
-0.177678
-0.0813477
0.0125297
0.175847
0.380148
0.548545
0.680061
0.752012
0.781644
0.78603
-0.853915
-0.872442
-0.910319
-0.936563
-0.92557
-0.853218
-0.692921
-0.530918
-0.394157
-0.275737
-0.178992
-0.0993348
-0.03435
0.0820534
0.233057
0.359431
0.455347
0.505584
0.524691
0.525677
-0.871855
-0.892224
-0.92734
-0.952565
-0.937827
-0.847894
-0.671227
-0.504664
-0.37002
-0.260134
-0.176274
-0.112877
-0.0664607
0.0110972
0.116494
0.205111
0.268077
0.300745
0.311404
0.312259
-0.681289
-0.702091
-0.735447
-0.762495
-0.752437
-0.668749
-0.540459
-0.419375
-0.316622
-0.230742
-0.164493
-0.116283
-0.0798735
-0.030047
0.0314085
0.0840735
0.120339
0.136781
0.142593
0.141725
-0.355023
-0.367072
-0.38888
-0.412839
-0.421553
-0.397151
-0.350807
-0.296442
-0.243238
-0.190951
-0.146003
-0.11075
-0.0830728
-0.0518219
-0.0219721
-0.000625725
0.0109013
0.0146274
0.0152207
0.0147768
-0.067508
-0.0726888
-0.0866361
-0.110912
-0.140493
-0.165823
-0.17925
-0.179725
-0.168523
-0.148496
-0.126233
-0.104413
-0.0840295
-0.0701864
-0.0604709
-0.0564279
-0.0587785
-0.0624499
-0.0635757
-0.0638245
0.0905902
0.0879909
0.0778317
0.0542512
0.0161211
-0.0275799
-0.0654737
-0.0926765
-0.10755
-0.111886
-0.109923
-0.103494
-0.0940284
-0.0910035
-0.0900109
-0.091601
-0.0961822
-0.0992769
-0.0999616
-0.100146
0.144034
0.142199
0.134225
0.114532
0.0811349
0.0398379
-0.00138511
-0.0366808
-0.0635514
-0.0831388
-0.10007
-0.116317
-0.12543
-0.118514
-0.109509
-0.107335
-0.107496
-0.108818
-0.109042
-0.109406
0.146424
0.14504
0.139251
0.124886
0.10006
0.0677967
0.0324219
-0.00152439
-0.0319249
-0.0600214
-0.0921521
-0.136089
-0.159804
-0.141423
-0.12117
-0.109965
-0.105686
-0.104582
-0.104244
-0.104477
0.130996
0.130052
0.126159
0.116417
0.0992062
0.0758075
0.0483037
0.019898
-0.00795643
-0.0368872
-0.0727463
-0.121675
-0.146561
-0.120907
-0.0987591
-0.0895496
-0.0872024
-0.0872028
-0.087186
-0.0873362
0.112108
0.111537
0.109085
0.102811
0.0914005
0.0752889
0.0554889
0.03404
0.0121914
-0.0101439
-0.0369867
-0.0694971
-0.0778729
-0.0611938
-0.0512611
-0.050568
-0.0537924
-0.0562126
-0.0567921
-0.0567641
0.0944542
0.0941785
0.0927641
0.0889606
0.0817717
0.0712923
0.0580791
0.0436041
0.0294966
0.0171531
0.00834965
0.00215035
0.00914297
0.0164532
0.0110454
0.00263966
-0.00470502
-0.00819306
-0.00892322
-0.00897658
0.0790012
0.0788787
0.0781675
0.0760545
0.0718598
0.0655735
0.057656
0.0494417
0.0430682
0.0422054
0.0521954
0.0723429
0.0983904
0.0911639
0.0740594
0.0595718
0.0510959
0.0489031
0.0472473
0.0468237
0.0652116
0.0652185
0.0649625
0.0639804
0.0618528
0.0585872
0.0546705
0.051423
0.0514642
0.0599126
0.0838886
0.120325
0.152756
0.141961
0.120597
0.105133
0.097994
0.0955905
0.0947793
0.0939967
0.0522814
0.0523688
0.0523919
0.0521389
0.0513757
0.0501208
0.0489385
0.0491141
0.0533986
0.0673752
0.0980661
0.139328
0.171107
0.161074
0.142233
0.131992
0.128041
0.127048
0.125678
0.124457
0.0396647
0.0397827
0.0399495
0.0401042
0.0401253
0.0401057
0.040513
0.0425342
0.0486316
0.0640951
0.0943889
0.131783
0.155951
0.147002
0.135273
0.130875
0.131765
0.13247
0.131126
0.129895
0.0270441
0.0271381
0.0273132
0.0276527
0.0280748
0.0286361
0.0296615
0.0321125
0.0378778
0.0510847
0.0758034
0.103767
0.118665
0.110425
0.10602
0.107398
0.112222
0.113404
0.112101
0.110947
0.0146106
0.0146667
0.0148071
0.0151313
0.0155966
0.016185
0.0170671
0.0187906
0.0224889
0.0305654
0.0456266
0.0626524
0.0697841
0.0640708
0.0642876
0.0680314
0.072405
0.0745388
0.0733577
0.0721287
0.00260655
0.00262545
0.00262131
0.00270892
0.003021
0.00321875
0.0033832
0.0036013
0.00393653
0.00461752
0.00633013
0.00937581
0.0138158
0.018386
0.0188498
0.0198014
0.0190505
0.0126206
0.0117268
0.0119081
-0.0639922
0.102776
0.297494
0.467426
0.603187
0.710073
0.798445
0.873678
0.907954
0.884682
0.238414
0.359024
0.488786
0.600918
0.695408
0.773579
0.836871
0.881813
0.904311
0.91642
0.457055
0.539792
0.628488
0.706807
0.774156
0.830505
0.875326
0.908085
0.931783
0.949788
0.617717
0.67694
0.738514
0.795555
0.845168
0.887308
0.921931
0.949564
0.97234
0.990655
0.743064
0.786144
0.832077
0.875849
0.914525
0.948316
0.977247
1.00134
1.02171
1.03956
0.847328
0.880187
0.918282
0.953808
0.986425
1.01567
1.04123
1.06272
1.08057
1.09792
0.939844
0.968528
1.00249
1.03462
1.06456
1.09173
1.11548
1.1352
1.15071
1.16778
1.02842
1.05761
1.09162
1.12366
1.15326
1.17985
1.20271
1.2212
1.23457
1.2516
1.12372
1.15693
1.19357
1.22714
1.25719
1.28337
1.30533
1.32261
1.33447
1.35187
1.23871
1.27654
1.31518
1.34943
1.37877
1.40352
1.42389
1.43978
1.45125
1.46932
1.38365
1.42219
1.45833
1.48902
1.5147
1.53679
1.55585
1.57138
1.5838
1.6018
1.55873
1.59035
1.61653
1.63897
1.65895
1.67767
1.69539
1.71187
1.72721
1.74528
1.74734
1.76454
1.77958
1.79581
1.81171
1.82625
1.83945
1.85338
1.87092
1.89107
1.92906
1.93859
1.95014
1.96095
1.97023
1.97981
1.9906
2.00196
2.01332
2.02868
2.13629
2.13996
2.12501
2.1102
2.10392
2.1096
2.12808
2.15839
2.19056
2.21722
2.44261
2.30775
2.23111
2.18873
2.1713
2.17527
2.20267
2.25908
2.3617
2.58607
0.746681
0.744553
0.740069
0.731445
0.719221
0.707092
0.696864
0.68897
0.683355
0.680105
0.679754
0.682497
0.687603
0.694827
0.704216
0.715755
0.728406
0.739441
0.745553
0.748607
0.671134
0.676981
0.683314
0.687806
0.690276
0.689952
0.687215
0.683406
0.679899
0.677643
0.6775
0.679702
0.683367
0.687657
0.691464
0.693347
0.692411
0.688929
0.683766
0.677145
0.662707
0.665003
0.668407
0.671402
0.673477
0.674973
0.675729
0.675414
0.674391
0.673512
0.673691
0.675122
0.676939
0.678245
0.678425
0.677534
0.675985
0.673648
0.670384
0.667464
0.657194
0.65828
0.660112
0.66249
0.664513
0.66594
0.666961
0.667714
0.668118
0.668345
0.66884
0.66965
0.670249
0.670315
0.669902
0.669053
0.667582
0.665497
0.663411
0.662028
0.651987
0.65265
0.653758
0.655461
0.657242
0.658873
0.660168
0.661185
0.66207
0.662865
0.663598
0.664152
0.664346
0.664178
0.66361
0.662554
0.661124
0.65958
0.658261
0.657481
0.647007
0.647468
0.648253
0.64955
0.651036
0.652551
0.654015
0.655313
0.656451
0.657511
0.658431
0.659
0.659145
0.658869
0.658169
0.657177
0.65605
0.654916
0.654
0.653483
0.642174
0.642518
0.643128
0.644195
0.645487
0.646859
0.648296
0.649741
0.651115
0.652399
0.653513
0.654205
0.65438
0.654102
0.653499
0.652719
0.651866
0.650997
0.650324
0.649946
0.637433
0.6377
0.638193
0.639099
0.640266
0.641559
0.642951
0.644438
0.645979
0.647501
0.648852
0.64972
0.650018
0.649893
0.649496
0.648932
0.648279
0.647638
0.647146
0.646857
0.632702
0.632915
0.633324
0.63412
0.635206
0.636451
0.637832
0.639364
0.641034
0.64279
0.644424
0.645549
0.646082
0.646194
0.646023
0.645676
0.645228
0.644777
0.644423
0.644197
0.627896
0.628067
0.628418
0.62914
0.630179
0.631401
0.632808
0.634422
0.636246
0.638253
0.640224
0.641699
0.642548
0.642941
0.643018
0.642896
0.642658
0.642377
0.642139
0.641959
0.622926
0.623064
0.623373
0.62405
0.625072
0.626316
0.627789
0.629526
0.631557
0.633869
0.636252
0.638164
0.639393
0.640113
0.640469
0.640586
0.640556
0.640439
0.640298
0.640153
0.617703
0.617815
0.618096
0.618753
0.619792
0.621105
0.622686
0.6246
0.626904
0.629604
0.632496
0.634932
0.63661
0.637706
0.63838
0.638758
0.638935
0.638985
0.63893
0.638812
0.612134
0.612223
0.612488
0.61315
0.614242
0.615664
0.617409
0.619569
0.622223
0.625415
0.628933
0.631999
0.634206
0.635738
0.636766
0.637447
0.637862
0.638066
0.638085
0.637989
0.606112
0.60618
0.606438
0.607128
0.608311
0.609891
0.611862
0.614346
0.617449
0.621257
0.625539
0.629362
0.632198
0.634241
0.635677
0.636696
0.637369
0.63774
0.63783
0.637751
0.59951
0.599558
0.599818
0.600557
0.601872
0.603665
0.605937
0.608835
0.612507
0.617075
0.622289
0.627024
0.630609
0.633256
0.63517
0.636563
0.637537
0.638087
0.638248
0.638183
0.592176
0.592207
0.59247
0.593283
0.594774
0.596845
0.599502
0.602929
0.607314
0.612819
0.619165
0.624996
0.62947
0.632829
0.635309
0.637149
0.638463
0.639207
0.639437
0.639383
0.58392
0.583937
0.584203
0.585114
0.586835
0.589251
0.592403
0.596501
0.601776
0.608437
0.616158
0.6233
0.628829
0.633024
0.636173
0.638553
0.64025
0.641203
0.641504
0.641458
0.574432
0.574419
0.574746
0.575795
0.577804
0.580672
0.584459
0.589403
0.595794
0.603882
0.613269
0.621971
0.628745
0.633924
0.637856
0.640862
0.643001
0.644191
0.644564
0.644523
0.563432
0.563393
0.563765
0.565009
0.567387
0.570843
0.575435
0.581452
0.589242
0.599088
0.610489
0.621043
0.629275
0.635611
0.640464
0.644192
0.646843
0.648284
0.648727
0.648688
0.550442
0.550377
0.550827
0.552322
0.555185
0.559407
0.565044
0.57244
0.581996
0.594012
0.607833
0.620569
0.630497
0.638167
0.644094
0.648654
0.651878
0.653584
0.654094
0.654051
0.534821
0.534726
0.5353
0.537145
0.540658
0.545901
0.552925
0.562123
0.573934
0.588637
0.605352
0.620626
0.632494
0.641679
0.648839
0.654338
0.658192
0.660166
0.66073
0.660678
0.515631
0.51551
0.516284
0.518644
0.523073
0.52974
0.538659
0.550263
0.56498
0.583
0.603138
0.621315
0.635366
0.646253
0.654761
0.661313
0.665829
0.668054
0.668651
0.668583
0.491483
0.491344
0.492449
0.495603
0.501412
0.510158
0.521762
0.536635
0.555103
0.577183
0.601312
0.622747
0.639198
0.651942
0.661905
0.669602
0.674765
0.677191
0.677791
0.677697
0.460069
0.459951
0.461664
0.466196
0.474298
0.486276
0.501819
0.521181
0.544449
0.571408
0.600088
0.625087
0.644092
0.658802
0.670313
0.679168
0.684883
0.687415
0.687972
0.687846
0.417261
0.417303
0.420352
0.427752
0.440098
0.457353
0.478723
0.504132
0.533387
0.566053
0.59976
0.628521
0.650149
0.666865
0.679932
0.689868
0.695945
0.698428
0.69889
0.69873
0.355343
0.356531
0.363986
0.377782
0.397879
0.423524
0.453097
0.486205
0.522538
0.561556
0.600583
0.633184
0.657425
0.67608
0.690587
0.701372
0.707556
0.709752
0.710046
0.709861
0.28186
0.283595
0.297864
0.321557
0.352523
0.388073
0.426601
0.467928
0.511865
0.55792
0.60314
0.64051
0.668161
0.689315
0.705627
0.717349
0.723546
0.725552
0.725811
0.72572
0.205995
0.212127
0.233206
0.267084
0.308414
0.353582
0.401038
0.450648
0.502287
0.555498
0.607101
0.649417
0.680597
0.704418
0.722725
0.735209
0.741035
0.742613
0.742802
0.742772
0.143933
0.152357
0.177993
0.218859
0.268299
0.321678
0.377179
0.434531
0.493517
0.553625
0.611361
0.658348
0.692803
0.718966
0.738713
0.751689
0.757482
0.758892
0.759143
0.759175
0.0934412
0.10246
0.131635
0.177721
0.233294
0.293291
0.355606
0.419812
0.485518
0.552086
0.615625
0.667036
0.704532
0.732864
0.754106
0.767677
0.773483
0.775236
0.775574
0.775651
0.05115
0.060453
0.0920765
0.142156
0.202763
0.268257
0.33635
0.406542
0.478282
0.550802
0.619793
0.675398
0.715807
0.746241
0.768887
0.783348
0.78966
0.791713
0.792082
0.792168
0.0147071
0.0241265
0.0575954
0.110875
0.175639
0.245819
0.318945
0.39444
0.471651
0.549676
0.623794
0.683385
0.726578
0.759037
0.783097
0.798479
0.80541
0.80763
0.80805
0.808119
-0.0175518
-0.00808913
0.0267981
0.0827803
0.15103
0.225248
0.302831
0.383102
0.465325
0.548471
0.627432
0.690809
0.736649
0.770991
0.79638
0.812633
0.820153
0.82257
0.823024
0.823089
-0.0469008
-0.03739
-0.00133709
0.0569876
0.128221
0.205976
0.287518
0.372119
0.458964
0.546929
0.63051
0.697515
0.745856
0.781927
0.808502
0.825469
0.833562
0.836164
0.836635
0.836683
-0.0742042
-0.0646379
-0.0275437
0.0327672
0.106674
0.18756
0.272641
0.361181
0.452318
0.544845
0.632884
0.703413
0.754143
0.791853
0.819453
0.837005
0.84548
0.848222
0.848716
0.848742
-0.100018
-0.0903872
-0.052323
0.00967705
0.0859985
0.169669
0.25794
0.350075
0.445198
0.542062
0.634447
0.708465
0.761544
0.800793
0.829319
0.847333
0.855959
0.858809
0.85931
0.859304
-0.124845
-0.115046
-0.0761311
-0.0125244
0.0659245
0.15208
0.24323
0.338646
0.437478
0.538472
0.63513
0.712663
0.768117
0.808865
0.8382
0.856512
0.86522
0.868075
0.868578
0.868549
-0.148914
-0.138888
-0.0992218
-0.0340643
0.046269
0.134646
0.228392
0.326802
0.429072
0.534005
0.634876
0.715998
0.773928
0.816206
0.846278
0.864796
0.873485
0.876294
0.876757
0.876697
-0.172333
-0.162095
-0.121621
-0.0550925
0.0269272
0.117298
0.21337
0.314497
0.41994
0.528597
0.633629
0.718475
0.779051
0.822968
0.853774
0.87239
0.880947
0.883646
0.884051
0.883973
-0.19526
-0.184718
-0.143484
-0.0756761
0.00785468
0.100001
0.198149
0.301724
0.410071
0.522229
0.631343
0.720074
0.783545
0.829288
0.860837
0.879414
0.887738
0.890246
0.890559
0.890445
-0.217658
-0.206835
-0.164862
-0.0958509
-0.0109561
0.0827641
0.182758
0.288514
0.399487
0.514892
0.627976
0.720742
0.787435
0.835292
0.867643
0.886013
0.89389
0.896109
0.896305
0.896168
-0.239584
-0.228451
-0.185688
-0.115604
-0.0294865
0.0656203
0.167238
0.274926
0.38824
0.506607
0.623491
0.720411
0.790695
0.841081
0.87441
0.892414
0.899555
0.901302
0.901351
0.901191
-0.260864
-0.24949
-0.205957
-0.134894
-0.0476898
0.0486393
0.151654
0.26103
0.376402
0.497428
0.617868
0.718993
0.793243
0.846688
0.881393
0.899009
0.90503
0.905955
0.905754
0.905585
-0.281638
-0.269915
-0.225658
-0.153701
-0.0655351
0.0318592
0.136096
0.246904
0.364058
0.487435
0.611113
0.716383
0.794928
0.852024
0.888778
0.906377
0.910979
0.910414
0.909589
0.909409
-0.301741
-0.2897
-0.24476
-0.17198
-0.0829438
0.0153645
0.120645
0.23267
0.351318
0.476691
0.603265
0.712476
0.795547
0.856839
0.89649
0.91513
0.918715
0.915899
0.913373
0.912392
-0.321234
-0.308887
-0.263207
-0.18968
-0.099879
-0.000775801
0.105384
0.218406
0.338292
0.465333
0.59439
0.707173
0.794863
0.860721
0.903996
0.92531
0.92978
0.925565
0.919042
0.910547
-0.340033
-0.327433
-0.281094
-0.206954
-0.116548
-0.0168331
0.0899844
0.203719
0.324538
0.452865
0.583962
0.699921
0.792378
0.863289
0.910603
0.936153
0.944434
0.940587
0.930332
0.924836
-0.35809
-0.345262
-0.298406
-0.223773
-0.132956
-0.0328021
0.0744581
0.188589
0.310011
0.439168
0.571781
0.690332
0.787303
0.863741
0.914298
0.943279
0.953951
0.95423
0.916468
0.864592
-0.375111
-0.361593
-0.315001
-0.240064
-0.149202
-0.048836
0.0587531
0.17313
0.294763
0.424296
0.557769
0.678156
0.778524
0.861468
0.912845
0.937423
0.947989
0.929642
0.87306
0.810865