/*--------------------------------*- C++ -*----------------------------------*\
  =========                 |
  \\      /  F ield         | OpenFOAM: The Open Source CFD Toolbox
   \\    /   O peration     | Website:  https://openfoam.org
    \\  /    A nd           | Version:  10
     \\/     M anipulation  |
\*---------------------------------------------------------------------------*/
FoamFile
{
    format      ascii;
    class       volScalarField;
    location    "34";
    object      p;
}
// * * * * * * * * * * * * * * * * * * * * * * * * * * * * * * * * * * * * * //

dimensions      [0 2 -2 0 0 0 0];

internalField   nonuniform List<scalar> 
8800
(
1.12157
1.07378
1.03509
1.00608
0.985209
0.97036
0.959737
0.952222
0.947357
0.945237
0.946421
0.950544
0.957133
0.966405
0.979153
0.996866
1.02163
1.05556
1.0981
1.1568
0.952832
0.96051
0.967973
0.971277
0.969765
0.964675
0.95817
0.952067
0.947302
0.944397
0.94404
0.946463
0.950884
0.956777
0.963508
0.969758
0.973379
0.972631
0.967197
0.9585
0.931255
0.937414
0.941536
0.944471
0.946507
0.947094
0.945961
0.94382
0.941751
0.940766
0.941639
0.94394
0.946674
0.948803
0.94937
0.948141
0.945776
0.942366
0.937799
0.934036
0.925486
0.928134
0.93088
0.933273
0.934895
0.936035
0.936747
0.936822
0.936467
0.936332
0.936985
0.938064
0.938826
0.938829
0.938171
0.937041
0.935195
0.932601
0.930186
0.928681
0.920161
0.921584
0.923358
0.92538
0.92715
0.928469
0.929425
0.930173
0.930718
0.931185
0.93172
0.932107
0.932114
0.931751
0.930992
0.929692
0.927955
0.926076
0.924752
0.923921
0.915156
0.916075
0.917313
0.918871
0.920489
0.921991
0.923242
0.924255
0.925139
0.925918
0.926468
0.926662
0.926505
0.925968
0.925006
0.923737
0.922355
0.921053
0.920211
0.919662
0.910343
0.911012
0.911972
0.913269
0.914666
0.916102
0.917506
0.918771
0.919879
0.920851
0.921504
0.921705
0.921472
0.920835
0.919921
0.918883
0.917794
0.916815
0.916208
0.915806
0.90568
0.906194
0.906979
0.908108
0.909377
0.910731
0.912143
0.913555
0.914883
0.916059
0.916861
0.917121
0.916901
0.916346
0.9156
0.914753
0.913879
0.913123
0.912664
0.912352
0.901102
0.901509
0.902168
0.903179
0.90438
0.905689
0.907094
0.90858
0.910083
0.911491
0.912485
0.912878
0.912799
0.912417
0.911851
0.911177
0.910474
0.909892
0.90954
0.909291
0.89654
0.896869
0.897441
0.898379
0.899537
0.900831
0.902261
0.903823
0.905483
0.907136
0.908384
0.909008
0.90915
0.90897
0.908584
0.908086
0.907535
0.907088
0.906818
0.906614
0.891917
0.892186
0.892698
0.893596
0.89474
0.896058
0.897554
0.899231
0.90107
0.902992
0.904575
0.905519
0.90593
0.90597
0.90577
0.905437
0.905032
0.904702
0.904497
0.904327
0.887171
0.887391
0.887864
0.888756
0.889931
0.891319
0.892928
0.894788
0.896897
0.899178
0.901166
0.902464
0.903164
0.903442
0.90344
0.903262
0.90299
0.902758
0.902608
0.902464
0.882238
0.882418
0.88287
0.883779
0.885022
0.886515
0.888276
0.890364
0.8928
0.895528
0.898018
0.899759
0.900814
0.901378
0.901605
0.901602
0.901461
0.901318
0.901213
0.901091
0.877045
0.877188
0.877633
0.878584
0.879925
0.881564
0.883529
0.88591
0.888764
0.892063
0.895162
0.897428
0.898914
0.899818
0.900312
0.900512
0.90051
0.900456
0.900395
0.900289
0.87152
0.871632
0.872079
0.873089
0.874563
0.876395
0.878639
0.881401
0.884756
0.888726
0.892599
0.895558
0.897572
0.898866
0.899641
0.900069
0.900227
0.900273
0.900257
0.900167
0.865577
0.865644
0.866104
0.867197
0.868847
0.870929
0.873522
0.876782
0.880836
0.885708
0.890498
0.894207
0.896835
0.898619
0.899766
0.900435
0.90079
0.900941
0.900967
0.900887
0.859028
0.859096
0.859571
0.860738
0.862563
0.864926
0.867938
0.871778
0.876615
0.882525
0.888482
0.893217
0.896638
0.899032
0.900676
0.901716
0.902319
0.902601
0.902673
0.902601
0.85165
0.851691
0.852205
0.853479
0.855564
0.858328
0.861912
0.866556
0.87247
0.879741
0.887084
0.892958
0.897262
0.900359
0.902579
0.904066
0.904976
0.905418
0.905534
0.90546
0.843126
0.843154
0.843728
0.845152
0.84754
0.850791
0.855076
0.860688
0.867895
0.876812
0.885882
0.893205
0.89865
0.902625
0.905533
0.907544
0.908841
0.909466
0.90962
0.909536
0.832913
0.83294
0.833604
0.835269
0.83809
0.842014
0.84725
0.854165
0.863058
0.874038
0.885183
0.894181
0.900912
0.905897
0.909608
0.912227
0.913939
0.91475
0.914942
0.914841
0.82035
0.820379
0.821195
0.823239
0.826714
0.831594
0.83813
0.846756
0.857801
0.871335
0.884965
0.895948
0.90418
0.910319
0.914918
0.918225
0.920367
0.921364
0.921589
0.921465
0.804659
0.804696
0.805744
0.808366
0.812801
0.819033
0.82735
0.838247
0.852034
0.868697
0.885295
0.898581
0.908541
0.915992
0.921609
0.925647
0.928243
0.929428
0.929686
0.929541
0.784742
0.784796
0.78621
0.789728
0.795607
0.803794
0.814607
0.828546
0.845837
0.866312
0.886362
0.902269
0.914176
0.923102
0.929842
0.934711
0.937798
0.939168
0.939451
0.939279
0.758882
0.75898
0.761025
0.765991
0.774134
0.785193
0.799547
0.817548
0.839247
0.864276
0.888291
0.907132
0.921189
0.931766
0.939755
0.945577
0.949185
0.950723
0.951017
0.950813
0.724055
0.724293
0.727621
0.735235
0.747153
0.762666
0.782048
0.80541
0.832549
0.862886
0.891324
0.913343
0.92972
0.942074
0.951491
0.95833
0.962447
0.96412
0.964399
0.964156
0.674445
0.675564
0.682226
0.695286
0.713746
0.736115
0.762442
0.792597
0.826176
0.862452
0.895636
0.920999
0.9398
0.954047
0.964981
0.972867
0.977466
0.979233
0.97946
0.979167
0.601131
0.608669
0.624028
0.647201
0.675374
0.706901
0.741753
0.779762
0.820527
0.863331
0.901732
0.930848
0.952464
0.968974
0.981726
0.990861
0.99613
0.998154
0.998435
0.9982
0.522594
0.539934
0.564697
0.598422
0.636699
0.677571
0.721069
0.767171
0.815591
0.865737
0.910481
0.944503
0.969948
0.989511
1.00468
1.01567
1.02189
1.02417
1.02457
1.02452
0.457794
0.477978
0.51058
0.553015
0.600084
0.649705
0.701529
0.755525
0.811407
0.868627
0.919382
0.957929
0.986783
1.00893
1.02592
1.03797
1.04498
1.04795
1.04835
1.04837
0.405027
0.426967
0.464781
0.513393
0.567332
0.624201
0.683338
0.744553
0.807423
0.871344
0.927682
0.970272
1.00197
1.02608
1.04444
1.05768
1.06584
1.06875
1.06927
1.06936
0.361419
0.38441
0.425753
0.479138
0.538541
0.601341
0.666725
0.734325
0.803547
0.873629
0.935078
0.981213
1.01531
1.04109
1.06071
1.07485
1.08357
1.0869
1.08761
1.08773
0.324347
0.347967
0.391972
0.449052
0.512891
0.580695
0.65149
0.724743
0.79971
0.875428
0.941505
0.990778
1.02691
1.05403
1.07455
1.0893
1.09844
1.10221
1.10311
1.10325
0.291768
0.315819
0.361876
0.421976
0.489534
0.561641
0.637199
0.715535
0.795745
0.876655
0.946986
0.999072
1.03695
1.06514
1.08631
1.10152
1.11091
1.11502
1.11605
1.11618
0.262164
0.286624
0.334351
0.397007
0.467764
0.543619
0.623428
0.706379
0.791431
0.877207
0.951547
1.00626
1.04571
1.07483
1.09648
1.11201
1.12161
1.12588
1.12694
1.12702
0.234598
0.259436
0.308674
0.373509
0.447056
0.526222
0.60984
0.697008
0.786579
0.876986
0.955206
1.01247
1.05344
1.08341
1.10552
1.12122
1.13089
1.13524
1.13636
1.13642
0.208317
0.233587
0.284221
0.351005
0.427038
0.509151
0.596203
0.687242
0.781047
0.875907
0.957973
1.01783
1.06038
1.09123
1.11379
1.1297
1.13938
1.14371
1.14489
1.14498
0.183039
0.208744
0.260471
0.329174
0.407438
0.492204
0.582364
0.676958
0.774736
0.873911
0.959853
1.02244
1.06668
1.09853
1.12162
1.13774
1.14746
1.15173
1.15285
1.15289
0.158391
0.184691
0.237435
0.307822
0.388089
0.475246
0.568224
0.666081
0.767582
0.870943
0.960834
1.02634
1.07249
1.10549
1.12921
1.14561
1.15538
1.15958
1.16056
1.16053
0.134288
0.161062
0.214954
0.286835
0.368907
0.458212
0.553736
0.654577
0.759553
0.866967
0.960891
1.02955
1.07786
1.11219
1.13667
1.15339
1.16317
1.16724
1.1681
1.16798
0.110652
0.137996
0.192889
0.266153
0.349865
0.441094
0.5389
0.642445
0.750641
0.861947
0.959954
1.03202
1.08278
1.1187
1.14404
1.16109
1.1708
1.17466
1.17536
1.17518
0.0874061
0.115371
0.171219
0.245771
0.330955
0.423906
0.523748
0.629723
0.740862
0.855847
0.957934
1.03365
1.08725
1.12503
1.15138
1.16874
1.17829
1.18183
1.18235
1.18212
0.0645658
0.0932105
0.149994
0.225719
0.312224
0.406692
0.508338
0.616464
0.730252
0.848648
0.954756
1.03435
1.09116
1.13123
1.15878
1.17637
1.18554
1.18864
1.18897
1.18869
0.0423043
0.0715858
0.129258
0.20604
0.293722
0.38953
0.49274
0.602751
0.71888
0.840385
0.950358
1.03396
1.09438
1.13727
1.16642
1.18417
1.1926
1.19501
1.1951
1.19479
0.0206581
0.0505422
0.109045
0.186794
0.275515
0.372485
0.477051
0.588673
0.706835
0.8311
0.94469
1.03233
1.0967
1.14304
1.17447
1.19257
1.19975
1.20092
1.20064
1.20037
-0.000430412
0.0301271
0.0893985
0.168026
0.257672
0.355644
0.461363
0.57434
0.694222
0.820869
0.937719
1.02931
1.09784
1.14825
1.18301
1.20232
1.20799
1.20686
1.20561
1.20557
-0.0207805
0.0103697
0.0703827
0.149805
0.240256
0.339093
0.445774
0.559867
0.681162
0.8098
0.929462
1.02477
1.0975
1.15236
1.19163
1.21404
1.21945
1.21534
1.2114
1.2105
-0.0404804
-0.00871778
0.0519822
0.132108
0.223236
0.322785
0.430227
0.545192
0.667585
0.797822
0.91979
1.01845
1.09534
1.15463
1.19923
1.22725
1.23604
1.23206
1.22176
1.20518
-0.0594528
-0.0271241
0.0340765
0.114742
0.206318
0.306379
0.414296
0.52982
0.652937
0.784272
0.90802
1.0095
1.09069
1.15396
1.20327
1.23818
1.25135
1.24142
1.22358
1.20718
-0.0775193
-0.0449779
0.016855
0.0979472
0.189805
0.290229
0.398211
0.514084
0.637541
0.769442
0.894304
0.997566
1.08302
1.14931
1.19867
1.23347
1.25004
1.2309
1.16094
1.1283
-0.0940211
-0.063459
0.000647795
0.0823168
0.174419
0.27483
0.382271
0.498215
0.621619
0.753472
0.878631
0.982461
1.07121
1.14059
1.18133
1.20812
1.20866
1.15839
1.08754
1.04345
-0.150398
-0.0797173
-0.0142624
0.0667401
0.158694
0.258769
0.366414
0.481936
0.604817
0.735939
0.860464
0.963795
1.05187
1.12846
1.13328
1.14663
1.10974
1.0446
0.96801
0.92494
-0.11188
-0.0957987
-0.0360455
0.0446803
0.135819
0.235636
0.34229
0.457004
0.578662
0.707968
0.829875
0.93076
1.01028
1.08764
1.0835
0.978614
0.876078
0.804719
0.73153
0.765766
-0.143388
-0.113945
-0.0532873
0.0268348
0.118035
0.217524
0.324359
0.438367
0.558853
0.686184
0.805
0.901782
0.973742
1.01446
0.970272
0.82711
0.700216
0.609505
0.509714
0.563463
-0.167732
-0.135332
-0.073421
0.00699534
0.0982842
0.197632
0.304322
0.417426
0.536423
0.661242
0.776226
0.867412
0.929806
0.939173
0.836844
0.663807
0.509507
0.389138
0.256443
0.291598
-0.19157
-0.157614
-0.0944911
-0.0132165
0.078261
0.17748
0.283634
0.39572
0.513059
0.635052
0.745432
0.830378
0.877795
0.855585
0.700064
0.501506
0.307409
0.132358
-0.063423
-0.0757296
-0.214748
-0.180396
-0.116376
-0.0343482
0.0573559
0.156396
0.261907
0.372876
0.488328
0.607166
0.712403
0.790238
0.820603
0.76361
0.57011
0.355798
0.132413
-0.0656876
-0.318898
-0.637386
-0.238222
-0.203885
-0.139346
-0.056805
0.0351395
0.134059
0.239005
0.348843
0.462333
0.577817
0.67775
0.747389
0.760223
0.6526
0.457442
0.243486
0.0330158
-0.145836
-0.213431
-0.305497
-0.262889
-0.228542
-0.163735
-0.0809307
0.0111229
0.109837
0.214131
0.322679
0.433915
0.545573
0.639794
0.699506
0.687408
0.54525
0.358064
0.163845
-0.00267727
-0.0972054
-0.121096
-0.138258
-0.289078
-0.254687
-0.189708
-0.106806
-0.0148188
0.0835316
0.186945
0.293914
0.402502
0.509727
0.597755
0.645133
0.613706
0.445441
0.268119
0.100156
-0.0296557
-0.0680054
-0.0825083
-0.0842716
-0.316998
-0.282482
-0.217324
-0.134413
-0.0426235
0.0551518
0.157447
0.262515
0.368035
0.470279
0.55137
0.585416
0.536889
0.352041
0.184194
0.0344955
-0.0473196
-0.0630535
-0.0644944
-0.0644866
-0.346687
-0.31193
-0.246598
-0.163733
-0.0722871
0.0247289
0.125654
0.228491
0.330533
0.427329
0.500535
0.523724
0.440754
0.265835
0.10605
-0.0174393
-0.0521276
-0.0547883
-0.0550809
-0.0545442
-0.377845
-0.342888
-0.277402
-0.194657
-0.103698
-0.00765491
0.091628
0.191898
0.290039
0.380971
0.445875
0.453345
0.346549
0.185076
0.0423316
-0.0380103
-0.0471477
-0.0488478
-0.0494813
-0.0491992
-0.409898
-0.374859
-0.309468
-0.226947
-0.136643
-0.0418073
0.0555589
0.152911
0.24676
0.331434
0.388365
0.379021
0.261342
0.11243
-0.00992558
-0.0316695
-0.0446229
-0.046419
-0.0452629
-0.0447115
-0.442395
-0.407357
-0.342291
-0.260188
-0.170744
-0.0773663
0.0177732
0.111862
0.20104
0.279318
0.32777
0.30695
0.18111
0.045519
-0.0491444
-0.0794377
-0.0572372
-0.0442279
-0.0407505
-0.0397741
-0.474489
-0.439691
-0.375067
-0.293733
-0.205427
-0.113804
-0.0212137
0.0692899
0.153424
0.225315
0.264394
0.238273
0.109268
-0.0110358
-0.0857182
-0.0658164
-0.0570589
-0.0499227
-0.0438811
-0.0409787
-0.504614
-0.470696
-0.406906
-0.326681
-0.239876
-0.15035
-0.0606546
0.0259657
0.10475
0.169973
0.203522
0.164569
0.0470911
-0.0553313
-0.126478
-0.108495
-0.0818232
-0.0629587
-0.0559684
-0.0531194
-0.531368
-0.498415
-0.436684
-0.357884
-0.273022
-0.185967
-0.0995483
-0.0171113
0.0562653
0.114091
0.147835
0.086288
-0.0098689
-0.0449192
-0.0543607
-0.0924812
-0.105098
-0.107934
-0.107985
-0.106243
-0.552757
-0.521644
-0.462302
-0.38591
-0.303546
-0.219418
-0.136592
-0.058653
0.00934121
0.0590735
0.0926657
0.0095236
-0.0874329
-0.0425925
-0.0352763
-0.150814
-0.238014
-0.271466
-0.268711
-0.261695
-0.566801
-0.538324
-0.482209
-0.408961
-0.329814
-0.249193
-0.170286
-0.0969835
-0.0345798
0.00745775
0.0347691
-0.0773772
-0.253979
-0.410839
-0.418074
-0.435179
-0.480892
-0.486878
-0.470854
-0.465344
-0.57106
-0.54646
-0.494586
-0.42532
-0.350096
-0.27355
-0.198822
-0.13007
-0.0734768
-0.0382445
-0.0251212
-0.183932
-0.412061
-0.678432
-0.647342
-0.557668
-0.555533
-0.539424
-0.536412
-0.537012
-0.563923
-0.543815
-0.497441
-0.433424
-0.362832
-0.290757
-0.220229
-0.155615
-0.104017
-0.0757256
-0.084525
-0.240307
-0.338408
-0.220048
-0.067098
-0.29167
-0.514444
-0.553459
-0.559997
-0.55974
-0.543484
-0.527749
-0.489249
-0.432095
-0.36694
-0.299443
-0.232738
-0.171045
-0.121989
-0.0986439
-0.119289
-0.257033
-0.462404
-0.64278
-0.881421
-1.27006
-1.22091
-0.940446
-0.761877
-0.753258
-0.511205
-0.50058
-0.470336
-0.421465
-0.362163
-0.29902
-0.23511
-0.174407
-0.123907
-0.0975834
-0.123411
-0.311903
-0.804211
-1.57639
-2.14612
-2.44471
-2.35242
-2.01413
-1.67468
-1.49055
-0.471829
-0.46565
-0.444358
-0.403571
-0.349946
-0.290166
-0.227222
-0.164761
-0.108168
-0.0690693
-0.0755701
-0.208011
-0.515165
-0.874168
-1.21085
-1.33596
-1.20042
-0.953765
-0.73448
-0.601275
-0.432112
-0.428672
-0.416116
-0.382885
-0.333341
-0.275134
-0.211085
-0.142891
-0.0749458
-0.0069069
0.0447347
0.113733
0.222811
0.46304
0.768678
1.09624
1.38109
1.57749
1.69274
1.73937
-0.398361
-0.396328
-0.389732
-0.363842
-0.317246
-0.25766
-0.190093
-0.114334
-0.0296967
0.0639819
0.183596
0.33593
0.687166
1.22843
1.82593
2.37197
2.78786
3.03637
3.14442
3.17437
-0.367291
-0.366734
-0.364818
-0.347154
-0.30356
-0.241941
-0.169686
-0.0878008
0.00601706
0.115145
0.238662
0.373871
0.632694
1.15777
1.71746
2.22357
2.59575
2.8139
2.91524
2.94496
-0.340285
-0.339865
-0.339547
-0.329294
-0.290739
-0.227961
-0.152058
-0.0665719
0.0278844
0.136525
0.251225
0.376938
0.541492
0.941026
1.41063
1.80761
2.11097
2.29008
2.37164
2.39438
-0.318173
-0.316783
-0.31642
-0.311534
-0.277481
-0.213323
-0.134817
-0.0488873
0.0433734
0.147975
0.255601
0.365813
0.48201
0.729147
1.07681
1.37243
1.59541
1.72415
1.78095
1.79465
-0.307048
-0.307046
-0.309294
-0.304646
-0.265701
-0.19472
-0.113232
-0.0289535
0.0587666
0.154355
0.246861
0.332312
0.415359
0.573538
0.806211
1.00826
1.15924
1.24776
1.28776
1.29553
-0.285329
-0.289761
-0.294458
-0.285738
-0.240482
-0.163286
-0.0827364
-0.00410149
0.0744465
0.156646
0.233421
0.29827
0.362148
0.456427
0.610797
0.744255
0.840553
0.896036
0.918617
0.922205
-0.203576
-0.20971
-0.215374
-0.20579
-0.164974
-0.102223
-0.0358737
0.0290764
0.0936848
0.160402
0.220683
0.266575
0.308437
0.368321
0.46823
0.555096
0.615526
0.648762
0.662662
0.663805
-0.0604246
-0.0643273
-0.0682355
-0.064056
-0.0433009
-0.0103842
0.0286715
0.0713202
0.117223
0.166763
0.209791
0.239158
0.263458
0.301451
0.365157
0.42269
0.461258
0.482093
0.490216
0.4899
0.0842817
0.0825901
0.0792599
0.0753531
0.0755629
0.0813326
0.0947027
0.1152
0.142788
0.17558
0.204886
0.222511
0.234098
0.25783
0.300067
0.337628
0.362436
0.375011
0.379365
0.378575
0.182433
0.181756
0.178496
0.170319
0.158688
0.149928
0.147763
0.153444
0.167207
0.187499
0.20628
0.216047
0.219165
0.238581
0.269563
0.293091
0.306731
0.312686
0.314276
0.313313
0.230849
0.23036
0.22733
0.218973
0.205872
0.193115
0.184553
0.182382
0.187632
0.199711
0.213111
0.220587
0.223159
0.23813
0.26039
0.274797
0.282036
0.284556
0.28479
0.283773
0.247973
0.24753
0.245159
0.23872
0.228108
0.216587
0.20723
0.202335
0.2034
0.211207
0.223104
0.233611
0.242156
0.255041
0.267341
0.274136
0.277308
0.27867
0.278965
0.278052
0.249894
0.249488
0.247776
0.243437
0.236102
0.227501
0.219684
0.214695
0.214193
0.220218
0.233007
0.249096
0.265089
0.276854
0.282335
0.284354
0.286192
0.287126
0.287446
0.286349
0.246139
0.245781
0.244568
0.241784
0.237062
0.231126
0.225259
0.221033
0.220088
0.225207
0.239179
0.261286
0.284808
0.294931
0.293521
0.293961
0.296339
0.29993
0.30095
0.299431
0.241204
0.240894
0.239993
0.238099
0.23507
0.231019
0.226645
0.222976
0.221429
0.224703
0.237441
0.261167
0.288085
0.295396
0.29129
0.293687
0.298498
0.304074
0.306137
0.30445
0.236761
0.236497
0.235782
0.234278
0.23199
0.229106
0.22555
0.221877
0.21887
0.218217
0.224154
0.240665
0.261332
0.263496
0.259722
0.265965
0.278252
0.288306
0.291029
0.288913
0.233093
0.232886
0.232343
0.231096
0.229155
0.226516
0.223383
0.219326
0.214195
0.207508
0.200579
0.197629
0.198599
0.194063
0.199953
0.216566
0.233044
0.243866
0.245555
0.243296
0.229802
0.229669
0.229324
0.228385
0.2267
0.224437
0.221148
0.216918
0.209757
0.196753
0.173265
0.141703
0.108709
0.105066
0.124964
0.14854
0.164944
0.172669
0.174117
0.17329
0.226141
0.226081
0.225955
0.225495
0.224111
0.222536
0.220093
0.216221
0.208875
0.192301
0.155979
0.0931404
0.0352738
0.0341041
0.0653324
0.0905774
0.101
0.104444
0.105562
0.105407
0.221314
0.221366
0.221576
0.221749
0.221621
0.220751
0.219968
0.218213
0.213017
0.19772
0.160118
0.0908329
0.0277322
0.0324563
0.0529551
0.061322
0.0622996
0.060292
0.0603233
0.0603227
0.214333
0.214482
0.214892
0.215481
0.216483
0.218093
0.220139
0.222358
0.222709
0.21462
0.19101
0.137337
0.0955967
0.0891176
0.0856663
0.0676886
0.0515855
0.0427847
0.0423382
0.0432824
0.203845
0.204186
0.205225
0.207146
0.209831
0.213901
0.219338
0.226797
0.234945
0.240107
0.23801
0.213628
0.191649
0.169273
0.13503
0.098076
0.0703816
0.0576635
0.0554878
0.0559169
0.18684
0.187383
0.189116
0.192399
0.197467
0.204821
0.215091
0.22832
0.244597
0.264205
0.276727
0.281677
0.278217
0.234352
0.182271
0.138368
0.108961
0.0925935
0.0884614
0.0895923
0.160429
0.161188
0.163702
0.16862
0.176381
0.187254
0.201711
0.220546
0.244516
0.272407
0.297066
0.306761
0.303858
0.253373
0.204829
0.176066
0.158552
0.146017
0.140364
0.140885
0.122215
0.123038
0.125963
0.132412
0.142388
0.156115
0.174139
0.196444
0.22199
0.250673
0.274044
0.28102
0.266862
0.225279
0.198918
0.186718
0.183971
0.173893
0.168308
0.167676
0.0717385
0.0726049
0.0759122
0.0819956
0.0908064
0.103046
0.119329
0.138291
0.154549
0.171915
0.197186
0.201097
0.180702
0.144499
0.138271
0.143447
0.147295
0.137327
0.132414
0.131882
0.0172325
0.0166805
0.0160576
0.0152614
0.0159018
0.0178542
0.0196595
0.0191067
0.0121421
0.0163126
0.0386625
0.0646845
0.0679871
0.061663
0.0493836
0.0400151
0.0191871
0.0286298
0.0329011
0.0353818
0.174294
0.351222
0.557955
0.735794
0.878885
0.992794
1.08768
1.16783
1.20364
1.18054
0.496515
0.623556
0.759608
0.877422
0.977142
1.06004
1.12714
1.17463
1.19859
1.2105
0.726637
0.81345
0.906184
0.988408
1.05922
1.11848
1.16553
1.19988
1.22456
1.24236
0.894263
0.955616
1.02064
1.08012
1.1319
1.17584
1.21186
1.24051
1.26389
1.28208
1.02429
1.0693
1.11673
1.16204
1.20211
1.23702
1.26685
1.2916
1.31236
1.33013
1.13127
1.1652
1.20436
1.24094
1.27444
1.3044
1.33054
1.35245
1.37056
1.38788
1.22547
1.2548
1.28953
1.32229
1.35279
1.38043
1.40455
1.42455
1.44023
1.45731
1.31513
1.34474
1.37921
1.41165
1.4416
1.46849
1.49161
1.51028
1.52378
1.54082
1.41114
1.44452
1.48148
1.51533
1.5456
1.57199
1.5941
1.6115
1.62346
1.64087
1.52662
1.56445
1.6033
1.63775
1.66724
1.69211
1.71258
1.72855
1.74008
1.75816
1.67188
1.71054
1.74667
1.77743
1.8032
1.82537
1.84448
1.86006
1.87252
1.89053
1.84693
1.87876
1.90498
1.92744
1.94746
1.96623
1.98398
2.00048
2.01585
2.03393
2.03563
2.05291
2.06802
2.08429
2.10022
2.11477
2.128
2.14194
2.1595
2.17966
2.21753
2.22701
2.23857
2.2494
2.2587
2.2683
2.27911
2.29049
2.30187
2.31723
2.4247
2.42839
2.41346
2.39865
2.3924
2.39809
2.41658
2.4469
2.47909
2.50575
2.73103
2.59617
2.51955
2.47721
2.4598
2.46377
2.49118
2.54759
2.65022
2.87459
1.01217
1.01004
1.00555
0.996919
0.984686
0.972544
0.962296
0.95437
0.948707
0.94539
0.944953
0.947602
0.952633
0.9598
0.969147
0.980657
0.993286
1.00431
1.01041
1.01346
0.936636
0.942481
0.948816
0.9533
0.955759
0.95542
0.952663
0.948822
0.945265
0.942935
0.942698
0.944803
0.948388
0.952616
0.956378
0.958228
0.957267
0.953767
0.948589
0.941963
0.928244
0.93054
0.933939
0.936927
0.938991
0.940471
0.941202
0.940849
0.939771
0.938813
0.938889
0.940214
0.941944
0.94318
0.943306
0.942375
0.940794
0.938434
0.935154
0.932226
0.922777
0.923862
0.925691
0.928061
0.930073
0.931484
0.932478
0.933188
0.93353
0.933669
0.934047
0.934737
0.935233
0.935216
0.934737
0.933836
0.932326
0.930209
0.928099
0.926709
0.91763
0.918293
0.919397
0.921095
0.922865
0.924479
0.925746
0.926716
0.927531
0.928223
0.928821
0.929232
0.929303
0.929034
0.928382
0.927259
0.925777
0.924189
0.922842
0.922054
0.912729
0.913189
0.913972
0.915266
0.916744
0.918245
0.919681
0.920931
0.921991
0.922933
0.923693
0.924088
0.924082
0.923677
0.92287
0.921789
0.920589
0.919396
0.918444
0.91792
0.907997
0.908341
0.908951
0.910017
0.911304
0.912663
0.914074
0.915471
0.916763
0.917911
0.918834
0.919316
0.9193
0.918853
0.918109
0.917213
0.916264
0.915319
0.914602
0.914216
0.903385
0.903651
0.904144
0.905056
0.906224
0.907508
0.908874
0.910311
0.911763
0.913135
0.914259
0.914867
0.914921
0.914582
0.914004
0.913288
0.91251
0.911767
0.91122
0.910925
0.898827
0.899037
0.899447
0.900253
0.901347
0.902586
0.903937
0.905406
0.906966
0.908539
0.909903
0.910714
0.910955
0.910808
0.910416
0.909875
0.909261
0.908681
0.908263
0.908032
0.894244
0.89441
0.894762
0.895499
0.896552
0.89777
0.899145
0.900681
0.902367
0.904153
0.9058
0.906899
0.907399
0.907481
0.907282
0.906917
0.906469
0.906029
0.905715
0.905532
0.889566
0.889697
0.890005
0.890703
0.891749
0.892998
0.894438
0.896091
0.897958
0.9
0.901993
0.903464
0.904275
0.904608
0.904621
0.904425
0.904124
0.903806
0.903578
0.903434
0.884736
0.884837
0.885115
0.885797
0.886869
0.888188
0.889734
0.891557
0.893678
0.896072
0.898504
0.900406
0.901568
0.902187
0.902433
0.902426
0.902272
0.902069
0.901913
0.901801
0.879683
0.879757
0.880016
0.880705
0.881831
0.883254
0.884945
0.88698
0.889416
0.892251
0.895231
0.897661
0.899257
0.900228
0.900751
0.900962
0.90096
0.900871
0.900781
0.900696
0.874336
0.874385
0.874628
0.875336
0.876543
0.878105
0.879997
0.882313
0.885124
0.888481
0.89213
0.895233
0.89738
0.89878
0.899618
0.90007
0.900252
0.900289
0.90027
0.900211
0.868604
0.868621
0.86886
0.869611
0.87094
0.872695
0.874855
0.877551
0.880895
0.884949
0.889432
0.893333
0.896107
0.897981
0.89919
0.899901
0.900307
0.90048
0.900528
0.900492
0.862398
0.862408
0.862629
0.863417
0.864864
0.86683
0.869303
0.872444
0.876406
0.881307
0.886821
0.891703
0.895279
0.897797
0.899478
0.900555
0.901241
0.901579
0.901702
0.901688
0.855453
0.855426
0.855681
0.856532
0.858139
0.86036
0.863247
0.866973
0.871736
0.877686
0.884467
0.890568
0.895085
0.898328
0.900605
0.902175
0.903197
0.903745
0.903958
0.903963
0.847555
0.847508
0.847777
0.848717
0.850523
0.853103
0.85652
0.860996
0.866792
0.874094
0.88244
0.889973
0.895632
0.899766
0.902744
0.904878
0.906303
0.907111
0.90742
0.907435
0.838248
0.838184
0.838501
0.83958
0.841644
0.844672
0.848764
0.854193
0.861271
0.870217
0.880489
0.889809
0.896852
0.902054
0.905877
0.908679
0.910608
0.91171
0.912117
0.912134
0.826921
0.82684
0.827238
0.828539
0.831008
0.834701
0.839744
0.846479
0.855268
0.866336
0.878953
0.890355
0.898972
0.905401
0.91017
0.913703
0.91618
0.917582
0.918085
0.918103
0.812863
0.812762
0.813293
0.81494
0.818019
0.822657
0.829012
0.837483
0.848466
0.862169
0.877642
0.891522
0.902006
0.909837
0.915706
0.920073
0.923127
0.924836
0.925432
0.925449
0.795151
0.795031
0.795773
0.79795
0.801943
0.80797
0.81618
0.827026
0.840891
0.857899
0.876782
0.893535
0.906141
0.91556
0.922657
0.927932
0.931624
0.933653
0.934339
0.934354
0.772419
0.772289
0.77339
0.776402
0.781801
0.789882
0.800755
0.814856
0.832469
0.853557
0.876473
0.896509
0.911491
0.922702
0.931163
0.937472
0.941873
0.944232
0.944998
0.945001
0.742392
0.742296
0.744051
0.748494
0.75621
0.767492
0.782291
0.800869
0.823316
0.84936
0.876931
0.900626
0.918216
0.931369
0.941341
0.948837
0.953989
0.956659
0.957485
0.957466
0.700903
0.700987
0.704166
0.711553
0.723516
0.740055
0.760662
0.785289
0.813776
0.845643
0.878416
0.906061
0.926413
0.941648
0.95326
0.962058
0.967957
0.970873
0.971724
0.971669
0.640225
0.641479
0.649202
0.663079
0.682805
0.707691
0.736442
0.768789
0.804442
0.842825
0.881157
0.912906
0.936113
0.953495
0.966801
0.976819
0.983411
0.986555
0.98734
0.987241
0.567845
0.569841
0.584436
0.608329
0.638931
0.673603
0.711305
0.751952
0.795359
0.841027
0.885954
0.922994
0.950188
0.970724
0.986463
0.998102
1.00578
1.0094
1.01038
1.01037
0.493494
0.500099
0.521499
0.555433
0.596157
0.640379
0.686995
0.735958
0.787183
0.840244
0.89195
0.934489
0.965825
0.989625
1.008
1.02173
1.03055
1.03394
1.03487
1.03505
0.433548
0.442068
0.468198
0.508974
0.557413
0.609632
0.664202
0.720913
0.779567
0.839701
0.897855
0.945476
0.980463
1.00693
1.02716
1.04214
1.05153
1.0559
1.05753
1.05781
0.384946
0.394022
0.423598
0.469281
0.523599
0.5822
0.643425
0.706938
0.772345
0.839056
0.903191
0.955419
0.993543
1.02216
1.04395
1.06014
1.07071
1.07576
1.0777
1.07802
0.344424
0.353713
0.385583
0.434995
0.493976
0.557774
0.624631
0.694068
0.765508
0.83821
0.907825
0.964167
1.00501
1.03546
1.05852
1.07564
1.08705
1.09272
1.09487
1.09521
0.309386
0.318761
0.352346
0.404744
0.46748
0.535638
0.607363
0.682026
0.758907
0.837079
0.911712
0.971767
1.01496
1.04691
1.07092
1.08875
1.10065
1.1068
1.10911
1.10949
0.278147
0.287564
0.322454
0.377336
0.443213
0.5151
0.591096
0.670442
0.752282
0.835509
0.914813
0.978301
1.02361
1.05683
1.08161
1.0999
1.11213
1.11865
1.12105
1.12145
0.249437
0.258915
0.294924
0.351918
0.42048
0.495617
0.575396
0.658972
0.745373
0.83334
0.917087
0.983854
1.03116
1.06555
1.09099
1.1096
1.12207
1.12872
1.13111
1.13153
0.222432
0.231969
0.268998
0.327834
0.398798
0.476801
0.559951
0.647365
0.737988
0.830438
0.918493
0.988503
1.03781
1.07335
1.09941
1.11834
1.13091
1.13766
1.14005
1.14034
0.196596
0.206253
0.244219
0.304639
0.3778
0.458365
0.544548
0.635454
0.72999
0.826704
0.918991
0.992302
1.0437
1.08049
1.10723
1.1265
1.13921
1.14592
1.1483
1.14855
0.171527
0.181389
0.220167
0.28214
0.357241
0.440117
0.529041
0.623128
0.721297
0.822067
0.918546
0.995288
1.04895
1.08715
1.11469
1.13435
1.14722
1.15391
1.1562
1.15645
0.147032
0.157134
0.196708
0.260162
0.336999
0.421945
0.513342
0.610328
0.711852
0.816484
0.917128
0.997466
1.05364
1.09343
1.12192
1.14207
1.15511
1.16176
1.16391
1.16412
0.12306
0.133399
0.173815
0.238578
0.316999
0.403814
0.497428
0.597034
0.701642
0.80992
0.914688
0.998806
1.05776
1.0994
1.12899
1.1497
1.16289
1.16942
1.17141
1.17154
0.0995098
0.110179
0.151336
0.217351
0.297219
0.385712
0.481306
0.583266
0.690683
0.802371
0.911164
0.999214
1.06125
1.10506
1.13596
1.15728
1.17057
1.17691
1.17866
1.17869
0.0764349
0.0874022
0.129339
0.196492
0.277676
0.367665
0.465024
0.569072
0.679012
0.793834
0.9065
0.998589
1.06406
1.11042
1.14288
1.16486
1.17811
1.1841
1.18557
1.18551
0.0538141
0.0651079
0.107852
0.176046
0.258412
0.349726
0.448636
0.554525
0.666694
0.784342
0.900663
0.996837
1.06603
1.11541
1.14984
1.17257
1.18556
1.19095
1.19205
1.1919
0.031847
0.0433927
0.0869075
0.156062
0.239491
0.331976
0.43222
0.539706
0.653814
0.773967
0.893649
0.993847
1.067
1.11989
1.15691
1.18069
1.19316
1.19746
1.19799
1.19775
0.0104041
0.0223074
0.0665467
0.136579
0.220954
0.314464
0.415873
0.524705
0.640472
0.762804
0.885476
0.989513
1.06675
1.12362
1.16402
1.18964
1.20155
1.204
1.20339
1.203
-0.0103403
0.00188797
0.0468114
0.117654
0.202888
0.297278
0.399682
0.509648
0.626785
0.750931
0.8762
0.983763
1.06508
1.12622
1.17086
1.19969
1.21201
1.2121
1.20888
1.20739
-0.0304374
-0.0179023
0.0277597
0.0993493
0.185339
0.280492
0.383734
0.49462
0.612872
0.738495
0.865918
0.976539
1.06179
1.12722
1.17661
1.21034
1.22566
1.2253
1.21801
1.20813
-0.0498017
-0.0370179
0.00929389
0.081511
0.168093
0.263818
0.367681
0.479202
0.598261
0.724962
0.854057
0.967211
1.0563
1.12601
1.18009
1.22006
1.24177
1.24456
1.23503
1.22635
-0.0683759
-0.0553703
-0.00858248
0.0641848
0.151167
0.247253
0.351547
0.46338
0.582916
0.710232
0.840456
0.955451
1.04795
1.12185
1.17884
1.22325
1.24801
1.25599
1.21938
1.16589
-0.0858781
-0.0721817
-0.0257598
0.047437
0.134456
0.230663
0.335289
0.447276
0.566904
0.69438
0.825075
0.941126
1.03576
1.11445
1.17088
1.20868
1.23451
1.22371
1.1667
1.10177
-0.102632
-0.0880445
-0.0420473
0.0318979
0.118295
0.214532
0.318683
0.430952
0.550373
0.677583
0.80795
0.924114
1.01867
1.10496
1.15477
1.20705
1.17873
1.13813
1.06855
0.999865
-0.0887973
-0.0706697
-0.0218005
0.0564889
0.147873
0.247966
0.35753
0.472791
0.595299
0.725896
0.849833
0.952748
1.03893
1.13067
1.17909
1.09936
1.05486
0.992607
0.919661
0.871225
-0.113324
-0.0969832
-0.0611437
0.00730353
0.093247
0.188946
0.293243
0.404879
0.523481
0.649383
0.77775
0.891986
0.983207
1.06331
1.13489
1.13613
1.01581
0.932608
0.870009
0.786454
-0.133717
-0.117994
-0.076462
-0.00658876
0.0796376
0.174959
0.278067
0.388774
0.506361
0.630772
0.757288
0.869189
0.95743
1.02489
1.05195
0.981795
0.842192
0.7461
0.670539
0.58119
-0.154544
-0.141925
-0.0959203
-0.0247372
0.0616894
0.157212
0.260266
0.370623
0.487265
0.610098
0.733679
0.840981
0.921972
0.974051
0.952578
0.824615
0.671973
0.553315
0.454364
0.315707
-0.17862
-0.165482
-0.117386
-0.0450454
0.0417331
0.137292
0.240227
0.349967
0.46546