/*--------------------------------*- C++ -*----------------------------------*\
  =========                 |
  \\      /  F ield         | OpenFOAM: The Open Source CFD Toolbox
   \\    /   O peration     | Website:  https://openfoam.org
    \\  /    A nd           | Version:  10
     \\/     M anipulation  |
\*---------------------------------------------------------------------------*/
FoamFile
{
    format      ascii;
    class       surfaceScalarField;
    location    "34";
    object      phi;
}
// * * * * * * * * * * * * * * * * * * * * * * * * * * * * * * * * * * * * * //

dimensions      [0 3 -1 0 0 0 0];

internalField   nonuniform List<scalar> 
17370
(
-0.0916071
0.0960063
0.284612
-0.0775894
0.0594126
0.364952
-0.0430342
0.0316146
0.427588
-0.0223093
0.0162544
0.505307
-0.0116577
0.00877974
0.60228
-0.00656497
0.00508054
0.720542
-0.00385045
0.00298116
0.863776
-0.00222294
0.00165765
1.03602
-0.00113763
0.000724149
1.24292
-0.000317073
-7.70821e-05
1.49159
0.000463119
-0.000867271
1.4916
0.00127134
-0.00177999
1.2432
0.00233548
-0.00308405
1.03639
0.00394615
-0.00516905
0.864129
0.00664578
-0.0088504
0.721262
0.0117178
-0.0163015
0.603798
0.0223438
-0.0316354
0.508731
0.0430402
-0.059409
0.432537
0.0775876
-0.0960035
0.365191
0.0916188
0.197392
-0.127086
0.0880167
0.0390696
-0.36435
0.354023
-0.0714797
0.081806
-0.446655
0.454245
-0.079169
0.0715787
-0.521008
0.529105
-0.0637301
0.0556331
-0.612985
0.620756
-0.0482457
0.0404744
-0.727157
0.733679
-0.0338602
0.0273385
-0.867579
0.872418
-0.0221393
0.0173009
-1.03857
1.04188
-0.0136212
0.0103039
-1.24471
1.24711
-0.00776976
0.00537742
-1.49284
1.49484
-0.00342234
0.00141848
-1.49269
1.4945
0.000392031
-0.00220163
-1.24411
1.24602
0.00417185
-0.0060852
-1.03761
1.0401
0.00842914
-0.0109191
-0.86619
0.86983
0.0141893
-0.0178285
-0.724599
0.72976
0.0226248
-0.0277863
-0.609069
0.615644
0.0342661
-0.0408414
-0.515126
0.52247
0.0485696
-0.0559144
-0.43988
0.447669
0.0639494
-0.0717387
-0.374713
0.377362
0.0792456
-0.0818939
-0.256908
0.224455
0.071548
-0.039095
-0.0687986
0.0591838
0.00961481
-0.0521251
0.0589621
-0.37483
0.367993
-0.058118
0.0542788
-0.453937
0.457777
-0.0487922
0.0442327
-0.527604
0.532163
-0.0396814
0.035785
-0.620786
0.624683
-0.0315752
0.027591
-0.734647
0.738632
-0.0232558
0.0193935
-0.873943
0.877805
-0.0153759
0.0119395
-1.04334
1.04678
-0.00843871
0.00542113
-1.24863
1.25165
-0.00222997
-0.000736781
-1.49693
1.4999
0.00368359
-0.00682019
-1.49741
1.50055
0.00976319
-0.0131733
-1.25007
1.25348
0.0165249
-0.0204511
-1.04566
1.04958
0.0242349
-0.0284881
-0.877153
0.881406
0.0323985
-0.036528
-0.739002
0.743132
0.0403554
-0.0448394
-0.625989
0.630473
0.049345
-0.0547795
-0.535031
0.540466
0.0585596
-0.0593335
-0.458094
0.458868
0.0524014
-0.0320366
-0.336793
0.316428
0.00966448
-0.0686819
0.0590174
-0.0533915
0.0492771
0.00411434
-0.0332645
0.0436983
-0.358535
0.348101
-0.0473825
0.0468028
-0.459559
0.460138
-0.0438814
0.0406747
-0.536109
0.539315
-0.0370037
0.0336549
-0.628366
0.631714
-0.030031
0.0268061
-0.742002
0.745227
-0.0233793
0.0202097
-0.881304
0.884474
-0.0166473
0.0133187
-1.0502
1.05353
-0.00964299
0.00625827
-1.2549
1.25828
-0.00248999
-0.00110653
-1.50324
1.50683
0.00467614
-0.00836386
-1.50405
1.50774
0.0116411
-0.0151814
-1.25704
1.26058
0.0183805
-0.0218037
-1.05329
1.05672
0.0248566
-0.0281659
-0.885017
0.888327
0.0312877
-0.0348008
-0.746823
0.750337
0.03805
-0.0416164
-0.634603
0.63817
0.0447347
-0.0475595
-0.544618
0.547443
0.0480411
-0.044222
-0.456999
0.45318
0.0336247
-0.0163456
-0.297139
0.27986
0.00416854
-0.0531774
0.0490088
-0.046104
0.0435458
0.00255818
-0.0230671
0.0334282
-0.337496
0.327135
-0.0391723
0.0401277
-0.459876
0.458921
-0.0388815
0.0365556
-0.541955
0.544281
-0.0339142
0.031371
-0.634661
0.637204
-0.0284059
0.0255831
-0.748303
0.751126
-0.0223884
0.0194199
-0.887525
0.890494
-0.0161149
0.0130174
-1.05669
1.05978
-0.00949684
0.00612825
-1.26165
1.26502
-0.00224938
-0.00152265
-1.51055
1.51432
0.00526015
-0.00903251
-1.51152
1.51529
0.0122598
-0.0155976
-1.26404
1.26738
0.018518
-0.0216308
-1.05992
1.06304
0.0244375
-0.0274703
-0.891526
0.894559
0.030153
-0.0329691
-0.75353
0.756347
0.0353793
-0.0378824
-0.641139
0.643642
0.0400927
-0.0411913
-0.549295
0.550394
0.040085
-0.0341238
-0.448087
0.442126
0.0235268
-0.0103292
-0.264715
0.251518
0.00262523
-0.0457774
0.0431521
-0.0414238
0.0396219
0.00180192
-0.0169569
0.0262524
-0.317252
0.307956
-0.0328622
0.0349954
-0.457345
0.455211
-0.0345738
0.0328858
-0.546295
0.547983
-0.0306677
0.0285521
-0.639493
0.641608
-0.0261372
0.0237932
-0.753709
0.756053
-0.0210273
0.0183255
-0.893338
0.89604
-0.0151851
0.0121888
-1.0628
1.0658
-0.00876579
0.00549366
-1.26831
1.27158
-0.00170384
-0.00199928
-1.51805
1.52176
0.00565815
-0.00931611
-1.51903
1.52268
0.0124119
-0.0156058
-1.27066
1.27385
0.0183775
-0.0212697
-1.06606
1.06896
0.0237585
-0.0263124
-0.897343
0.899897
0.0284764
-0.0307019
-0.758802
0.761027
0.0326481
-0.0346856
-0.645896
0.647934
0.0362047
-0.0364232
-0.551004
0.551223
0.0340595
-0.0271353
-0.435587
0.428663
0.0175268
-0.00741177
-0.240004
0.229889
0.0018837
-0.040959
0.0390753
-0.0380693
0.0367177
0.00135155
-0.0129435
0.0209443
-0.299306
0.291305
-0.0277179
0.0306481
-0.452636
0.449706
-0.0308653
0.0297519
-0.549388
0.550502
-0.0277643
0.0258536
-0.643626
0.645537
-0.0236732
0.021579
-0.758278
0.760372
-0.01914
0.0167376
-0.898576
0.900978
-0.0138872
0.0110932
-1.06866
1.07145
-0.00783112
0.00467554
-1.27477
1.27792
-0.00100502
-0.0025748
-1.52538
1.52896
0.00610166
-0.00961043
-1.52628
1.52979
0.0125472
-0.0155207
-1.27697
1.27994
0.0180258
-0.0205523
-1.07169
1.07421
0.0226738
-0.0248361
-0.902223
0.904385
0.0267024
-0.0286481
-0.76308
0.765025
0.0303499
-0.0321237
-0.649819
0.651593
0.0329947
-0.0324976
-0.551086
0.550589
0.029242
-0.022042
-0.421543
0.414343
0.0136426
-0.00568746
-0.220955
0.213
0.00145118
-0.0374362
0.0359851
-0.0355356
0.0344963
0.00103938
-0.0100993
0.0168649
-0.28394
0.277174
-0.023384
0.0267783
-0.446514
0.44312
-0.027574
0.0268919
-0.551376
0.552058
-0.0251357
0.0233685
-0.647397
0.649164
-0.0213453
0.0193994
-0.762416
0.764362
-0.0171249
0.01489
-0.903262
0.905497
-0.0122534
0.0096621
-1.07408
1.07667
-0.00661012
0.00362588
-1.28096
1.28394
-0.000134881
-0.00326347
-1.53244
1.53583
0.00659729
-0.00988629
-1.5332
1.53649
0.0125984
-0.0152894
-1.2828
1.28549
0.0175219
-0.0197573
-1.07659
1.07883
0.0216447
-0.0235723
-0.906409
0.908337
0.025231
-0.0269634
-0.76683
0.768563
0.0284751
-0.0299434
-0.653248
0.654716
0.0303213
-0.0291314
-0.54977
0.54858
0.0252917
-0.0182153
-0.407181
0.400105
0.0109527
-0.00453113
-0.205883
0.199462
0.00116056
-0.0346981
0.0335376
-0.0335822
0.0327752
0.000806986
-0.0079746
0.0136457
-0.270979
0.265308
-0.0196688
0.0232627
-0.439599
0.436005
-0.024555
0.024149
-0.552606
0.553012
-0.0227073
0.0210878
-0.650882
0.652502
-0.0191943
0.0173569
-0.766281
0.768118
-0.0151914
0.013054
-0.907654
0.909792
-0.0105334
0.00807234
-1.07914
1.0816
-0.00519615
0.00239062
-1.2868
1.2896
0.000894148
-0.00410002
-1.53912
1.54232
0.00722364
-0.010264
-1.53966
1.5427
0.0127399
-0.0151808
-1.28809
1.29053
0.0172016
-0.0192183
-1.08098
1.083
0.0209106
-0.0226274
-0.910154
0.911871
0.0240971
-0.0256277
-0.770154
0.771685
0.0269323
-0.028011
-0.655969
0.657048
0.0280274
-0.026207
-0.547082
0.545261
0.0220272
-0.0152967
-0.3932
0.386469
0.00901282
-0.00371014
-0.193653
0.188351
0.000953753
-0.032496
0.0315423
-0.0320662
0.0314396
0.000626592
-0.00632186
0.0110472
-0.260132
0.255406
-0.0164577
0.0200392
-0.432405
0.428824
-0.0216449
0.021456
-0.553324
0.553512
-0.0202402
0.0186857
-0.654113
0.655667
-0.0168668
0.0151111
-0.769936
0.771692
-0.0130552
0.0110344
-0.91182
0.913841
-0.00865157
0.00632192
-1.08393
1.08626
-0.00359452
0.000941487
-1.29229
1.29494
0.0021468
-0.00513443
-1.5454
1.54839
0.00802177
-0.0108071
-1.54563
1.54841
0.0130518
-0.0152327
-1.29287
1.29505
0.0170084
-0.0187625
-1.08492
1.08667
0.020227
-0.0217265
-0.913472
0.914972
0.0230338
-0.0244103
-0.773087
0.774464
0.0255917
-0.0263164
-0.657942
0.658666
0.0259901
-0.0236859
-0.543222
0.540918
0.0193491
-0.0130566
-0.37997
0.373678
0.00758224
-0.00311354
-0.183507
0.179039
0.000804513
-0.0306774
0.0298728
-0.0308938
0.0304144
0.000479429
-0.00497272
0.00886846
-0.251116
0.24722
-0.0136121
0.0170378
-0.425318
0.421892
-0.0188444
0.0188758
-0.553623
0.553591
-0.0178953
0.0164127
-0.657246
0.658729
-0.0146544
0.0129457
-0.773444
0.775153
-0.0109404
0.00897083
-0.91576
0.917729
-0.00665733
0.00440844
-1.08846
1.09071
-0.00179458
-0.000721212
-1.29747
1.29998
0.00361803
-0.00638354
-1.55123
1.55399
0.00902415
-0.0115481
-1.55107
1.55359
0.0135653
-0.0155126
-1.29716
1.29911
0.01709
-0.0186358
-1.08836
1.08991
0.0199207
-0.0212321
-0.916358
0.917669
0.0223711
-0.0235675
-0.775702
0.776899
0.0245675
-0.024925
-0.659186
0.659543
0.0242542
-0.0215463
-0.538452
0.535744
0.0171632
-0.0113257
-0.367639
0.361802
0.00651209
-0.0026752
-0.174924
0.171087
0.000696856
-0.0291376
0.0284407
-0.030005
0.0296531
0.00035184
-0.00381326
0.00695959
-0.243717
0.240571
-0.0109991
0.0141314
-0.418617
0.415485
-0.01599
0.0162007
-0.553498
0.553287
-0.015362
0.0140181
-0.660203
0.661547
-0.0123271
0.0106532
-0.776859
0.778533
-0.00867019
0.00672649
-0.919603
0.921547
-0.00446373
0.00228789
-1.09283
1.09501
0.000211614
-0.00260716
-1.30238
1.30477
0.00534399
-0.00793377
-1.55664
1.55923
0.0103706
-0.0126485
-1.556
1.55828
0.0144247
-0.0161095
-1.30097
1.30266
0.0174673
-0.0187992
-1.09138
1.09271
0.0199045
-0.0210071
-0.918891
0.919993
0.0219466
-0.0229277
-0.777961
0.778942
0.0236403
-0.0237101
-0.659736
0.659805
0.0226633
-0.0196578
-0.532919
0.529913
0.0153322
-0.00995255
-0.356225
0.350845
0.00568872
-0.00234448
-0.167532
0.164188
0.000617186
-0.0277984
0.0271812
-0.0293644
0.0291279
0.000236473
-0.00277419
0.00522802
-0.23779
0.235336
-0.00854944
0.0112877
-0.412567
0.409829
-0.0130548
0.0133359
-0.553081
0.5528
-0.0125446
0.0112627
-0.662931
0.664212
-0.00958365
0.0079221
-0.780213
0.781875
-0.00597625
0.00408641
-0.923358
0.925248
-0.00189941
-0.000194468
-1.09703
1.09913
0.00260169
-0.00488229
-1.30704
1.30932
0.00745119
-0.00983327
-1.56168
1.56406
0.0120277
-0.0140296
-1.56042
1.56242
0.0155496
-0.0169421
-1.30426
1.30565
0.0180219
-0.019051
-1.09394
1.09497
0.0198958
-0.020768
-0.920995
0.921867
0.0215376
-0.0223358
-0.779783
0.780581
0.0228404
-0.0226514
-0.659728
0.659539
0.0212806
-0.0180648
-0.526841
0.523625
0.0138459
-0.00888408
-0.345714
0.340752
0.00506784
-0.00210382
-0.161069
0.158105
0.000562552
-0.0266084
0.0260459
-0.028952
0.0288255
0.000126443
-0.00178461
0.00356592
-0.233236
0.231454
-0.00614972
0.00843031
-0.407347
0.405067
-0.0100316
0.0103476
-0.552578
0.552262
-0.00962283
0.00841112
-0.665564
0.666776
-0.00676421
0.005109
-0.783521
0.785176
-0.00315485
0.00125448
-0.926994
0.928894
0.000936879
-0.00301929
-1.10109
1.10317
0.00537557
-0.0075704
-1.31147
1.31367
0.00998856
-0.0121709
-1.56629
1.56848
0.014124
-0.015856
-1.56429
1.56603
0.0171247
-0.0182525
-1.30696
1.30809
0.0191052
-0.0198849
-1.0959
1.09668
0.0204986
-0.0210963
-0.922612
0.923209
0.0216122
-0.0221443
-0.781269
0.781801
0.0222882
-0.0218378
-0.659135
0.658685
0.02016
-0.0167484
-0.520373
0.516962
0.0126402
-0.00804786
-0.336029
0.331437
0.00459968
-0.00193184
-0.155332
0.152665
0.000527092
-0.0255226
0.0249955
-0.0287627
0.0287495
1.31425e-05
-0.000810672
0.00192664
-0.230024
0.228908
-0.0037374
0.00547069
-0.403098
0.401365
-0.00678871
0.00708115
-0.552043
0.55175
-0.0064357
0.00531423
-0.668045
0.669166
-0.00368709
0.0019911
-0.786811
0.788507
3.71212e-05
-0.00199606
-0.93067
0.932629
0.00422162
-0.00630483
-1.10513
1.10721
0.00862502
-0.010751
-1.31573
1.31786
0.0130508
-0.0150689
-1.57051
1.57253
0.0168043
-0.0182449
-1.56761
1.56905
0.0192268
-0.0200344
-1.30913
1.30994
0.0205887
-0.0210569
-1.0974
1.09786
0.0213935
-0.021708
-0.923731
0.924045
0.0219766
-0.0222563
-0.782116
0.782395
0.022086
-0.0212507
-0.657909
0.657074
0.019212
-0.0156368
-0.513525
0.50995
0.0116653
-0.0074084
-0.327079
0.322822
0.00426042
-0.0018171
-0.150157
0.147714
0.00050766
-0.0245014
0.0239938
-0.0287952
0.0289074
-0.000112243
0.000230409
0.00020238
-0.228145
0.227712
-0.00120802
0.00231529
-0.400002
0.398894
-0.00319892
0.00330433
-0.551676
0.551571
-0.00258163
0.00141913
-0.670429
0.671592
0.000250606
-0.00198377
-0.790156
0.791889
0.00403051
-0.00598966
-0.934407
0.936366
0.00820935
-0.0102796
-1.10914
1.11121
0.0125645
-0.0146258
-1.31985
1.32191
0.0167994
-0.0186393
-1.5744
1.57624
0.0201254
-0.0212621
-1.57033
1.57147
0.0219179
-0.0223406
-1.31062
1.31104
0.022545
-0.0226272
-1.09821
1.09829
0.0226347
-0.0226229
-0.924251
0.924239
0.0226169
-0.0225394
-0.782377
0.7823
0.0220814
-0.0208188
-0.655885
0.654622
0.0185114
-0.0148269
-0.50645
0.502766
0.0109689
-0.00696997
-0.318789
0.31479
0.00404459
-0.00175641
-0.145409
0.143121
0.000503086
-0.0235183
0.0230152
-0.0290936
0.0293406
-0.000247032
0.00125992
-0.00151233
-0.22766
0.227912
0.00136643
-0.000935035
-0.398178
0.397747
0.00053346
-0.000652829
-0.551777
0.551896
0.00147829
-0.00271529
-0.672962
0.674199
0.00446086
-0.00626577
-0.793555
0.79536
0.00839391
-0.0104281
-0.938142
0.940176
0.0127283
-0.0148631
-1.11313
1.11527
0.0171995
-0.0192647
-1.32384
1.32591
0.0213646
-0.0230367
-1.57791
1.57959
0.0242784
-0.0251111
-1.57243
1.57326
0.0254777
-0.0255392
-1.31136
1.31142
0.0253938
-0.0250908
-1.09823
1.09792
0.0247348
-0.0243319
-0.924039
0.923636
0.0239678
-0.0235175
-0.781895
0.781445
0.0227225
-0.0209981
-0.653121
0.651397
0.0183182
-0.0144214
-0.499151
0.495255
0.0105938
-0.00675597
-0.310989
0.307151
0.00396256
-0.00174864
-0.140944
0.13873
0.000510344
-0.0225424
0.022032
-0.0296591
0.0300535
-0.00039433
0.00237923
-0.00335316
-0.228509
0.229483
0.00406925
-0.0043983
-0.397722
0.398051
0.00457917
-0.00495576
-0.552403
0.552779
0.00584019
-0.0071423
-0.675636
0.676938
0.00899926
-0.0109606
-0.797102
0.799063
0.0133004
-0.0155362
-0.942072
0.944307
0.0180457
-0.0203416
-1.1173
1.11959
0.0227972
-0.0249092
-1.32787
1.32998
0.0269697
-0.0285015
-1.58111
1.58264
0.0295037
-0.029981
-1.57388
1.57436
0.029992
-0.029651
-1.31133
1.31099
0.0291421
-0.0284619
-1.09743
1.09675
0.0277709
-0.0269717
-0.922979
0.922179
0.026247
-0.0253388
-0.780583
0.779675
0.0240401
-0.0217246
-0.64946
0.647144
0.018654
-0.0145437
-0.491462
0.487352
0.0106898
-0.00688313
-0.303483
0.299677
0.00408433
-0.00182139
-0.136586
0.134323
0.000534882
-0.02155
0.0210151
-0.0305342
0.031103
-0.000568848
0.00355147
-0.00523519
-0.230834
0.232518
0.00684501
-0.00798293
-0.398774
0.399912
0.00893329
-0.00978067
-0.553713
0.55456
0.010946
-0.0124511
-0.678509
0.680014
0.0145493
-0.016761
-0.800966
0.803178
0.0193939
-0.021891
-0.946421
0.948918
0.0246559
-0.0271339
-1.12178
1.12426
0.0297188
-0.0318646
-1.33196
1.33411
0.0338635
-0.0352234
-1.58399
1.58535
0.0359375
-0.0360153
-1.57459
1.57467
0.0356403
-0.0348624
-1.31045
1.30968
0.0339286
-0.0327791
-1.09581
1.09466
0.0316833
-0.0304722
-0.921071
0.919859
0.0293708
-0.0279227
-0.778309
0.776861
0.0261104
-0.023294
-0.644716
0.6419
0.019874
-0.0155041
-0.48339
0.47902
0.0114829
-0.00749189
-0.29598
0.291989
0.00449296
-0.00201389
-0.132067
0.129587
0.000589634
-0.0204996
0.01991
-0.031755
0.0325231
-0.000768088
0.0048431
-0.00727786
-0.234587
0.237022
0.00980584
-0.0117801
-0.401491
0.403465
0.0135646
-0.0150477
-0.556118
0.557601
0.0167553
-0.0186818
-0.681929
0.683856
0.0212085
-0.0237845
-0.805353
0.807929
0.0267773
-0.0295673
-0.951271
0.954061
0.0326198
-0.0353239
-1.12662
1.12932
0.0380955
-0.0403351
-1.33613
1.33837
0.0423117
-0.0434975
-1.58651
1.58769
0.043906
-0.043559
-1.57447
1.57413
0.0427154
-0.0414085
-1.30862
1.30731
0.0400032
-0.0383458
-1.0932
1.09154
0.0367981
-0.0351312
-0.918265
0.916598
0.0336428
-0.0316882
-0.774942
0.772987
0.029447
-0.0261284
-0.639058
0.63574
0.0222654
-0.0174499
-0.474769
0.469953
0.0130408
-0.0086061
-0.288014
0.283579
0.00519876
-0.00233558
-0.127044
0.12418
0.000681897
-0.019325
0.0186431
-0.0333661
0.0343859
-0.00101982
0.00642671
-0.00973639
-0.239836
0.243146
0.0132943
-0.0161654
-0.405966
0.408837
0.0188048
-0.0209422
-0.559915
0.562053
0.0232559
-0.0257004
-0.686309
0.688753
0.0287847
-0.03184
-0.810487
0.813542
0.0353333
-0.0385644
-0.956732
0.959963
0.0420728
-0.0451497
-1.13194
1.13502
0.0482492
-0.0506725
-1.34051
1.34293
0.0526733
-0.0537008
-1.58867
1.58969
0.0537873
-0.0529811
-1.57348
1.57268
0.0516501
-0.0497706
-1.30566
1.30378
0.047833
-0.0455967
-1.08946
1.08723
0.0435558
-0.0414094
-0.914485
0.912339
0.0394918
-0.0370127
-0.77059
0.768111
0.034234
-0.0302566
-0.632381
0.628404
0.0257646
-0.0202735
-0.465209
0.459718
0.0152456
-0.0101212
-0.279083
0.273959
0.00612764
-0.00274904
-0.121209
0.11783
0.000798903
-0.0179622
0.0171633
-0.0354752
0.0368494
-0.00137418
0.00857724
-0.013004
-0.246836
0.251262
0.0178019
-0.0217091
-0.412368
0.416275
0.0252817
-0.0281207
-0.565183
0.568022
0.0310636
-0.0340646
-0.691786
0.694787
0.0378069
-0.0414978
-0.816594
0.820285
0.0457064
-0.0495702
-0.963141
0.967005
0.0537178
-0.0572859
-1.13805
1.14162
0.0607851
-0.0634083
-1.34525
1.34787
0.0654195
-0.0662368
-1.59049
1.5913
0.0659391
-0.0645808
-1.57152
1.57016
0.0626963
-0.0601721
-1.3015
1.29898
0.0576327
-0.0547793
-1.08451
1.08166
0.0522226
-0.0495057
-0.909579
0.906862
0.0469949
-0.0438384
-0.765143
0.761987
0.0403419
-0.035509
-0.624333
0.6195
0.0302232
-0.0238508
-0.454284
0.447912
0.0179767
-0.0119289
-0.268716
0.262668
0.00720262
-0.00321843
-0.114319
0.110335
0.000931551
-0.0163623
0.0154307
-0.0382761
0.0401814
-0.00190531
0.0116752
-0.0175986
-0.256045
0.261969
0.0239542
-0.0291391
-0.421127
0.426312
0.0338891
-0.0376449
-0.572187
0.575943
0.0414843
-0.0452961
-0.698526
0.702338
0.0499514
-0.0544741
-0.82401
0.828533
0.0595484
-0.0641307
-0.970847
0.97543
0.0689336
-0.0729353
-1.14511
1.14911
0.0766852
-0.0793211
-1.35029
1.35293
0.0810929
-0.0814387
-1.59176
1.5921
0.0804781
-0.0783236
-1.56834
1.56619
0.0757033
-0.0724077
-1.29601
1.29272
0.069211
-0.0656404
-1.0782
1.07463
0.0624021
-0.0589501
-0.903377
0.899925
0.0557636
-0.0518854
-0.758222
0.754344
0.0476208
-0.0418671
-0.614566
0.608812
0.0356511
-0.028128
-0.441599
0.434076
0.0211327
-0.0139369
-0.256483
0.249287
0.00836106
-0.00370835
-0.106229
0.101576
0.00106434
-0.0145088
0.0134444
-0.0421007
0.0448451
-0.00274445
0.0163398
-0.0243202
-0.268203
0.276184
0.0326773
-0.0394634
-0.433003
0.439789
0.0457054
-0.0507112
-0.581554
0.58656
0.0559272
-0.0610044
-0.707095
0.712172
0.0668664
-0.0723501
-0.833097
0.838581
0.0783323
-0.0835642
-0.979939
0.985171
0.0888464
-0.0930437
-1.1529
1.1571
0.0967356
-0.0990616
-1.35516
1.35749
0.100197
-0.0996845
-1.59185
1.59134
0.0976739
-0.0943312
-1.56334
1.56
0.0906498
-0.0862707
-1.28882
1.28444
0.0821898
-0.0778112
-1.07043
1.06605
0.0739827
-0.069913
-0.89562
0.89155
0.0660626
-0.0614846
-0.749749
0.745171
0.0564926
-0.0497047
-0.602931
0.596144
0.0422365
-0.0331166
-0.426552
0.417432
0.0246848
-0.0161356
-0.241981
0.233432
0.00959996
-0.00421484
-0.0968313
0.0914462
0.00119471
-0.0124037
0.011209
-0.047525
0.0517015
-0.00417645
0.0237273
-0.0345697
-0.284475
0.295317
0.0455323
-0.0543557
-0.449007
0.45783
0.0624021
-0.0689106
-0.594065
0.600574
0.0758441
-0.0824545
-0.718254
0.724865
0.0897338
-0.096213
-0.844098
0.850577
0.102964
-0.108608
-0.990201
0.995845
0.11403
-0.118097
-1.16089
1.16496
0.121365
-0.12305
-1.35921
1.3609
0.123209
-0.121567
-1.59003
1.58838
0.118319
-0.113641
-1.55582
1.55114
0.108782
-0.103159
-1.2793
1.27368
0.0980001
-0.092552
-1.06086
1.05541
0.0879053
-0.0831852
-0.886512
0.881792
0.078852
-0.0735546
-0.73978
0.734483
0.0675179
-0.0591102
-0.588927
0.580519
0.0498294
-0.0386893
-0.408217
0.397077
0.0286021
-0.0185337
-0.224897
0.214829
0.0109157
-0.00472519
-0.0860408
0.0798504
0.00131485
-0.0100602
0.00874537
-0.0556038
0.0628098
-0.00720595
0.036944
-0.0520383
-0.306993
0.322087
0.0666439
-0.0781022
-0.470453
0.481912
0.0879355
-0.0958999
-0.610143
0.618108
0.104494
-0.112399
-0.732229
0.740135
0.12066
-0.127618
-0.856853
0.863811
0.134517
-0.140014
-1.00102
1.00652
0.145026
-0.148498
-1.16837
1.17184
0.150904
-0.151593
-1.36177
1.36246
0.1505
-0.147563
-1.58581
1.58287
0.143046
-0.137114
-1.54561
1.53968
0.131187
-0.124478
-1.26732
1.26061
0.118361
-0.111905
-1.04913
1.04267
0.106378
-0.100684
-0.875842
0.870148
0.095354
-0.0885766
-0.727885
0.721108
0.0805146
-0.0695448
-0.571075
0.560105
0.0580184
-0.0447556
-0.385785
0.372522
0.0329507
-0.0212265
-0.204997
0.193273
0.0123669
-0.0052594
-0.0738288
0.0667214
0.00142287
-0.00751754
0.00609467
-0.0695849
0.073449
-0.00386405
0.0275187
-0.0404644
-0.339698
0.352644
0.0533359
-0.0635054
-0.49842
0.50859
0.0727726
-0.0818808
-0.629406
0.638514
0.0922682
-0.101506
-0.747795
0.757033
0.111787
-0.120918
-0.869923
0.879054
0.13053
-0.138959
-1.01109
1.01952
0.147598
-0.154807
-1.17428
1.18149
0.161651
-0.166698
-1.36209
1.36713
0.170483
-0.17192
-1.57887
1.58031
0.170889
-0.167802
-1.53282
1.52973
0.1635
-0.157615
-1.25315
1.24727
0.151672
-0.14423
-1.03533
1.02789
0.137268
-0.129078
-0.862814
0.854623
0.120616
-0.109608
-0.711984
0.700976
0.0968116
-0.0808539
-0.547824
0.531866
0.0654727
-0.0484878
-0.358949
0.341964
0.0341333
-0.020674
-0.181915
0.168455
0.0112209
-0.00438502
-0.0603247
0.0534888
0.0010486
-0.00488202
0.00383341
-0.0804152
0.0783126
0.00210257
0.00566681
-0.0137217
-0.368372
0.376427
0.023192
-0.0303404
-0.523312
0.53046
0.037757
-0.0453868
-0.649662
0.657292
0.0546
-0.0631057
-0.765983
0.774489
0.072203
-0.080585
-0.887632
0.896014
0.0895008
-0.0970928
-1.02773
1.03532
0.105153
-0.11161
-1.18865
1.19511
0.117807
-0.122225
-1.37208
1.3765
0.125167
-0.125976
-1.5812
1.58201
0.124329
-0.120583
-1.52612
1.52237
0.11541
-0.108453
-1.24093
1.23397
0.101277
-0.0923666
-1.01946
1.01055
0.0832059
-0.0720652
-0.843043
0.831902
0.0613024
-0.049691
-0.684638
0.673027
0.0392762
-0.0282883
-0.513583
0.502596
0.0192346
-0.0113565
-0.3246
0.316721
0.00621563
-0.00255589
-0.155549
0.15189
0.000727605
2.61307e-05
-0.0471394
0.0463856
-0.00011423
-0.00268641
0.00280064
-0.0813019
0.0783273
0.00297458
-0.00308442
-0.00114269
-0.387257
0.391484
0.00720918
-0.01237
-0.541386
0.546547
0.0179434
-0.0242668
-0.66648
0.672803
0.0319406
-0.0391182
-0.782162
0.78934
0.047146
-0.0544813
-0.903692
0.911027
0.0621397
-0.0690878
-1.04281
1.04976
0.0763135
-0.0822489
-1.20126
1.20719
0.0875503
-0.0911571
-1.38038
1.38399
0.0935239
-0.0935697
-1.58216
1.58221
0.0911293
-0.0865356
-1.51788
1.51329
0.0806373
-0.0730411
-1.22654
1.21894
0.0648966
-0.0552618
-1.0006
0.990968
0.0456937
-0.0346538
-0.819731
0.808691
0.0248128
-0.0148739
-0.658737
0.648798
0.0070664
0.000294406
-0.489792
0.482431
-0.00478611
0.00699119
-0.307135
0.30493
-0.00709688
0.0058368
-0.146508
0.147768
-0.00407146
0.0020595
-0.044954
0.046966
-0.000668301
-0.00257707
0.00324538
-0.0797758
0.0769718
0.002804
-0.00619135
0.00438498
-0.399365
0.401171
-0.000883806
-0.00289511
-0.554652
0.558431
0.00762513
-0.0127784
-0.679854
0.685007
0.0191678
-0.0252398
-0.79602
0.802092
0.0320867
-0.0384235
-0.917895
0.924232
0.0454717
-0.0514933
-1.05634
1.06236
0.057969
-0.0628554
-1.21278
1.21767
0.0675225
-0.0705781
-1.38741
1.39046
0.0721804
-0.0713361
-1.58173
1.58088
0.0684202
-0.0634067
-1.50791
1.50289
0.0572339
-0.0491644
-1.21087
1.2028
0.0411081
-0.0318134
-0.980804
0.971509
0.022738
-0.0129619
-0.797228
0.787452
0.0042318
0.00386511
-0.636877
0.628781
-0.00957678
0.013896
-0.473478
0.469159
-0.0155672
0.0147634
-0.299403
0.300207
-0.0125094
0.00912456
-0.147068
0.150453
-0.00601453
0.00286271
-0.0479903
0.0511422
-0.000874191
-0.00349214
0.00436633
-0.0781356
0.075744
0.00239163
-0.00682065
0.00637507
-0.407342
0.407788
-0.00382265
0.00116406
-0.565217
0.567875
0.00267664
-0.0073242
-0.690782
0.69543
0.0126007
-0.0179093
-0.807595
0.812903
0.0238357
-0.0293709
-0.930184
0.935719
0.0354831
-0.0409142
-1.06828
1.07371
0.0464948
-0.0510316
-1.22244
1.22698
0.0550703
-0.057595
-1.39313
1.39566
0.0586794
-0.0574463
-1.57977
1.57854
0.0542803
-0.0489875
-1.49709
1.4918
0.0429271
-0.0353625
-1.19464
1.18707
0.0278923
-0.0193534
-0.962
0.953461
0.0114668
-0.00304787
-0.777411
0.768992
-0.00409441
0.010676
-0.619242
0.61266
-0.0151127
0.0180765
-0.462485
0.459522
-0.0188318
0.0170582
-0.297058
0.298831
-0.0138957
0.0100168
-0.151635
0.155514
-0.00651742
0.00304958
-0.0531568
0.0566246
-0.000938872
-0.00485051
0.00578938
-0.076769
0.0747781
0.00199095
-0.00633048
0.0061809
-0.41284
0.41299
-0.00479198
0.00254576
-0.573302
0.575548
0.0012787
-0.00526719
-0.699985
0.703973
0.00982644
-0.014458
-0.81755
0.822181
0.0197533
-0.0247296
-0.940968
0.945944
0.0303535
-0.0351487
-1.07889
1.08368
0.0401963
-0.0442914
-1.23124
1.23533
0.047846
-0.0499923
-1.39789
1.40004
0.0507349
-0.049682
-1.57715
1.5761
0.0464913
-0.0415813
-1.48607
1.48116
0.0359225
-0.0289946
-1.17946
1.17253
0.0225144
-0.0149061
-0.945031
0.937423
0.00807854
-0.00106178
-0.760602
0.753586
-0.00485924
0.0102648
-0.605092
0.599686
-0.0138844
0.016336
-0.454024
0.451573
-0.0167313
0.0151124
-0.29685
0.298469
-0.012426
0.00890607
-0.157063
0.160583
-0.00572511
0.00269777
-0.0585471
0.0615744
-0.000835945
-0.00624387
0.00707982
-0.0758463
0.0743347
0.00151161
-0.00521148
0.00522555
-0.417062
0.417048
-0.00398909
0.00224282
-0.580571
0.582317
0.00142552
-0.005107
-0.708055
0.711736
0.00954326
-0.0135803
-0.826542
0.830579
0.0182783
-0.0227263
-0.950948
0.955396
0.0280812
-0.032455
-1.08852
1.09289
0.036958
-0.040816
-1.23924
1.24309
0.0444596
-0.0464071
-1.40218
1.40413
0.0471762
-0.0461042
-1.57464
1.57357
0.0434285
-0.0386939
-1.47609
1.47136
0.0337206
-0.0276692
-1.16561
1.15956
0.0218455
-0.0153881
-0.930075
0.923617
0.00944748
-0.00323672
-0.746392
0.740181
-0.001644
0.00637954
-0.593264
0.588528
-0.00962691
0.0115774
-0.446917
0.444966
-0.0121039
0.0112196
-0.296931
0.297815
-0.00920897
0.00650862
-0.161579
0.164279
-0.00415707
0.00198248
-0.062902
0.0650765
-0.000635566
-0.00737301
0.00800858
-0.0754785
0.0743176
0.00116087
-0.00401014
0.004025
-0.420583
0.420568
-0.00270994
0.000915946
-0.587112
0.588906
0.00259638
-0.00596462
-0.715497
0.718865
0.00984428
-0.0138257
-0.834676
0.838658
0.0182268
-0.0228417
-0.959712
0.964327
0.0274865
-0.0316649
-1.09737
1.10155
0.0362608
-0.0398411
-1.24683
1.25041
0.0429755
-0.0453034
-1.40597
1.4083
0.0462477
-0.0455035
-1.57255
1.5718
0.0431016
-0.0391177
-1.46686
1.46288
0.0346929
-0.0292894
-1.15331
1.14791
0.0241952
-0.018484
-0.917183
0.911472
0.0132948
-0.00802832
-0.734064
0.728797
0.00346978
0.00074436
-0.582961
0.578747
-0.00360105
0.00567971
-0.440779
0.4387
-0.00642638
0.00597243
-0.296135
0.296589
-0.00491934
0.00339539
-0.164319
0.165843
-0.00213663
0.00102744
-0.0655657
0.0666749
-0.000356819
-0.00811081
0.00846763
-0.0756565
0.0746968
0.000959696
-0.00269452
0.00242734
-0.423926
0.424193
-0.0012163
-0.000736432
-0.593278
0.595231
0.00405532
-0.00742259
-0.722613
0.72598
0.0112557
-0.014934
-0.842536
0.846214
0.0195166
-0.0233895
-0.96843
0.972302
0.0280103
-0.0320009
-1.1059
1.10989
0.0364604
-0.0402069
-1.25397
1.25772
0.0435962
-0.0456988
-1.41039
1.41249
0.0469895
-0.0466796
-1.57099
1.57068
0.0449791
-0.0414193
-1.45881
1.45525
0.0375552
-0.0327143
-1.14266
1.13782
0.0281788
-0.022997
-0.905633
0.900451
0.0184357
-0.0135962
-0.723319
0.718479
0.00948602
-0.00555212
-0.573907
0.569974
0.00262264
-0.000549125
-0.434794
0.43272
-0.00060606
0.000897354
-0.294187
0.293896
-0.000941583
0.000710139
-0.164838
0.165069
-0.000497953
0.000338317
-0.0662648
0.0664245
-0.000160939
-0.0083383
0.00849924
-0.0761166
0.0754588
0.000657804
-0.001559
0.000904092
-0.427499
0.428154
0.000161725
-0.00246844
-0.598835
0.601142
0.00553156
-0.00886366
-0.729442
0.732774
0.0126296
-0.0165137
-0.849852
0.853737
0.0205564
-0.0246181
-0.976428
0.98049
0.0292148
-0.0329992
-1.11432
1.1181
0.0375353
-0.0412233
-1.26128
1.26496
0.0446597
-0.0472827
-1.415
1.41762
0.0490695
-0.0490731
-1.57041
1.57042
0.0476674
-0.0448678
-1.45187
1.44907
0.0415948
-0.0371839
-1.13288
1.12847
0.0329631
-0.0283846
-0.895215
0.890636
0.0238395
-0.0194856
-0.713367
0.709013
0.0156338
-0.011774
-0.565639
0.561779
0.00892985
-0.00644031
-0.428729
0.426239
0.00483977
-0.00358361
-0.291022
0.289766
0.00262059
-0.00162911
-0.163182
0.162191
0.000779525
-0.000157024
-0.0652037
0.0645812
-5.17423e-05
-0.00808776
0.0081395
-0.0769695
0.0764618
0.000507669
-0.000629807
9.66568e-05
-0.431355
0.431888
0.00176483
-0.00389045
-0.604729
0.606854
0.00715486
-0.0104299
-0.735952
0.739227
0.0141237
-0.0176823
-0.85738
0.860939
0.0219007
-0.0256843
-0.984602
0.988386
0.0302472
-0.0344635
-1.12235
1.12656
0.0386428
-0.042651
-1.2687
1.27271
0.0465004
-0.049221
-1.42015
1.42287
0.0513943
-0.0521969
-1.57064
1.57145
0.0512622
-0.0491089
-1.44614
1.44399
0.0460627
-0.0421153
-1.12407
1.12012
0.0383011
-0.0338942
-0.88565
0.881243
0.0297185
-0.025473
-0.704127
0.699881
0.0217211
-0.0177848
-0.557406
0.55347
0.0146613
-0.011824
-0.422257
0.41942
0.00948048
-0.00737675
-0.286238
0.284134
0.00549569
-0.00352659
-0.159422
0.157453
0.00194658
-0.000701683
-0.0627105
0.0614656
0.000120322
-0.00756658
0.00744626
-0.0780714
0.0777424
0.000328961
0.000409295
-0.00123721
-0.435291
0.436119
0.0028897
-0.00532933
-0.610264
0.612704
0.00856316
-0.0117338
-0.742361
0.745532
0.0155664
-0.0190288
-0.864545
0.868007
0.0231387
-0.0270692
-0.992681
0.996611
0.0315532
-0.0357418
-1.13065
1.13484
0.0401412
-0.0441759
-1.27665
1.28069
0.0482127
-0.0516793
-1.42588
1.42935
0.0543087
-0.0554247
-1.57219
1.57331
0.0551919
-0.053371
-1.44172
1.4399
0.0508738
-0.0474328
-1.11608
1.11264
0.0436628
-0.0394428
-0.876528
0.872308
0.0354078
-0.0310937
-0.695209
0.690895
0.0274191
-0.0233338
-0.549298
0.545213
0.0200076
-0.016571
-0.415157
0.41172
0.0136999
-0.0107549
-0.279914
0.276969
0.00794787
-0.00513242
-0.153835
0.15102
0.00291558
-0.00113159
-0.0590851
0.0573011
0.000238105
-0.00680279
0.00656469
-0.0793817
0.0791741
0.000207687
0.0012538