/*--------------------------------*- C++ -*----------------------------------*\
  =========                 |
  \\      /  F ield         | OpenFOAM: The Open Source CFD Toolbox
   \\    /   O peration     | Website:  https://openfoam.org
    \\  /    A nd           | Version:  10
     \\/     M anipulation  |
\*---------------------------------------------------------------------------*/
FoamFile
{
    format      ascii;
    class       volVectorField;
    location    "34";
    object      U;
}
// * * * * * * * * * * * * * * * * * * * * * * * * * * * * * * * * * * * * * //

dimensions      [0 1 -1 0 0 0 0];

internalField   nonuniform List<vector> 
8800
(
(0.980155 -0.0915211 0)
(1.00234 -0.0587222 0)
(0.99961 -0.032123 0)
(0.999998 -0.0165132 0)
(1.00005 -0.00882604 0)
(1.00002 -0.00507475 0)
(0.999994 -0.00298227 0)
(0.999976 -0.00169587 0)
(0.999971 -0.000813318 0)
(1.00006 -0.00012339 0)
(0.99998 0.000577273 0)
(0.999999 0.00133313 0)
(1.00001 0.00236709 0)
(1.00002 0.0039775 0)
(1.00003 0.00672629 0)
(1.00002 0.0120341 0)
(0.999852 0.0230881 0)
(0.999059 0.043155 0)
(1.00723 0.0790277 0)
(0.775024 0.0478396 0)
(0.358975 -0.0147491 0)
(1.04649 -0.0724946 0)
(1.08849 -0.0660319 0)
(1.04946 -0.0509254 0)
(1.02553 -0.0377044 0)
(1.01268 -0.0258946 0)
(1.0065 -0.0167076 0)
(1.00356 -0.0102511 0)
(1.00213 -0.00565068 0)
(1.00148 -0.00207451 0)
(1.00136 0.00111576 0)
(1.00173 0.00441957 0)
(1.00271 0.00832077 0)
(1.00473 0.0136513 0)
(1.00897 0.0213439 0)
(1.01796 0.0318449 0)
(1.03583 0.0446296 0)
(1.06746 0.0580855 0)
(1.09472 0.0699596 0)
(0.845676 0.055501 0)
(0.217755 -0.00138172 0)
(1.07567 -0.0506695 0)
(1.09942 -0.0489562 0)
(1.06438 -0.0400404 0)
(1.03985 -0.0325782 0)
(1.02372 -0.0253678 0)
(1.01394 -0.0181831 0)
(1.00845 -0.0116052 0)
(1.0056 -0.00587861 0)
(1.00445 -0.000615197 0)
(1.00478 0.00447165 0)
(1.00664 0.00975077 0)
(1.01057 0.0157431 0)
(1.01788 0.0225256 0)
(1.03051 0.029646 0)
(1.05051 0.0367487 0)
(1.0801 0.0445437 0)
(1.10573 0.0518866 0)
(0.943379 0.0409862 0)
(0.217264 0.00140206 0)
(0.176596 -0.000629287 0)
(1.01935 -0.0354809 0)
(1.10569 -0.0414387 0)
(1.07795 -0.0364325 0)
(1.05237 -0.0303948 0)
(1.03511 -0.0245314 0)
(1.02328 -0.0187774 0)
(1.01548 -0.0128265 0)
(1.01089 -0.00676647 0)
(1.00887 -0.000565278 0)
(1.00943 0.00556286 0)
(1.01253 0.0114652 0)
(1.01849 0.0172571 0)
(1.02807 0.0228742 0)
(1.04229 0.0284544 0)
(1.06313 0.0342494 0)
(1.09394 0.0401493 0)
(1.09456 0.0416987 0)
(0.830452 0.0227406 0)
(0.175759 0.000645545 0)
(0.15467 -0.000463033 0)
(0.958076 -0.0257067 0)
(1.10435 -0.0351452 0)
(1.08801 -0.0327019 0)
(1.06113 -0.0281951 0)
(1.04307 -0.0232501 0)
(1.03071 -0.0180166 0)
(1.02213 -0.0125474 0)
(1.0166 -0.00669367 0)
(1.01399 -0.000289873 0)
(1.01466 0.00613451 0)
(1.01848 0.011984 0)
(1.02527 0.0173069 0)
(1.0354 0.0223439 0)
(1.05018 0.0272067 0)
(1.07211 0.0316805 0)
(1.10114 0.035591 0)
(1.06995 0.033846 0)
(0.743013 0.0143995 0)
(0.153421 0.000481404 0)
(0.139971 -0.000334757 0)
(0.901007 -0.0193349 0)
(1.09671 -0.0302508 0)
(1.09612 -0.0293937 0)
(1.06879 -0.0256299 0)
(1.04992 -0.0215839 0)
(1.03699 -0.0169649 0)
(1.02803 -0.0117848 0)
(1.02212 -0.0061321 0)
(1.01917 0.000144307 0)
(1.01985 0.00645491 0)
(1.0239 0.0120737 0)
(1.03094 0.0170815 0)
(1.04145 0.0216067 0)
(1.05689 0.0255997 0)
(1.0797 0.0291432 0)
(1.10354 0.0318835 0)
(1.0384 0.0279451 0)
(0.676528 0.0102296 0)
(0.138216 0.000356591 0)
(0.129226 -0.0002531 0)
(0.851099 -0.0149229 0)
(1.08429 -0.0261255 0)
(1.1017 -0.0264893 0)
(1.07551 -0.0231928 0)
(1.05615 -0.0195941 0)
(1.0428 -0.015516 0)
(1.03347 -0.0107653 0)
(1.02727 -0.00537553 0)
(1.02413 0.000693445 0)
(1.02472 0.00678141 0)
(1.02881 0.0121027 0)
(1.03604 0.0166594 0)
(1.04687 0.0205539 0)
(1.06268 0.0239511 0)
(1.08593 0.0270348 0)
(1.10289 0.0288988 0)
(1.00409 0.0233146 0)
(0.62496 0.00779693 0)
(0.126855 0.000279713 0)
(0.121043 -0.000194279 0)
(0.808609 -0.0117164 0)
(1.06892 -0.0225052 0)
(1.10516 -0.0238356 0)
(1.08166 -0.020986 0)
(1.06181 -0.0176285 0)
(1.04816 -0.0138614 0)
(1.03857 -0.00947006 0)
(1.03212 -0.00440047 0)
(1.02878 0.00136881 0)
(1.02924 0.00711823 0)
(1.03332 0.0120486 0)
(1.04063 0.0161298 0)
(1.0516 0.019562 0)
(1.06772 0.0225725 0)
(1.0914 0.025372 0)
(1.09951 0.0263637 0)
(0.969589 0.0196312 0)
(0.583859 0.00619151 0)
(0.117924 0.000226723 0)
(0.114713 -0.000149439 0)
(0.772867 -0.00929643 0)
(1.05199 -0.0192738 0)
(1.10734 -0.0213631 0)
(1.08736 -0.0189613 0)
(1.06711 -0.0158167 0)
(1.05321 -0.0122256 0)
(1.04343 -0.00804805 0)
(1.03675 -0.00327233 0)
(1.03315 0.00217516 0)
(1.03346 0.00756772 0)
(1.03749 0.0120819 0)
(1.04479 0.0157633 0)
(1.05581 0.0188389 0)
(1.07218 0.0215078 0)
(1.09559 0.0239433 0)
(1.09341 0.0241388 0)
(0.936312 0.016701 0)
(0.550298 0.00506229 0)
(0.110686 0.000188687 0)
(0.109797 -0.000114132 0)
(0.742993 -0.00740104 0)
(1.03465 -0.0163737 0)
(1.10854 -0.0189574 0)
(1.09268 -0.0168532 0)
(1.07213 -0.0138387 0)
(1.05797 -0.0104234 0)
(1.048 -0.00647324 0)
(1.04113 -0.00195633 0)
(1.03731 0.00316442 0)
(1.03739 0.00815925 0)
(1.04125 0.0122452 0)
(1.04846 0.0154778 0)
(1.05951 0.0181502 0)
(1.07612 0.0205252 0)
(1.09859 0.0226514 0)
(1.0851 0.0221651 0)
(0.904967 0.0143762 0)
(0.522291 0.00424174 0)
(0.104665 0.000161691 0)
(0.106005 -8.50366e-05 0)
(0.718215 -0.00584958 0)
(1.01775 -0.013731 0)
(1.10891 -0.0166461 0)
(1.09789 -0.0148815 0)
(1.077 -0.0119463 0)
(1.06251 -0.00861769 0)
(1.05236 -0.00478182 0)
(1.0453 -0.000450062 0)
(1.04122 0.00434422 0)
(1.04102 0.00891152 0)
(1.04464 0.0125869 0)
(1.05169 0.0154637 0)
(1.06274 0.0178056 0)
(1.07963 0.0198838 0)
(1.10035 0.0216207 0)
(1.07505 0.0204612 0)
(0.875809 0.012541 0)
(0.498467 0.0036378 0)
(0.099529 0.00014332 0)
(0.103157 -5.91625e-05 0)
(0.697977 -0.00451437 0)
(1.00194 -0.0112407 0)
(1.10844 -0.0142663 0)
(1.10272 -0.0127933 0)
(1.08172 -0.00994694 0)
(1.06693 -0.00666175 0)
(1.05651 -0.00291405 0)
(1.04914 0.00123893 0)
(1.04471 0.00576351 0)
(1.04416 0.00997603 0)
(1.04753 0.0132236 0)
(1.05446 0.0157033 0)
(1.06556 0.0177127 0)
(1.08264 0.0194154 0)
(1.10104 0.020714 0)
(1.06356 0.0189128 0)
(0.84886 0.0110584 0)
(0.477861 0.0031809 0)
(0.0950354 0.000130417 0)
(0.101144 -3.52882e-05 0)
(0.681902 -0.00331496 0)
(0.987844 -0.00885864 0)
(1.10749 -0.01175 0)
(1.10722 -0.0104032 0)
(1.08639 -0.00756597 0)
(1.07126 -0.00434532 0)
(1.06053 -0.000724828 0)
(1.05286 0.00325504 0)
(1.04804 0.00750185 0)
(1.04704 0.0112973 0)
(1.05006 0.0140748 0)
(1.0568 0.0160514 0)
(1.06789 0.0175921 0)
(1.08504 0.0189919 0)
(1.10083 0.0199444 0)
(1.05107 0.0175666 0)
(0.824027 0.00988324 0)
(0.459753 0.00284309 0)
(0.0910103 0.000123357 0)
(0.0999091 -1.21919e-05 0)
(0.669745 -0.00217264 0)
(0.97582 -0.00650012 0)
(1.10643 -0.00913178 0)
(1.11159 -0.0079115 0)
(1.09101 -0.00513182 0)
(1.07549 -0.00189756 0)
(1.06445 0.00173049 0)
(1.05637 0.00562204 0)
(1.05102 0.00961533 0)
(1.04952 0.0129981 0)
(1.05213 0.0153238 0)
(1.05858 0.0168821 0)
(1.06962 0.0180048 0)
(1.08699 0.018976 0)
(1.09959 0.0193966 0)
(1.03784 0.0164526 0)
(0.80111 0.00894841 0)
(0.443604 0.00259784 0)
(0.0873103 0.000120773 0)
(0.0994462 1.22255e-05 0)
(0.661433 -0.00105864 0)
(0.966225 -0.00410164 0)
(1.10533 -0.00627512 0)
(1.11568 -0.00519471 0)
(1.09566 -0.00245786 0)
(1.07982 0.000895507 0)
(1.06838 0.00457457 0)
(1.05985 0.00840975 0)
(1.0539 0.0122003 0)
(1.05172 0.0151988 0)
(1.05376 0.0170002 0)
(1.05988 0.0180384 0)
(1.07079 0.0186652 0)
(1.08798 0.0191597 0)
(1.09717 0.0190782 0)
(1.02384 0.01548 0)
(0.779914 0.00822058 0)
(0.428967 0.00242922 0)
(0.0838045 0.000121838 0)
(0.0997762 4.84736e-05 0)
(0.65702 9.75009e-05 0)
(0.959549 -0.00157553 0)
(1.10474 -0.00303674 0)
(1.11968 -0.00182605 0)
(1.10033 0.000966641 0)
(1.08412 0.00435503 0)
(1.07217 0.00801993 0)
(1.06298 0.0117889 0)
(1.05622 0.0153704 0)
(1.05324 0.0179519 0)
(1.05469 0.019185 0)
(1.06042 0.0195656 0)
(1.07119 0.0195889 0)
(1.08808 0.0195803 0)
(1.09337 0.0188573 0)
(1.00949 0.0147635 0)
(0.76022 0.00770792 0)
(0.415454 0.00233433 0)
(0.080403 0.000126194 0)
(0.101046 7.0101e-05 0)
(0.656667 0.00131411 0)
(0.955956 0.00101142 0)
(1.10514 0.000344988 0)
(1.12404 0.0017306 0)
(1.10518 0.00463911 0)
(1.08857 0.00816271 0)
(1.07618 0.0119577 0)
(1.06638 0.015809 0)
(1.05876 0.0192605 0)
(1.05475 0.0214155 0)
(1.05525 0.0221181 0)
(1.0603 0.0218781 0)
(1.07079 0.0212626 0)
(1.08728 0.0205583 0)
(1.0884 0.0192077 0)
(0.994602 0.0144267 0)
(0.741586 0.00744151 0)
(0.402651 0.0023174 0)
(0.0770077 0.000131381 0)
(0.103271 0.000110948 0)
(0.660171 0.00257098 0)
(0.955734 0.00375114 0)
(1.10659 0.00397231 0)
(1.12859 0.00552235 0)
(1.11023 0.00863071 0)
(1.09319 0.0124966 0)
(1.08017 0.0166335 0)
(1.06945 0.0206794 0)
(1.06062 0.0240599 0)
(1.0554 0.0258031 0)
(1.05492 0.0258578 0)
(1.05928 0.0249708 0)
(1.06932 0.0237351 0)
(1.08524 0.0223376 0)
(1.08179 0.0200765 0)
(0.978925 0.0145485 0)
(0.723537 0.00754553 0)
(0.389994 0.00241841 0)
(0.073529 0.000137519 0)
(0.106635 0.000161906 0)
(0.668038 0.00389506 0)
(0.959053 0.00648708 0)
(1.10957 0.00799389 0)
(1.13357 0.0100176 0)
(1.11582 0.0135426 0)
(1.09845 0.0178869 0)
(1.08467 0.0224421 0)
(1.07286 0.0266946 0)
(1.0626 0.0299633 0)
(1.05581 0.0312067 0)
(1.05406 0.0305817 0)
(1.05746 0.0289135 0)
(1.06686 0.0269572 0)
(1.08181 0.0248446 0)
(1.07349 0.0215929 0)
(0.962513 0.0154491 0)
(0.705293 0.00817423 0)
(0.376652 0.00268424 0)
(0.069801 0.000149056 0)
(0.111256 0.000220828 0)
(0.680153 0.00532961 0)
(0.966384 0.00944177 0)
(1.11492 0.0123208 0)
(1.13965 0.0152186 0)
(1.12222 0.0194783 0)
(1.10428 0.0244076 0)
(1.08945 0.0294341 0)
(1.0762 0.033992 0)
(1.06417 0.0372205 0)
(1.05553 0.0379359 0)
(1.05233 0.0364939 0)
(1.05465 0.0339645 0)
(1.06335 0.0311972 0)
(1.07685 0.028331 0)
(1.06374 0.024248 0)
(0.944897 0.0173069 0)
(0.685677 0.00935934 0)
(0.361629 0.00311991 0)
(0.0655779 0.00017047 0)
(0.117336 0.000296076 0)
(0.696771 0.00708088 0)
(0.97801 0.0128959 0)
(1.12311 0.0171657 0)
(1.14748 0.0210414 0)
(1.12974 0.0262551 0)
(1.11086 0.0320043 0)
(1.09474 0.0377815 0)
(1.07976 0.0428739 0)
(1.06551 0.0461404 0)
(1.05467 0.0463245 0)
(1.04967 0.0439818 0)
(1.05069 0.0405053 0)
(1.05866 0.0368506 0)
(1.07055 0.0332363 0)
(1.05223 0.0281106 0)
(0.925228 0.0200433 0)
(0.663484 0.0109965 0)
(0.344091 0.00367871 0)
(0.0606631 0.000197804 0)
(0.125332 0.000404472 0)
(0.718701 0.00944631 0)
(0.994267 0.0172929 0)
(1.13423 0.0230971 0)
(1.15719 0.0279783 0)
(1.13874 0.0343389 0)
(1.11869 0.041258 0)
(1.1009 0.0480824 0)
(1.08367 0.0538347 0)
(1.06666 0.0571191 0)
(1.05316 0.056633 0)
(1.04605 0.053292 0)
(1.04562 0.0487276 0)
(1.05265 0.0441418 0)
(1.06271 0.039568 0)
(1.03838 0.0330214 0)
(0.902754 0.0235374 0)
(0.637666 0.0129848 0)
(0.323416 0.00431258 0)
(0.0549056 0.00022913 0)
(0.136016 0.000571357 0)
(0.747263 0.0128327 0)
(1.01625 0.0232128 0)
(1.14899 0.0309792 0)
(1.16923 0.0373315 0)
(1.14969 0.0452019 0)
(1.12804 0.0535575 0)
(1.10789 0.0614642 0)
(1.08768 0.0676382 0)
(1.06731 0.0705268 0)
(1.05074 0.0689058 0)
(1.0413 0.0642357 0)
(1.03912 0.0584619 0)
(1.04507 0.0526759 0)
(1.0528 0.0469854 0)
(1.02167 0.03893 0)
(0.876706 0.0277939 0)
(0.607244 0.0152219 0)
(0.299265 0.00498337 0)
(0.0482843 0.000257688 0)
(0.150667 0.000841744 0)
(0.784481 0.0178811 0)
(1.04592 0.0314778 0)
(1.16875 0.0418324 0)
(1.18472 0.0505645 0)
(1.16302 0.060247 0)
(1.13893 0.0701195 0)
(1.11547 0.0788235 0)
(1.09144 0.0849107 0)
(1.06707 0.0867596 0)
(1.04699 0.0833355 0)
(1.03508 0.0767307 0)
(1.03124 0.069351 0)
(1.0357 0.062412 0)
(1.04081 0.0554774 0)
(1.00194 0.0462108 0)
(0.845841 0.0328731 0)
(0.571415 0.0176939 0)
(0.27141 0.00568759 0)
(0.0408246 0.000282179 0)
(0.171443 0.00130856 0)
(0.833437 0.0257187 0)
(1.08563 0.0435025 0)
(1.19493 0.0570538 0)
(1.20461 0.0686637 0)
(1.17897 0.0805134 0)
(1.15099 0.0916704 0)
(1.12305 0.100641 0)
(1.09439 0.106041 0)
(1.06544 0.106291 0)
(1.04147 0.10073 0)
(1.0269 0.0919621 0)
(1.02146 0.082584 0)
(1.02481 0.0741339 0)
(1.02681 0.066247 0)
(0.977994 0.0551844 0)
(0.808445 0.0385868 0)
(0.529801 0.0204165 0)
(0.239793 0.00641275 0)
(0.0326235 0.000299224 0)
(0.201641 0.00234659 0)
(0.899712 0.0390676 0)
(1.1379 0.063035 0)
(1.22759 0.079719 0)
(1.22881 0.0942539 0)
(1.19698 0.107625 0)
(1.16343 0.119043 0)
(1.13002 0.12736 0)
(1.09612 0.131362 0)
(1.06224 0.129554 0)
(1.03424 0.121749 0)
(1.01682 0.110976 0)
(1.00963 0.0998385 0)
(1.01196 0.0897348 0)
(1.00991 0.0799597 0)
(0.947089 0.0653957 0)
(0.763549 0.0447194 0)
(0.482655 0.0234907 0)
(0.205069 0.00718811 0)
(0.024033 0.000305482 0)
(0.24275 0.0086197 8.81821e-20)
(0.987396 0.066051 7.62349e-20)
(1.20029 0.096388 -2.61782e-20)
(1.26412 0.114058 0)
(1.25411 0.130942 -6.17403e-34)
(1.2147 0.143606 8.89394e-21)
(1.17488 0.153656 -1.5253e-20)
(1.13564 0.160256 0)
(1.09621 0.162215 2.96387e-34)
(1.05711 0.158103 -1.7304e-20)
(1.02475 0.148109 0)
(1.00405 0.135643 -1.98375e-20)
(0.99441 0.12307 -5.80386e-20)
(0.994365 0.111134 -2.72594e-20)
(0.985051 0.0980662 -8.13413e-21)
(0.90533 0.0791236 -4.80939e-21)
(0.707516 0.0538776 0)
(0.426661 0.0282584 3.365e-21)
(0.167826 0.00911095 3.97583e-21)
(0.0160551 0.000638728 7.16311e-20)
(0.270493 0.0242205 7.50249e-20)
(1.05866 0.108482 5.1678e-22)
(1.2502 0.144377 7.46009e-21)
(1.29665 0.162129 0)
(1.27597 0.177631 -3.28791e-20)
(1.22995 0.188059 -3.63816e-20)
(1.18433 0.196177 -1.57764e-20)
(1.13933 0.200949 -5.37257e-20)
(1.09416 0.201002 0)
(1.04926 0.194812 7.40446e-20)
(1.01158 0.182721 7.21257e-20)
(0.986205 0.168257 2.11694e-20)
(0.971707 0.153427 7.5851e-20)
(0.963786 0.137944 1.05296e-19)
(0.941079 0.120195 0)
(0.848466 0.0975292 1.47477e-19)
(0.644103 0.0672826 2.1158e-19)
(0.37108 0.0361354 2.35059e-19)
(0.13607 0.0123935 -2.68638e-19)
(0.00986869 0.000892459 -5.05267e-21)
(0.270002 0.0394919 0)
(1.10196 0.163787 1.55966e-20)
(1.28281 0.203752 0)
(1.32064 0.220994 -4.96519e-20)
(1.29253 0.232508 0)
(1.24156 0.239199 -7.43389e-20)
(1.19092 0.24409 3.28873e-20)
(1.14059 0.24594 -1.10824e-19)
(1.08996 0.243055 -1.57148e-21)
(1.03947 0.23368 3.88376e-20)
(0.996451 0.218299 1.57738e-19)
(0.966028 0.200768 -3.09273e-22)
(0.945802 0.183064 -5.49604e-20)
(0.930102 0.165089 -9.8951e-20)
(0.899816 0.145582 1.16836e-19)
(0.807246 0.120715 -2.06628e-19)
(0.610762 0.0853741 -2.72255e-20)
(0.352985 0.0477631 0)
(0.133498 0.0177153 1.45249e-23)
(0.0102794 0.00145279 0)
(0.262809 0.0529093 2.66026e-19)
(1.12375 0.22239 -1.20452e-19)
(1.30186 0.267967 -8.0434e-20)
(1.33505 0.284988 2.51044e-20)
(1.30244 0.292387 -4.13435e-20)
(1.24842 0.294959 1.57463e-19)
(1.19393 0.295981 6.94684e-20)
(1.13903 0.294116 0)
(1.08344 0.287455 -2.00992e-19)
(1.0276 0.274005 0)
(0.979393 0.254593 -8.34755e-20)
(0.944117 0.2337 -1.00586e-19)
(0.918824 0.213471 -5.9734e-20)
(0.897837 0.193839 -7.16822e-20)
(0.864727 0.173516 0)
(0.777665 0.14722 0)
(0.594985 0.107864 -1.77967e-19)
(0.355807 0.0639745 3.5087e-20)
(0.143777 0.0258937 -2.06441e-20)
(0.0138065 0.00265604 -2.41342e-20)
(0.255121 0.0648991 -1.51701e-19)
(1.13223 0.280881 0)
(1.31132 0.333211 1.8771e-19)
(1.34144 0.350592 7.61877e-20)
(1.30603 0.354357 9.18263e-20)
(1.25027 0.35295 0)
(1.19291 0.349985 7.06488e-20)
(1.13427 0.344075 1.24578e-19)
(1.07434 0.333206 1.04679e-19)
(1.01366 0.315259 1.81933e-19)
(0.960676 0.291677 0)
(0.921191 0.267592 -2.16844e-19)
(0.89194 0.245267 -1.28954e-19)
(0.867495 0.224653 -7.58008e-20)
(0.833498 0.203753 4.59748e-19)
(0.753952 0.176148 5.47156e-20)
(0.586606 0.133108 2.57496e-19)
(0.364379 0.0830165 -1.21596e-18)
(0.15779 0.036343 7.22668e-19)
(0.0185065 0.00450409 -8.70998e-19)
(0.248257 0.0757994 -1.2943e-19)
(1.13258 0.337363 2.92614e-20)
(1.31396 0.397569 -2.59899e-20)
(1.34171 0.415734 -9.54906e-20)
(1.30446 0.416401 -8.8276e-20)
(1.24762 0.41135 1.75262e-21)
(1.18807 0.404516 -7.61696e-20)
(1.12636 0.394529 1.30676e-19)
(1.0627 0.379367 -2.25003e-19)
(0.997764 0.356893 0)
(0.940642 0.329233 -9.93065e-20)
(0.897668 0.302245 -1.60686e-21)
(0.86551 0.278123 -1.40273e-19)
(0.838923 0.256677 0)
(0.805099 0.235341 -9.92826e-20)
(0.731295 0.206676 -2.35956e-19)
(0.579273 0.160203 6.30767e-19)
(0.372302 0.10349 -6.20344e-19)
(0.169908 0.0478686 8.82307e-19)
(0.022698 0.0066699 -9.16796e-19)
(0.242823 0.0859927 -4.03808e-22)
(1.12812 0.391223 -2.70693e-20)
(1.312 0.460189 -1.01074e-19)
(1.33754 0.479141 4.67023e-20)
(1.29889 0.477222 -4.60118e-20)
(1.2413 0.468911 0)
(1.18002 0.458452 -7.53907e-20)
(1.11574 0.444547 -1.37996e-19)
(1.04887 0.425215 -1.18185e-19)
(0.980231 0.398353 0)
(0.919573 0.366778 -1.03992e-19)
(0.873798 0.336991 -1.2568e-19)
(0.839542 0.311121 1.51528e-19)
(0.811665 0.288659 -9.09157e-20)
(0.778338 0.266607 -4.30774e-19)
(0.709615 0.236477 2.56737e-19)
(0.570221 0.18706 7.68625e-20)
(0.375752 0.123784 0)
(0.177586 0.0591448 -8.48927e-19)
(0.025643 0.00878625 -3.10932e-20)
(0.23876 0.0957837 -1.54005e-20)
(1.1209 0.442313 2.62668e-20)
(1.30685 0.520758 5.27733e-20)
(1.33022 0.540148 1.54554e-19)
(1.29035 0.53604 -1.85486e-19)
(1.23215 0.524852 1.75176e-19)
(1.16944 0.511073 1.61777e-19)
(1.10298 0.493509 -2.20798e-19)
(1.03332 0.470247 6.94183e-20)
(0.961422 0.439206 -4.46966e-19)
(0.897696 0.403848 -1.15686e-19)
(0.84966 0.371259 0)
(0.813865 0.343513 1.63577e-19)
(0.785162 0.319818 1.9416e-19)
(0.752426 0.296839 2.31086e-19)
(0.687793 0.265055 -2.77273e-19)
(0.558504 0.212813 -8.20215e-20)
(0.373681 0.142747 9.66342e-20)
(0.179606 0.069069 0)
(0.0270613 0.010548 -6.7084e-20)
(0.235869 0.105312 1.42347e-19)
(1.11232 0.490759 -1.01059e-19)
(1.29939 0.578452 -5.47214e-20)
(1.32066 0.598402 1.04901e-19)
(1.27968 0.592419 -9.31332e-20)
(1.22092 0.578689 -4.03163e-21)
(1.15698 0.561933 -1.74932e-19)
(1.08863 0.541033 -7.93928e-20)
(1.01649 0.51413 -2.04345e-19)
(0.941674 0.479156 2.46076e-22)
(0.875232 0.440102 -3.64464e-19)
(0.825274 0.404638 2.98258e-19)
(0.788348 0.374823 -1.7811e-19)
(0.759174 0.349687 2.11967e-19)
(0.727053 0.325366 0)
(0.665731 0.291746 -1.494e-19)
(0.543841 0.236073 -7.65158e-22)
(0.36631 0.158834 -4.18004e-19)
(0.176911 0.0766829 -6.15343e-20)
(0.0270386 0.0117318 0)
(0.233972 0.114665 0)
(1.10311 0.536755 -1.04617e-19)
(1.29037 0.633222 -1.05734e-19)
(1.30956 0.653791 -1.07412e-19)
(1.26752 0.646145 -1.05854e-19)
(1.20822 0.630178 0)
(1.14319 0.610774 -8.56885e-20)
(1.07317 0.586879 -1.16531e-21)
(0.998804 0.556666 4.37237e-19)
(0.921297 0.518017 -6.21095e-20)
(0.852338 0.475348 -2.62071e-19)
(0.800685 0.436897 1.56289e-19)
(0.762826 0.404773 -2.0432e-21)
(0.73338 0.37788 2.2552e-19)
(0.701823 0.351912 1.37364e-19)
(0.642926 0.315895 -3.21816e-19)
(0.526238 0.256065 3.81588e-19)
(0.354071 0.171614 1.12743e-19)
(0.170011 0.0816746 4.64906e-19)
(0.0256496 0.0122116 -1.24471e-18)
(0.232969 0.123972 2.47525e-20)
(1.0938 0.580471 -4.79512e-20)
(1.28045 0.685136 4.43988e-20)
(1.29742 0.706328 1.06644e-19)
(1.25438 0.697148 0)
(1.19454 0.679202 -9.40673e-20)
(1.12854 0.657465 2.81117e-19)
(1.05701 0.630915 1.76555e-19)
(0.980603 0.597731 0)
(0.900552 0.55569 -8.83403e-19)
(0.829164 0.509494 7.05371e-19)
(0.775873 0.467949 0)
(0.737179 0.433276 2.06421e-19)
(0.707526 0.404325 -2.02271e-21)
(0.67641 0.376349 -4.38456e-19)
(0.619165 0.33742 1.71748e-19)
(0.505956 0.272555 0)
(0.337976 0.180802 6.06743e-19)
(0.159688 0.0842077 0)
(0.0233568 0.0121113 -5.86791e-19)
(0.232673 0.133277 -2.30885e-20)
(1.08479 0.621989 -4.33842e-20)
(1.26974 0.734283 4.91453e-20)
(1.28463 0.75601 0)
(1.24065 0.745442 -1.08397e-19)
(1.18029 0.725744 0)
(1.11341 0.701953 -2.88129e-19)
(1.04051 0.673077 -8.68476e-20)
(0.962192 0.637267 7.9146e-20)
(0.87968 0.592133 -4.36404e-19)
(0.805835 0.54254 7.35339e-20)
(0.750849 0.497797 0)
(0.711286 0.460346 -4.40712e-19)
(0.681423 0.429014 2.06334e-21)
(0.650569 0.398651 0)
(0.594217 0.356249 2.20299e-21)
(0.483082 0.285577 5.52163e-19)
(0.318443 0.186271 -5.23084e-19)
(0.14682 0.0842937 1.54205e-19)
(0.0204614 0.0114749 0)
(0.23274 0.142455 0)
(1.07619 0.661477 -4.01812e-20)
(1.25861 0.78078 -4.32208e-20)
(1.27149 0.8029 -2.31467e-21)
(1.22663 0.791073 -5.09358e-20)
(1.16578 0.769827 -2.12514e-19)
(1.0981 0.744242 1.05183e-19)
(1.02395 0.713347 -9.81991e-20)
(0.943828 0.675244 3.47395e-19)
(0.858878 0.627345 -6.96936e-19)
(0.782471 0.574526 -3.44354e-21)
(0.725627 0.52652 -1.96191e-19)
(0.685077 0.486051 7.12325e-19)
(0.654933 0.452052 -2.42219e-21)
(0.62415 0.418919 -3.38274e-19)
(0.568005 0.372415 -6.03353e-19)
(0.457866 0.295191 0)
(0.296061 0.18823 0)
(0.131963 0.0820029 1.66336e-19)
(0.0172135 0.0103421 -9.73556e-20)
(0.233322 0.151599 -1.82116e-20)
(1.06803 0.698763 7.84379e-20)
(1.24732 0.824699 4.57706e-20)
(1.25824 0.847089 0)
(1.21256 0.834113 -1.55916e-21)
(1.15126 0.811495 -2.13414e-19)
(1.08286 0.784357 2.66602e-19)
(1.00756 0.751729 3.99712e-19)
(0.925726 0.711666 4.55469e-19)
(0.838343 0.661349 -5.71809e-19)
(0.759223 0.605535 -6.03306e-19)
(0.700273 0.554255 5.24309e-19)
(0.658529 0.510547 0)
(0.627964 0.473545 -1.5382e-19)
(0.597077 0.437191 -3.65133e-19)
(0.540547 0.385874 -4.32512e-19)
(0.430285 0.301197 -5.13443e-19)
(0.271377 0.186641 1.51842e-19)
(0.115569 0.0773563 -8.93684e-20)
(0.0136512 0.00875312 3.11991e-22)
(0.233963 0.160626 0)
(1.06043 0.734371 0)
(1.23602 0.866137 2.60166e-21)
(1.24503 0.888684 0)
(1.19862 0.874661 1.59225e-19)
(1.13692 0.850826 1.60892e-19)
(1.06788 0.822341 0)
(0.991528 0.788249 4.98794e-20)
(0.908072 0.746543 7.65675e-19)
(0.818263 0.694179 -1.3119e-18)
(0.73626 0.635669 0)
(0.67488 0.581173 -3.36574e-19)
(0.631595 0.534005 -2.94472e-21)
(0.600407 0.493602 -2.39901e-21)
(0.569226 0.453469 3.89992e-19)
(0.511804 0.396499 -3.93402e-22)
(0.40056 0.303523 -1.10381e-18)
(0.244591 0.181454 3.26404e-19)
(0.0985319 0.0707963 9.64516e-20)
(0.0101103 0.00689487 0)
(0.234591 0.169467 3.65991e-20)
(1.05312 0.76828 3.17489e-20)
(1.22477 0.905149 7.90717e-20)
(1.232 0.927787 -1.95796e-19)
(1.18494 0.912791 2.67229e-19)
(1.1229 0.887893 0)
(1.0533 0.858253 1.71167e-19)
(0.976004 0.822939 -1.08917e-19)
(0.891016 0.779901 3.86593e-21)
(0.798809 0.725871 9.54919e-20)
(0.713738 0.665022 7.81058e-19)
(0.649532 0.607454 -1.18475e-19)
(0.604279 0.556655 -4.37276e-19)
(0.572126 0.512367 -1.78345e-19)
(0.540447 0.467674 2.11518e-19)
(0.481795 0.404015 -2.30344e-22)
(0.369318 0.301979 2.97278e-19)
(0.216794 0.172953 -7.01457e-19)
(0.0815029 0.0627385 8.29357e-19)
(0.00673199 0.00489007 1.20917e-19)
(0.235051 0.178001 -8.79353e-21)
(1.04613 0.800581 1.43135e-20)
(1.21369 0.941849 6.12316e-21)
(1.21924 0.964514 -9.23407e-20)
(1.17161 0.948616 -5.03258e-20)
(1.10929 0.922772 -2.96411e-19)
(1.03924 0.89215 5.55715e-20)
(0.961096 0.85583 -4.58535e-19)
(0.874684 0.811745 -8.52768e-19)
(0.780115 0.756432 -7.8543e-19)
(0.691812 0.693666 0)
(0.624374 0.633279 -5.15428e-19)
(0.576603 0.578778 6.27612e-19)
(0.542932 0.530038 0)
(0.510439 0.479654 -4.52468e-19)
(0.45047 0.407897 2.70117e-19)
(0.337073 0.296117 -3.19075e-19)
(0.189148 0.161357 -3.77344e-19)
(0.0654137 0.0537209 -6.67677e-19)
(0.00371607 0.00290404 -5.20516e-19)
(0.235795 0.186363 4.84606e-21)
(1.03932 0.831244 -1.52032e-20)
(1.20283 0.976315 -4.5252e-20)
(1.20681 0.998947 -1.14213e-19)
(1.15873 0.982223 1.10874e-19)
(1.09619 0.955556 -1.79323e-19)
(1.02577 0.924091 1.80925e-19)
(0.946885 0.88697 -4.78682e-19)
(0.859155 0.842101 -5.06961e-19)
(0.762297 0.785877 8.25644e-19)
(0.670642 0.721659 1.71446e-18)
(0.599577 0.658813 0)
(0.548633 0.600673 0)
(0.512591 0.546938 -2.04886e-19)
(0.478643 0.489307 0)
(0.417458 0.407285 5.80947e-19)
(0.304528 0.284967 6.8641e-19)
(0.163389 0.146613 0)
(0.0516059 0.0443464 0)
(0.00125822 0.00114762 5.59158e-19)
(0.23615 0.194246 1.01977e-22)
(1.03272 0.860261 -1.62464e-21)
(1.19225 1.00866 -3.02029e-20)
(1.19478 1.03121 8.55478e-20)
(1.14632 1.01372 1.1089e-19)
(1.08364 0.98632 2.11113e-19)
(1.01293 0.954141 -2.53019e-19)
(0.933425 0.916392 1.29391e-22)
(0.844501 0.870979 -5.00203e-21)
(0.74545 0.814204 -5.58229e-21)
(0.650397 0.749033 8.82852e-19)
(0.575333 0.68418 0)
(0.520523 0.622646 6.31315e-19)
(0.480925 0.563549 4.3652e-19)
(0.444201 0.496844 1.05143e-18)
(0.381689 0.401178 3.12057e-19)
(0.272132 0.266332 -3.69948e-19)
(0.142811 0.126855 -2.17371e-19)
(0.0445774 0.0342128 0)
(0.000767707 0.000229309 6.00535e-19)
(0.236776 0.202105 -1.16912e-20)
(1.0263 0.88773 0)
(1.18194 1.03894 -2.25323e-20)
(1.18315 1.06139 6.31855e-20)
(1.13444 1.04319 -1.06706e-19)
(1.07166 1.01515 -2.72053e-19)
(1.00078 0.98236 5.17823e-19)
(0.920745 0.944136 -3.71897e-20)
(0.830756 0.898391 0)
(0.729651 0.841386 -9.18376e-19)
(0.631222 0.77578 -1.92367e-18)
(0.551865 0.709468 7.63256e-20)
(0.492551 0.644968 8.66786e-19)
(0.447925 0.580494 0)
(0.406117 0.503053 7.06955e-19)
(0.34085 0.389273 0)
(0.237501 0.236519 0)
(0.130203 0.0914643 -2.35214e-19)
(0.0631416 0.0121271 0)
(0.0262466 0.0105416 1.60921e-19)
(0.237001 0.209336 -2.26712e-20)
(1.02004 0.913994 0)
(1.1719 1.06736 -2.66796e-20)
(1.17189 1.0897 0)
(1.12304 1.07089 5.05785e-20)
(1.0602 1.04233 0)
(0.989228 1.00906 2.99309e-20)
(0.908747 0.970544 6.69838e-20)
(0.817805 0.924705 6.3641e-20)
(0.714747 0.867816 -1.0124e-18)
(0.612977 0.802336 5.86368e-20)
(0.529024 0.735256 6.08678e-19)
(0.464486 0.668287 8.44004e-19)
(0.413024 0.598748 1.12615e-19)
(0.362695 0.509693 5.51673e-19)
(0.290611 0.373501 0)
(0.189193 0.19507 7.7883e-19)
(0.0965847 0.0310455 -4.56461e-19)
(0.0445473 0.0445636 5.30201e-19)
(-0.0688669 0.425195 -6.26483e-19)
(0.237187 0.216335 2.43011e-20)
(1.01369 0.938837 2.20944e-20)
(1.16205 1.09423 0)
(1.16087 1.11657 5.20048e-21)
(1.11193 1.09739 -1.22238e-19)
(1.049 1.06854 4.47786e-19)
(0.977985 1.03504 1.94717e-19)
(0.897042 0.996554 0)
(0.805138 0.95101 4.35342e-19)
(0.700094 0.894791 -5.43549e-20)
(0.594786 0.830162 0)
(0.505698 0.763306 0)
(0.434926 0.69438 7.53665e-19)
(0.374696 0.619969 -3.45683e-19)
(0.311121 0.519776 -5.55889e-19)
(0.226337 0.359404 0)
(0.108922 0.180393 3.91431e-19)
(0.00813626 0.433219 -4.5418e-19)
(0.0371227 1.86513 -2.53098e-19)
(0.0674915 2.79788 -3.20757e-19)
(0.237196 0.222473 -2.49934e-20)
(1.00747 0.962435 -4.09448e-20)
(1.15239 1.11953 -8.4838e-21)
(1.15008 1.14187 -3.1632e-20)
(1.10117 1.12246 0)
(1.03812 1.09349 2.99649e-19)
(0.967233 1.05998 2.87928e-19)
(0.885805 1.02174 -3.38457e-20)
(0.793008 0.976789 6.43733e-20)
(0.686059 0.921696 9.73325e-19)
(0.577242 0.858574 9.78037e-19)
(0.482863 0.793177 6.8207e-19)
(0.404952 0.722929 7.55498e-19)
(0.334986 0.642778 -8.06589e-19)
(0.257419 0.536152 -8.35263e-19)
(0.149917 0.386032 0)
(0.0534825 0.822837 0)
(0.10987 2.53392 2.18886e-19)
(0.111245 3.1904 0)
(0.114213 3.3838 5.34414e-19)
(0.239734 0.22806 0)
(1.00194 0.984953 0)
(1.14271 1.14314 0)
(1.13928 1.16536 -5.17529e-21)
(1.09043 1.14588 -1.02557e-19)
(1.02732 1.11704 2.04428e-19)
(0.956865 1.08378 1.93516e-19)
(0.87499 1.04599 -3.38745e-20)
(0.781384 1.00191 5.59896e-19)
(0.672674 0.948396 -9.95076e-21)
(0.560496 0.887463 1.94219e-18)
(0.460896 0.824693 -7.78138e-20)
(0.375036 0.754779 9.20497e-20)
(0.296237 0.664327 1.1574e-19)
(0.196427 0.559915 -1.22515e-21)
(0.114687 0.955651 1.76874e-21)
(0.151888 2.68703 -1.12915e-18)
(0.163476 3.28528 -4.30809e-19)
(0.150341 3.42545 2.29345e-19)
(0.135427 3.4488 -2.5849e-19)
(0.157232 0.184357 2.01678e-20)
(0.991029 1.0092 0)
(1.13278 1.16527 -4.31701e-21)
(1.12907 1.18752 5.7807e-20)
(1.08049 1.1684 -1.69874e-19)
(1.01751 1.13984 -2.08012e-19)
(0.946776 1.10655 -2.10562e-19)
(0.864699 1.06943 4.15962e-19)
(0.770442 1.02652 -4.67376e-19)
(0.660254 0.975009 0)
(0.544988 0.916967 9.62695e-19)
(0.440389 0.857686 -5.58823e-19)
(0.345687 0.792907 0)
(0.258737 0.688478 1.08165e-19)
(0.166516 0.812364 2.57282e-19)
(0.167298 2.44221 -3.0764e-19)
(0.231626 3.31991 3.48376e-19)
(0.208877 3.44167 1.9235e-19)
(0.173329 3.46399 2.19834e-19)
(0.14979 3.47461 3.60374e-19)
(0.282883 0.266684 -3.19726e-20)
(0.976009 1.019 0)
(1.11481 1.19021 1.99028e-20)
(1.11461 1.22 -3.45241e-20)
(1.06446 1.20156 1.43806e-19)
(1.00093 1.17348 1.81156e-19)
(0.929338 1.14162 2.58916e-19)
(0.846628 1.10565 3.19668e-20)
(0.751089 1.0648 4.64958e-19)
(0.638319 1.01694 8.72973e-19)
(0.518281 0.964899 5.59044e-20)
(0.405884 0.912918 5.02491e-19)
(0.294628 0.856732 8.73148e-20)
(0.223884 0.975407 -1.07376e-19)
(0.241177 2.28813 -2.47075e-19)
(0.306699 3.32392 2.48046e-19)
(0.291195 3.47486 -2.80745e-19)
(0.25362 3.49717 -1.63809e-19)
(0.214743 3.52495 -1.51016e-19)
(0.161214 3.51809 -1.74525e-20)
(0.270669 0.263402 0)
(0.973674 1.04148 1.59554e-20)
(1.10701 1.21344 -7.32327e-21)
(1.10492 1.24319 4.87271e-22)
(1.05446 1.22462 7.96234e-20)
(0.99097 1.19679 -1.68019e-19)
(0.919023 1.16509 -1.58083e-19)
(0.836182 1.1299 2.98709e-20)
(0.74028 1.09047 -4.95294e-19)
(0.626554 1.04532 -1.43682e-20)
(0.504422 0.997868 -1.77781e-18)
(0.388692 0.951859 7.12592e-20)
(0.282073 0.923533 -8.33892e-20)
(0.264056 1.46086 -1.01198e-19)
(0.343435 3.07384 1.7775e-20)
(0.368381 3.47191 8.72793e-22)
(0.326626 3.53315 4.47137e-19)
(0.287981 3.55762 2.32977e-19)
(0.237325 3.5817 -8.49721e-20)
(0.175774 3.57728 -9.47014e-20)
(0.254075 0.261571 4.95213e-20)
(0.969714 1.06655 1.18845e-19)
(1.09872 1.23875 -2.23631e-20)
(1.09468 1.2678 2.13709e-21)
(1.04396 1.24902 0)
(0.980595 1.22122 -1.96709e-19)
(0.90859 1.18976 -2.1343e-19)
(0.8259 1.15533 2.76632e-20)
(0.72996 1.11739 -5.43603e-20)
(0.615786 1.07512 -8.23967e-19)
(0.492329 1.03253 -8.3644e-19)
(0.375048 0.9934 -5.99498e-19)
(0.284732 1.04831 -6.34635e-19)
(0.333255 2.1332 6.52321e-19)
(0.431849 3.37294 5.68546e-19)
(0.414227 3.53425 0)
(0.366283 3.57931 0)
(0.328437 3.62189 -7.0437e-20)
(0.272974 3.68422 0)
(0.188084 3.65811 -1.09658e-19)
(0.242953 0.263125 -8.42748e-20)
(0.963756 1.09266 -1.1357e-19)
(1.08902 1.26522 0)
(1.08314 1.29324 6.20134e-21)
(1.03228 1.27403 4.75127e-20)
(0.969138 1.24612 -2.57025e-19)
(0.897404 1.21492 -1.27893e-19)
(0.81507 1.18112 2.21514e-20)
(0.719329 1.14459 -3.80428e-19)
(0.605092 1.10514 4.36737e-20)
(0.481119 1.06753 0)
(0.364883 1.03793 0)
(0.311587 1.27767 -5.94319e-19)
(0.418496 2.81217 2.45124e-19)
(0.506455 3.48866 3.3223e-19)
(0.460838 3.56921 0)
(0.420606 3.62998 -8.09647e-20)
(0.381958 3.69562 2.96715e-20)