/*--------------------------------*- C++ -*----------------------------------*\
  =========                 |
  \\      /  F ield         | OpenFOAM: The Open Source CFD Toolbox
   \\    /   O peration     | Website:  https://openfoam.org
    \\  /    A nd           | Version:  10
     \\/     M anipulation  |
\*---------------------------------------------------------------------------*/
FoamFile
{
    format      ascii;
    class       volScalarField;
    location    "8";
    object      p;
}
// * * * * * * * * * * * * * * * * * * * * * * * * * * * * * * * * * * * * * //

dimensions      [0 2 -2 0 0 0 0];

internalField   nonuniform List<scalar> 
8800
(
0.40681
0.359141
0.320691
0.291962
0.271433
0.256979
0.246777
0.239644
0.23505
0.233016
0.233976
0.237669
0.243737
0.252462
0.264704
0.281975
0.306381
0.340049
0.382307
0.440989
0.237443
0.245164
0.25317
0.25676
0.25561
0.250963
0.244943
0.239323
0.234965
0.232269
0.231825
0.233906
0.237779
0.243059
0.249179
0.254882
0.258028
0.256961
0.251019
0.242021
0.215543
0.221947
0.226575
0.230136
0.232738
0.233893
0.233282
0.231554
0.22973
0.228778
0.229435
0.231316
0.233512
0.235007
0.234905
0.233029
0.230009
0.225942
0.220963
0.217127
0.20917
0.212055
0.215849
0.21921
0.221473
0.222969
0.223943
0.224356
0.224331
0.224335
0.224676
0.225197
0.225379
0.22492
0.223857
0.222137
0.219404
0.215668
0.212401
0.21098
0.206235
0.207491
0.210264
0.21323
0.215877
0.218
0.219456
0.2203
0.220743
0.221024
0.221378
0.221578
0.22133
0.220458
0.218834
0.216562
0.213843
0.210865
0.208838
0.208376
0.206033
0.206505
0.207657
0.209016
0.210407
0.211834
0.21318
0.214357
0.21525
0.215874
0.216166
0.216049
0.215493
0.21457
0.213416
0.212123
0.210847
0.209584
0.208801
0.208629
0.204647
0.204874
0.205551
0.206492
0.207538
0.208571
0.209613
0.210608
0.211474
0.21217
0.212558
0.212546
0.212188
0.211556
0.21082
0.209986
0.209118
0.208336
0.207918
0.207845
0.20228
0.202376
0.202699
0.203225
0.203838
0.204607
0.205478
0.206392
0.20729
0.208092
0.208599
0.208714
0.208523
0.208136
0.207663
0.2072
0.20679
0.20643
0.206264
0.206233
0.199239
0.199298
0.19951
0.199873
0.200334
0.200903
0.201584
0.202374
0.203244
0.204128
0.204806
0.205144
0.205216
0.205124
0.204941
0.204717
0.204485
0.204291
0.204206
0.204188
0.19582
0.195857
0.195998
0.196252
0.19661
0.197094
0.197724
0.19851
0.199439
0.200464
0.201353
0.201915
0.202198
0.202298
0.202292
0.202233
0.202153
0.202082
0.202052
0.20204
0.192034
0.192059
0.19217
0.192371
0.192678
0.193121
0.193733
0.194547
0.195576
0.196796
0.197949
0.198772
0.199293
0.1996
0.199764
0.199841
0.199867
0.199872
0.199873
0.199865
0.187894
0.18792
0.18802
0.188211
0.188515
0.188972
0.189631
0.190541
0.191743
0.193233
0.194714
0.19584
0.1966
0.197101
0.197413
0.197599
0.197705
0.197761
0.197783
0.197777
0.183383
0.183405
0.183515
0.183723
0.184058
0.184573
0.185331
0.186405
0.187855
0.189703
0.191586
0.193061
0.194114
0.194819
0.195279
0.195569
0.195744
0.195841
0.195882
0.195876
0.178462
0.178486
0.178614
0.178856
0.179252
0.179866
0.18078
0.18209
0.183882
0.186196
0.188593
0.190508
0.191871
0.192809
0.19343
0.193827
0.194071
0.194209
0.194267
0.194261
0.173042
0.173071
0.173227
0.173524
0.174011
0.174769
0.175903
0.177535
0.179779
0.182694
0.185733
0.188171
0.189926
0.191137
0.191944
0.192463
0.192784
0.192967
0.193044
0.193037
0.167005
0.16704
0.167237
0.167611
0.168224
0.169179
0.170608
0.172667
0.175501
0.179185
0.183031
0.186122
0.188351
0.189892
0.190921
0.191585
0.191996
0.192231
0.192329
0.192321
0.160185
0.160231
0.160483
0.16096
0.161743
0.162961
0.164782
0.167399
0.170996
0.175662
0.180522
0.184423
0.187236
0.189181
0.19048
0.19132
0.19184
0.192137
0.19226
0.19225
0.152361
0.152421
0.152747
0.153364
0.154375
0.155943
0.15828
0.161626
0.166207
0.172122
0.178256
0.183163
0.186696
0.189138
0.190769
0.191823
0.192476
0.192849
0.193004
0.192991
0.143236
0.143316
0.143743
0.144548
0.145865
0.147901
0.150921
0.155222
0.161072
0.168572
0.176297
0.182451
0.186872
0.189925
0.191965
0.193283
0.194099
0.194566
0.194758
0.194742
0.132403
0.132513
0.133076
0.13414
0.135877
0.138548
0.142481
0.148038
0.155525
0.165029
0.174733
0.182423
0.187934
0.19174
0.194283
0.195926
0.196943
0.197523
0.197762
0.197741
0.119295
0.119448
0.120203
0.121638
0.123967
0.127517
0.132686
0.139907
0.14951
0.161536
0.173676
0.183238
0.190081
0.19481
0.197975
0.200023
0.201288
0.202006
0.202301
0.202276
0.10309
0.103302
0.10434
0.106329
0.109529
0.114324
0.121199
0.130647
0.142987
0.158159
0.173263
0.185082
0.193536
0.199396
0.203336
0.205893
0.207472
0.208361
0.208724
0.208693
0.0825616
0.0828651
0.0843491
0.0872139
0.0917282
0.0983379
0.107622
0.120083
0.135946
0.154996
0.173643
0.188137
0.198523
0.205769
0.210684
0.213904
0.215905
0.217026
0.217477
0.217432
0.0558114
0.0562757
0.058544
0.0628891
0.0694832
0.078851
0.0916083
0.108138
0.128473
0.152199
0.174978
0.192571
0.205232
0.214169
0.220331
0.224449
0.227061
0.228543
0.229131
0.22906
0.0195286
0.0203657
0.0243073
0.0314427
0.0415954
0.0553357
0.0731017
0.0950057
0.120846
0.150021
0.177456
0.198516
0.213782
0.224747
0.232508
0.237872
0.241422
0.243514
0.244361
0.244259
-0.0328989
-0.0304586
-0.0221557
-0.00926651
0.00725867
0.0278151
0.0525016
0.0811952
0.113522
0.148782
0.181238
0.206016
0.224136
0.237439
0.247194
0.254283
0.259306
0.262534
0.263968
0.263841
-0.112298
-0.100396
-0.0813642
-0.058136
-0.0319998
-0.00242693
0.0306925
0.0672098
0.106748
0.148664
0.186617
0.215565
0.237038
0.253263
0.265717
0.275424
0.283023
0.288687
0.292007
0.292629
-0.196815
-0.17117
-0.140696
-0.107178
-0.0713006
-0.0326888
0.00882525
0.053233
0.100312
0.149578
0.194028
0.228189
0.253975
0.273987
0.289929
0.302954
0.313787
0.323337
0.33041
0.331329
-0.260248
-0.232404
-0.193956
-0.152199
-0.107891
-0.0610752
-0.0117106
0.0401712
0.0943981
0.150564
0.200948
0.239557
0.268683
0.291285
0.30923
0.323745
0.335617
0.345404
0.351678
0.352642
-0.310789
-0.280899
-0.237981
-0.190648
-0.140204
-0.0868944
-0.0308803
0.027636
0.0883544
0.150769
0.206305
0.248504
0.280001
0.304091
0.322889
0.33783
0.349886
0.359624
0.36593
0.366969
-0.351002
-0.32067
-0.2746
-0.223172
-0.168129
-0.109761
-0.0483572
0.0157758
0.0822253
0.150329
0.210585
0.255924
0.289324
0.314514
0.333879
0.349027
0.36106
0.370505
0.376743
0.377843
-0.384598
-0.354122
-0.30599
-0.251474
-0.192822
-0.130356
-0.0643988
0.00466273
0.0762978
0.149647
0.21426
0.262455
0.297559
0.323681
0.343485
0.358762
0.370748
0.380052
0.386145
0.387254
-0.413683
-0.383229
-0.333629
-0.276773
-0.215202
-0.149315
-0.0794868
-0.00612764
0.0701807
0.14845
0.217316
0.268367
0.305187
0.332267
0.352547
0.368003
0.379987
0.389201
0.395141
0.396253
-0.439784
-0.409284
-0.358567
-0.299886
-0.236008
-0.167323
-0.0941774
-0.0169826
0.0636794
0.146752
0.219927
0.27398
0.312652
0.340797
0.361636
0.377332
0.389362
0.398515
0.404324
0.405431
-0.463791
-0.433194
-0.381622
-0.321459
-0.255673
-0.184638
-0.108639
-0.0280253
0.0567019
0.144481
0.222129
0.279439
0.320199
0.349592
0.371115
0.387139
0.399277
0.408382
0.414055
0.415188
-0.486468
-0.455655
-0.403341
-0.341956
-0.274596
-0.201569
-0.123115
-0.0394599
0.0490638
0.141516
0.223878
0.284797
0.327969
0.358858
0.381232
0.397685
0.409985
0.419117
0.42462
0.425823
-0.508044
-0.476983
-0.424038
-0.361672
-0.293013
-0.218332
-0.137775
-0.0514171
0.0406464
0.137745
0.225089
0.290028
0.336014
0.368709
0.392151
0.409171
0.421712
0.430885
0.436274
0.437492
-0.528822
-0.497421
-0.443904
-0.380763
-0.311013
-0.234984
-0.152677
-0.063969
0.0313555
0.133028
0.22562
0.295037
0.344297
0.37918
0.403967
0.421732
0.434621
0.443887
0.44918
0.450361
-0.548816
-0.517108
-0.463118
-0.399295
-0.328663
-0.251556
-0.167842
-0.0771533
0.0211269
0.127261
0.225325
0.299667
0.352705
0.390219
0.416687
0.435429
0.448814
0.458232
0.463479
0.464533
-0.568033
-0.536085
-0.481693
-0.417251
-0.345953
-0.26803
-0.183241
-0.0909571
0.0099245
0.120351
0.224034
0.30372
0.361036
0.401683
0.430243
0.450254
0.464341
0.474045
0.479242
0.480092
-0.586555
-0.554316
-0.499534
-0.434598
-0.362838
-0.284347
-0.198815
-0.105327
-0.00224923
0.112231
0.221612
0.306965
0.369026
0.413335
0.444505
0.466165
0.48117
0.491278
0.496485
0.497085
-0.604401
-0.571757
-0.516675
-0.451323
-0.379239
-0.300434
-0.21448
-0.1202
-0.0153465
0.102851
0.217941
0.309158
0.376338
0.424869
0.459213
0.483029
0.499229
0.509855
0.515082
0.515425
-0.621303
-0.588359
-0.532965
-0.467375
-0.395096
-0.316196
-0.230143
-0.135472
-0.0293054
0.092242
0.212911
0.310064
0.382591
0.435791
0.473969
0.500579
0.518429
0.529707
0.534823
0.534845
-0.637302
-0.604199
-0.54842
-0.482664
-0.410341
-0.331551
-0.245689
-0.151037
-0.0440366
0.0804326
0.206485
0.309537
0.38735
0.445406
0.48814
0.518489
0.538677
0.55058
0.555271
0.554889
-0.652472
-0.619043
-0.563033
-0.497154
-0.424909
-0.346414
-0.261018
-0.166775
-0.0594258
0.0674955
0.19869
0.307454
0.390275
0.452898
0.500672
0.536169
0.560258
0.573095
0.576076
0.57486
-0.666684
-0.63299
-0.576733
-0.510799
-0.438748
-0.360706
-0.276029
-0.182558
-0.0753476
0.0535416
0.189587
0.303802
0.390987
0.457453
0.51023
0.552147
0.582923
0.599442
0.598812
0.594422
-0.680058
-0.646042
-0.589546
-0.523628
-0.451893
-0.37447
-0.290775
-0.198462
-0.0919117
0.0384368
0.179096
0.298508
0.389451
0.458648
0.515004
0.5635
0.60415
0.632799
0.635189
0.610458
-0.692556
-0.658202
-0.601562
-0.535798
-0.464567
-0.387972
-0.305621
-0.214993
-0.109799
0.021317
0.166484
0.290981
0.385139
0.455327
0.511702
0.563886
0.610788
0.642498
0.63638
0.604872
-0.704121
-0.669483
-0.612634
-0.547116
-0.476517
-0.400912
-0.320308
-0.231798
-0.128664
0.00245662
0.151957
0.281288
0.377847
0.44764
0.496645
0.543721
0.580459
0.591826
0.528047
0.479831
-0.714094
-0.679919
-0.622455
-0.557024
-0.487278
-0.412967
-0.334607
-0.248712
-0.148396
-0.0182715
0.135382
0.27019
0.367558
0.436246
0.472435
0.494007
0.512853
0.472216
0.391895
0.338417
-0.767155
-0.686447
-0.631618
-0.566787
-0.498108
-0.425213
-0.348655
-0.266004
-0.169507
-0.0414051
0.116456
0.256987
0.353242
0.42154
0.433588
0.422015
0.387279
0.315048
0.219757
0.167137
-0.710691
-0.697444
-0.642306
-0.580128
-0.512543
-0.441616
-0.369043
-0.291597
-0.201871
-0.0774735
0.0876856
0.235977
0.325422
0.369615
0.364308
0.21787
0.0790234
-0.0146437
-0.109723
-0.0550991
-0.735781
-0.707727
-0.652757
-0.590849
-0.523892
-0.454515
-0.384007
-0.310845
-0.227905
-0.109701
0.0591295
0.216871
0.302292
0.31235
0.232557
0.0266952
-0.160638
-0.292754
-0.430595
-0.33517
-0.752262
-0.719762
-0.664587
-0.602193
-0.535753
-0.467795
-0.399847
-0.331894
-0.256554
-0.144935
0.0257443
0.193294
0.274521
0.249181
0.0892669
-0.192457
-0.431359
-0.614448
-0.818804
-0.711116
-0.767018
-0.732064
-0.675955
-0.612891
-0.546888
-0.480333
-0.415437
-0.353028
-0.286373
-0.18388
-0.00800418
0.172957
0.247912
0.175002
-0.0814503
-0.423923
-0.741885
-1.01613
-1.32012
-1.27187
-0.779472
-0.743801
-0.686888
-0.623335
-0.55776
-0.492696
-0.431123
-0.375059
-0.318935
-0.230193
-0.0542079
0.1466
0.220159
0.0888106
-0.250843
-0.648233
-1.04765
-1.41992
-1.84499
-2.20485
-0.790625
-0.754867
-0.697465
-0.633631
-0.568422
-0.504828
-0.446701
-0.397648
-0.35412
-0.283534
-0.109548
0.112962
0.187367
-0.00415201
-0.410475
-0.836587
-1.27953
-1.6561
-1.83652
-2.14199
-0.801004
-0.765149
-0.707581
-0.643619
-0.578808
-0.516691
-0.46222
-0.420962
-0.392779
-0.348184
-0.186884
0.0629494
0.139799
-0.133819
-0.562661
-0.983643
-1.39086
-1.64676
-1.70213
-1.75664
-0.810849
-0.774801
-0.717099
-0.653046
-0.588624
-0.527974
-0.477375
-0.444986
-0.436004
-0.429562
-0.303239
-0.0315264
0.0442612
-0.303362
-0.708397
-1.08782
-1.49023
-1.69361
-1.6652
-1.67896
-0.820161
-0.783784
-0.725811
-0.661606
-0.59744
-0.538153
-0.491444
-0.468842
-0.483518
-0.535079
-0.488308
-0.209759
-0.131757
-0.509379
-0.861805
-1.15867
-1.55642
-1.80507
-1.68097
-1.63952
-0.828877
-0.791898
-0.733477
-0.668949
-0.604811
-0.546549
-0.503451
-0.491218
-0.533946
-0.674488
-0.784051
-0.520608
-0.426136
-0.766333
-1.0294
-1.1538
-1.29987
-1.47167
-1.45831
-1.43611
-0.836763
-0.798956
-0.739844
-0.674717
-0.610229
-0.552412
-0.512165
-0.510228
-0.583152
-0.850701
-1.2278
-0.995175
-0.826513
-1.08097
-1.24023
-1.11265
-0.823356
-1.0725
-1.32333
-1.38858
-0.843443
-0.804672
-0.744619
-0.678554
-0.613171
-0.554974
-0.516086
-0.522037
-0.630111
-1.04136
-1.79243
-1.59609
-1.29257
-1.4555
-1.71714
-1.73483
-1.65112
-1.70249
-1.75715
-1.80054
-0.848894
-0.808896
-0.747532
-0.680138
-0.613212
-0.553454
-0.513782
-0.522687
-0.658186
-1.19159
-2.30357
-2.12247
-1.70642
-1.8858
-2.53971
-3.24622
-3.37866
-3.15556
-2.86907
-2.74415
-0.852943
-0.811472
-0.748464
-0.679267
-0.610048
-0.547393
-0.504085
-0.509445
-0.647064
-1.23802
-2.51393
-2.30879
-1.77579
-2.0282
-2.97062
-4.265
-4.47601
-3.89618
-3.37663
-3.18612
-0.855471
-0.812396
-0.747435
-0.675956
-0.60368
-0.536705
-0.486775
-0.480576
-0.594902
-1.11619
-2.23755
-1.89915
-1.29547
-1.34873
-1.94463
-2.7261
-2.82833
-2.38167
-2.00123
-1.85172
-0.856562
-0.81186
-0.744629
-0.670454
-0.594454
-0.521873
-0.462463
-0.43737
-0.502695
-0.843394
-1.50319
-1.03764
-0.380135
-0.0985352
-0.0695693
-0.154728
-0.160991
-0.0224027
0.0560225
0.0802817
-0.856644
-0.810235
-0.740423
-0.663212
-0.582932
-0.503899
-0.433225
-0.384448
-0.38718
-0.510284
-0.647575
-0.193288
0.332866
0.648783
0.85032
0.988113
1.08601
1.13394
1.1486
1.14964
-0.855924
-0.807688
-0.73518
-0.654626
-0.569944
-0.484152
-0.401626
-0.328764
-0.273695
-0.231084
-0.0796409
0.313903
0.693406
0.98021
1.16948
1.3026
1.39059
1.43831
1.45759
1.4597
-0.853512
-0.803828
-0.728716
-0.644875
-0.555896
-0.46375
-0.370397
-0.276883
-0.178996
-0.0467937
0.196604
0.523884
0.80705
1.03526
1.19389
1.30397
1.37946
1.42754
1.45278
1.45762
-0.84672
-0.797046
-0.720167
-0.633409
-0.540726
-0.443268
-0.341225
-0.232582
-0.10818
0.0628898
0.311822
0.583266
0.809352
0.987056
1.11628
1.20899
1.27551
1.32178
1.34919
1.35496
-0.834769
-0.785163
-0.707451
-0.618544
-0.523293
-0.422152
-0.314404
-0.19662
-0.0589877
0.12299
0.353013
0.578691
0.764126
0.908215
1.01616
1.09636
1.15614
1.19981
1.22383
1.23027
-0.811141
-0.763313
-0.687354
-0.597681
-0.501373
-0.398989
-0.288959
-0.167591
-0.0263387
0.151888
0.357447
0.546871
0.70101
0.821515
0.91403
0.984749
1.03895
1.07942
1.1023
1.10899
-0.770011
-0.726335
-0.65508
-0.566764
-0.472499
-0.371653
-0.262924
-0.143191
-0.00548003
0.160815
0.341244
0.500999
0.629788
0.731445
0.811201
0.87362
0.922544
0.959053
0.980655
0.98793
-0.708752
-0.672133
-0.604055
-0.52181
-0.432738
-0.337505
-0.234674
-0.121353
0.0071271
0.157705
0.313404
0.446114
0.552389
0.636717
0.70382
0.757511
0.799956
0.832517
0.854157
0.861179
-0.615077
-0.589982
-0.53054
-0.458149
-0.379208
-0.294062
-0.201353
-0.0991081
0.0155687
0.146388
0.276987
0.385115
0.469698
0.535965
0.588168
0.629918
0.663598
0.689364
0.705525
0.710127
-0.478167
-0.465675
-0.42545
-0.370894
-0.309184
-0.240269
-0.16296
-0.0760677
0.0223964
0.134501
0.245183
0.335642
0.405147
0.458268
0.498763
0.529453
0.552525
0.570506
0.58288
0.58597
-0.330496
-0.326018
-0.3035
-0.270058
-0.22883
-0.178975
-0.119929
-0.050359
0.0308464
0.124645
0.217149
0.292033
0.348717
0.390989
0.421863
0.443964
0.459641
0.47003
0.475618
0.476741
-0.202523
-0.200343
-0.190509
-0.173223
-0.149093
-0.116923
-0.0752349
-0.0227862
0.0413928
0.117611
0.193575
0.254751
0.300235
0.333076
0.3563
0.372201
0.382344
0.388367
0.391308
0.391689
-0.104589
-0.104741
-0.101978
-0.0947615
-0.081996
-0.0623677
-0.0343018
0.00378968
0.053013
0.113503
0.174658
0.223762
0.259845
0.285466
0.30279
0.313854
0.320633
0.324387
0.325884
0.325924
-0.0390483
-0.039906
-0.0409311
-0.0391631
-0.0330969
-0.0210986
-0.00201701
0.0255346
0.0627684
0.110032
0.158603
0.197602
0.225842
0.245322
0.258255
0.266485
0.271211
0.273465
0.274206
0.274167
0.00070529
-5.52166e-05
-0.00139819
-0.00135576
0.00150054
0.00856792
0.0215366
0.0415801
0.0697331
0.106339
0.144399
0.17496
0.197023
0.21225
0.222172
0.22814
0.231396
0.232874
0.233304
0.233257
0.0244358
0.0239945
0.0231683
0.0232078
0.0251341
0.0298437
0.0390934
0.0534935
0.0745948
0.1028
0.132551
0.156508
0.173659
0.185229
0.192609
0.197045
0.19944
0.200476
0.200767
0.200731
0.0396463
0.0394099
0.038958
0.0390728
0.0404959
0.0440377
0.0507088
0.0615106
0.0774303
0.0990238
0.122025
0.140556
0.153776
0.162704
0.168397
0.171769
0.173541
0.174291
0.174497
0.174468
0.0494478
0.0493243
0.049092
0.0492821
0.0504076
0.0530368
0.0579774
0.0660774
0.0781792
0.0947546
0.112534
0.126901
0.137143
0.144009
0.148342
0.150891
0.152229
0.15279
0.152945
0.152921
0.0553924
0.0553301
0.0552281
0.0554535
0.0563789
0.0584272
0.0622177
0.0683545
0.077563
0.090272
0.103973
0.115051
0.122927
0.128193
0.131509
0.133465
0.134474
0.13489
0.135001
0.13498
0.0585196
0.0584875
0.0584574
0.0586853
0.0594407
0.0610431
0.0639247
0.0686439
0.0756984
0.0854517
0.095997
0.104534
0.110602
0.114654
0.117201
0.118683
0.119449
0.119761
0.119842
0.119823
0.0595703
0.0595537
0.0595608
0.0597739
0.0603902
0.0616455
0.0638635
0.0675171
0.0729233
0.0804156
0.0885301
0.0951001
0.0997651
0.102873
0.104832
0.10596
0.106539
0.10677
0.106827
0.10681
0.0590617
0.0590524
0.0590728
0.0592573
0.059752
0.0607365
0.0624593
0.0652698
0.0694315
0.075191
0.0814304
0.0864821
0.0900656
0.0924518
0.093954
0.0948144
0.095252
0.0954228
0.0954622
0.0954478
0.057357
0.0573512
0.0573737
0.0575263
0.0579189
0.0586887
0.060024
0.0621821
0.065392
0.0698219
0.0746197
0.0785015
0.0812516
0.0830668
0.084243
0.0848889
0.0852172
0.0853426
0.0853695
0.0853573
0.0547265
0.0547225
0.0547426
0.0548645
0.0551716
0.0557678
0.0567879
0.0584946
0.0609401
0.064345
0.0680314
0.0710127
0.0731263
0.0745365
0.075405
0.0759012
0.0761493
0.0762414
0.0762594
0.0762492
0.0513791
0.0513761
0.0513922
0.0514874
0.0517258
0.0521874
0.0529809
0.0542502
0.0561646
0.0587854
0.0616176
0.0639044
0.0655237
0.0666091
0.0672665
0.0676414
0.0678275
0.0678948
0.0679066
0.0678981
0.0474763
0.0474738
0.0474859
0.0475591
0.0477426
0.0480979
0.0487078
0.0496781
0.0511468
0.0531646
0.055337
0.0570896
0.0583361
0.0591568
0.0596562
0.0599398
0.060079
0.0601275
0.0601349
0.0601279
0.0431445
0.0431422
0.0431508
0.0432061
0.0433462
0.0436177
0.0440841
0.0448212
0.0459583
0.0474991
0.0491615
0.0505024
0.0514597
0.0520752
0.0524541
0.0526677
0.0527713
0.0528063
0.0528107
0.0528049
0.0384821
0.0384799
0.0384856
0.038527
0.0386331
0.0388395
0.0391935
0.0397549
0.0405948
0.0417995
0.0430662
0.0440971
0.0448147
0.0452795
0.0455645
0.045724
0.0458002
0.0458246
0.0458268
0.0458221
0.0335674
0.0335653
0.0335687
0.0335987
0.0336774
0.0338316
0.0340978
0.0345218
0.0351544
0.0360699
0.0370286
0.0378148
0.0383483
0.0386974
0.038911
0.03903
0.0390858
0.0391025
0.039103
0.0390993
0.0284612
0.0284591
0.0284603
0.0284811
0.0285383
0.0286519
0.0288492
0.029165
0.029635
0.0303237
0.0310423
0.0316361
0.0320263
0.0322839
0.0324407
0.0325271
0.0325669
0.0325779
0.0325775
0.0325743
0.0232101
0.0232082
0.0232077
0.0232213
0.0232611
0.0233422
0.0234851
0.0237131
0.0240749
0.0245663
0.025087
0.0255123
0.0258098
0.0259962
0.0261086
0.0261691
0.0261955
0.0262013
0.0261997
0.0261972
0.0178512
0.0178491
0.0178471
0.0178547
0.0178808
0.0179367
0.018036
0.0182003
0.018451
0.0187951
0.0191624
0.019459
0.0196652
0.0197956
0.0198728
0.0199138
0.0199307
0.0199331
0.0199309
0.019929
0.0124137
0.0124118
0.0124087
0.0124117
0.0124268
0.0124605
0.0125269
0.0126327
0.0127938
0.0130164
0.0132545
0.0134453
0.0135776
0.0136624
0.0137119
0.0137369
0.0137458
0.0137454
0.0137427
0.0137412
0.0069211
0.00691956
0.00691625
0.00691578
0.00692239
0.0069401
0.00697401
0.00703014
0.00711504
0.00723281
0.00736008
0.00746274
0.00753378
0.00757859
0.00760357
0.00761478
0.00761678
0.00761353
0.0076105
0.00760943
0.00139124
0.00139097
0.00138799
0.00138258
0.00138089
0.00138252
0.00138771
0.00139712
0.00141195
0.00143315
0.00145945
0.00148418
0.00150209
0.00151385
0.00152086
0.00152442
0.00152467
0.00152156
0.00151622
0.00151526
-0.92857
-0.642277
-0.33437
-0.0883644
0.110114
0.271726
0.410797
0.529965
0.588284
0.562775
-0.426013
-0.240115
-0.0509351
0.110871
0.248634
0.365058
0.460842
0.530146
0.565801
0.574011
-0.0955581
0.023629
0.147727
0.258346
0.354096
0.43462
0.49868
0.544926
0.575664
0.590493
0.126118
0.206654
0.292801
0.370359
0.437949
0.494964
0.541029
0.576241
0.602784
0.618989
0.288553
0.346036
0.406234
0.462865
0.512839
0.555735
0.591415
0.620074
0.642651
0.659161
0.414618
0.456578
0.503097
0.547296
0.586876
0.621671
0.651441
0.675715
0.694941
0.711523
0.52069
0.554584
0.594369
0.631567
0.66585
0.696445
0.722828
0.744265
0.760664
0.777369
0.617363
0.649818
0.687419
0.722594
0.754903
0.783654
0.808105
0.827702
0.841668
0.858524
0.717626
0.752861
0.791859
0.827321
0.858914
0.886444
0.909432
0.927364
0.939682
0.957042
0.835993
0.874824
0.914837
0.950319
0.980649
1.00616
1.02715
1.04348
1.05524
1.07333
0.983021
1.02212
1.05887
1.09024
1.11653
1.1391
1.15854
1.17436
1.18701
1.20507
1.15894
1.19112
1.21765
1.24038
1.26071
1.27975
1.29772
1.31444
1.32993
1.34807
1.34835
1.36576
1.38103
1.39737
1.4134
1.42815
1.44156
1.45564
1.47334
1.49353
1.53036
1.54
1.5517
1.5627
1.57216
1.58182
1.59263
1.60407
1.61552
1.63092
1.73771
1.7414
1.72661
1.71205
1.70592
1.71163
1.73024
1.76052
1.79258
1.81921
2.04438
1.90959
1.83299
1.79045
1.77294
1.77708
1.80436
1.86083
1.96366
2.18809
0.297252
0.295254
0.290849
0.28247
0.270575
0.258867
0.2491
0.241621
0.236327
0.233219
0.232717
0.235001
0.239516
0.24611
0.254872
0.265828
0.278013
0.288685
0.294642
0.297514
0.221057
0.226997
0.233694
0.238742
0.241745
0.241954
0.239724
0.236339
0.233106
0.230887
0.230533
0.232372
0.235498
0.239156
0.242301
0.243515
0.241949
0.237834
0.232108
0.225245
0.212231
0.214553
0.218486
0.222195
0.224827
0.226707
0.22782
0.227952
0.227333
0.226693
0.226718
0.227534
0.228625
0.229197
0.228739
0.227344
0.225191
0.222107
0.218132
0.214857
0.206972
0.207819
0.210597
0.214323
0.217435
0.219639
0.221085
0.221957
0.222375
0.222514
0.222749
0.223158
0.223315
0.222967
0.222031
0.220369
0.21783
0.214391
0.210906
0.209184
0.206226
0.206494
0.207785
0.209815
0.211834
0.213859
0.215651
0.217004
0.217907
0.218498
0.218897
0.219058
0.218826
0.21807
0.216727
0.214929
0.213024
0.211075
0.209317
0.208635
0.205466
0.205575
0.20617
0.207211
0.208351
0.209445
0.210526
0.211642
0.212618
0.213386
0.213893
0.214038
0.213773
0.213164
0.212362
0.211576
0.210521
0.209496
0.208669
0.208382
0.203584
0.203628
0.203924
0.204533
0.205246
0.206191
0.207275
0.208222
0.209154
0.209992
0.210612
0.210845
0.210704
0.210306
0.20968
0.208841
0.208273
0.207684
0.207271
0.207149
0.20081
0.20083
0.200984
0.201336
0.201804
0.202371
0.203047
0.20384
0.204701
0.205568
0.206306
0.206717
0.20679
0.206641
0.206388
0.206096
0.205787
0.205485
0.205291
0.20524
0.197579
0.197591
0.197694
0.197936
0.198292
0.198759
0.199351
0.200074
0.200918
0.201852
0.202745
0.203364
0.203661
0.203738
0.203679
0.203552
0.203399
0.20325
0.203157
0.203131
0.193968
0.193973
0.194049
0.19422
0.19449
0.194875
0.195405
0.196105
0.196989
0.19804
0.199141
0.200009
0.200542
0.200834
0.200973
0.201017
0.201011
0.200982
0.200962
0.200954
0.190009
0.190013
0.190075
0.190221
0.190465
0.190832
0.191364
0.192101
0.19308
0.194312
0.195683
0.196846
0.197643
0.198152
0.198462
0.198642
0.198739
0.198785
0.198806
0.19881
0.185686
0.185685
0.185751
0.1859
0.186151
0.186543
0.187126
0.187961
0.189107
0.190597
0.192316
0.193839
0.194913
0.19566
0.196144
0.196448
0.196633
0.196739
0.196792
0.196804
0.180979
0.180977
0.181048
0.181215
0.181502
0.181954
0.182638
0.183634
0.185022
0.186861
0.189027
0.190981
0.19242
0.193409
0.194075
0.194506
0.194775
0.194934
0.195015
0.195035
0.175821
0.175818
0.175903
0.176103
0.176448
0.176996
0.177831
0.179055
0.180776
0.183077
0.185812
0.188308
0.190151
0.191443
0.192318
0.19289
0.19325
0.193465
0.193576
0.193604
0.17011
0.170105
0.170212
0.170461
0.17089
0.171574
0.172618
0.174152
0.176313
0.179212
0.18267
0.185838
0.188185
0.189837
0.190959
0.191695
0.192161
0.192441
0.192584
0.19262
0.163706
0.1637
0.163835
0.164152
0.164697
0.165565
0.166889
0.168832
0.17157
0.175239
0.179614
0.18362
0.186587
0.188679
0.190101
0.191035
0.191627
0.191983
0.192166
0.192212
0.156419
0.15641
0.156586
0.156994
0.157695
0.158808
0.160502
0.162983
0.16647
0.171128
0.17666
0.181713
0.185449
0.188082
0.189871
0.191047
0.191792
0.192241
0.192472
0.192529
0.147989
0.147978
0.148209
0.148742
0.149653
0.151093
0.153278
0.156467
0.160926
0.166848
0.173842
0.180199
0.184885
0.188184
0.190425
0.191897
0.192831
0.193394
0.193683
0.193754
0.138064
0.138051
0.138359
0.139065
0.140262
0.142143
0.144984
0.149107
0.154831
0.162373
0.171203
0.179176
0.185034
0.189153
0.191949
0.193788
0.194955
0.19566
0.196021
0.196109
0.126155
0.12614
0.126561
0.127513
0.129104
0.131586
0.135316
0.140687
0.148068
0.157679
0.168803
0.178768
0.186062
0.191186
0.194666
0.196958
0.198418
0.199302
0.199757
0.199865
0.111581
0.111568
0.112163
0.113469
0.115615
0.118938
0.123898
0.130957
0.140516
0.152762
0.166728
0.179119
0.188157
0.194509
0.198833
0.20169
0.203519
0.204638
0.205217
0.205351
0.0933575
0.0933589
0.0942339
0.0960719
0.0990301
0.103581
0.110294
0.119669
0.132093
0.147669
0.165103
0.1804
0.19153
0.199375
0.204743
0.20831
0.210611
0.212038
0.212787
0.21296
0.0699392
0.0699832
0.0713451
0.0740378
0.0782893
0.0847509
0.0940428
0.106628
0.122805
0.142523
0.164099
0.182801
0.196391
0.206031
0.212697
0.217176
0.220095
0.221927
0.222909
0.223145
0.0387507
0.0389202
0.0411941
0.045433
0.0519511
0.0615357
0.0746889
0.0917278
0.112763
0.137523
0.163914
0.186491
0.202901
0.214665
0.222947
0.228635
0.232421
0.234836
0.236153
0.23648
-0.00481329
-0.00426902
0.000111332
0.00758356
0.0183687
0.0331322
0.052023
0.0751098
0.102238
0.132928
0.164724
0.191557
0.211091
0.225297
0.235563
0.242879
0.24797
0.251388
0.253327
0.253768
-0.069079
-0.0667532
-0.0566251
-0.0420748
-0.0232535
-0.000252841
0.0267069
0.0574967
0.0918134
0.129115
0.166694
0.197988
0.220817
0.237684
0.250242
0.259619
0.266581
0.271663
0.274808
0.27525
-0.146465
-0.142146
-0.123382
-0.0971727
-0.0677027
-0.0351477
0.000574373
0.039491
0.0814506
0.126035
0.170363
0.207269
0.234574
0.255294
0.27134
0.283971
0.294096
0.30213
0.306128
0.307898
-0.225467
-0.213993
-0.185841
-0.149642
-0.110602
-0.0689657
-0.0247187
0.0222182
0.0717534
0.123585
0.174683
0.217196
0.248822
0.273091
0.292217
0.307591
0.320088
0.330238
0.336831
0.339931
-0.283118
-0.270615
-0.237587
-0.194959
-0.148758
-0.0997827
-0.0481869
0.00592982
0.0624304
0.120996
0.178265
0.225568
0.260524
0.287132
0.307839
0.3242
0.33724
0.347604
0.354449
0.357622
-0.328956
-0.316165
-0.27979
-0.232701
-0.181474
-0.126988
-0.0695181
-0.00932254
0.0532942
0.117879
0.180652
0.232103
0.269717
0.297955
0.31961
0.336482
0.349742
0.360151
0.367116
0.370087
-0.366034
-0.353447
-0.315121
-0.264762
-0.2097
-0.150919
-0.0887267
-0.0234382
0.0445425
0.114631
0.182531
0.237761
0.277681
0.30726
0.329624
0.346803
0.360133
0.370472
0.377438
0.380357
-0.39761
-0.385246
-0.345607
-0.292877
-0.234817
-0.172528
-0.106351
-0.0366469
0.0361073
0.111202
0.183876
0.24269
0.284815
0.315661
0.338689
0.356167
0.369589
0.379908
0.38693
0.389795
-0.42539
-0.41318
-0.372624
-0.318082
-0.257689
-0.192551
-0.12303
-0.0495259
0.0275057
0.107302
0.184676
0.24714
0.291553
0.323746
0.347506
0.365332
0.378882
0.389203
0.396276
0.399093
-0.450597
-0.438463
-0.397201
-0.341231
-0.278975
-0.211525
-0.139188
-0.0623242
0.018622
0.102914
0.184991
0.251274
0.298178
0.331886
0.356499
0.374761
0.388499
0.398844
0.405991
0.408754
-0.47406
-0.461943
-0.420068
-0.362931
-0.299128
-0.229738
-0.15501
-0.0752222
0.0092841
0.0978789
0.184745
0.255133
0.304835
0.340308
0.365953
0.384768
0.398764
0.4092
0.416311
0.419028
-0.496263
-0.484138
-0.441706
-0.383601
-0.318535
-0.247524
-0.170769
-0.0884275
-0.000671252
0.0920751
0.183847
0.258694
0.311578
0.349139
0.376049
0.395565
0.409905
0.420481
0.427624
0.430294
-0.517562
-0.505325
-0.462346
-0.403464
-0.337367
-0.265012
-0.18656
-0.10203
-0.0113459
0.0853801
0.182173
0.261863
0.318376
0.35842
0.386889
0.4073
0.422107
0.432873
0.440055
0.442697
-0.538085
-0.52571
-0.482215
-0.422659
-0.355697
-0.282269
-0.202434
-0.116067
-0.022806
0.0776929
0.179592
0.264495
0.325126
0.368108
0.3985
0.420059
0.435485
0.446543
0.453771
0.456381
-0.557794
-0.545236
-0.501368
-0.441266
-0.373558
-0.299295
-0.218392
-0.130547
-0.0350699
0.0689247
0.175965
0.266426
0.331654
0.378079
0.410829
0.433864
0.450108
0.461558
0.468876
0.471493
-0.576812
-0.564038
-0.51975
-0.459202
-0.390939
-0.316056
-0.23438
-0.14543
-0.0481281
0.0590499
0.171165
0.267461
0.337728
0.388124
0.423734
0.448637
0.465979
0.47797
0.485446
0.488007
-0.595054
-0.582148
-0.537467
-0.476455
-0.407795
-0.33249
-0.250327
-0.160641
-0.0619413
0.0480526
0.165098
0.267401
0.343078
0.397927
0.436936
0.464183
0.482999
0.495791
0.50354
0.505989
-0.61252
-0.599402
-0.554432
-0.492986
-0.424062
-0.348526
-0.26615
-0.176089
-0.0764318
0.0359496
0.157718
0.266086
0.347418
0.407056
0.450046
0.48029
0.500992
0.514794
0.522847
0.525152
-0.628988
-0.615771
-0.57048
-0.508742
-0.439654
-0.364072
-0.281752
-0.191672
-0.0915047
0.0228039
0.149012
0.263416
0.350407
0.415052
0.462526
0.496594
0.519912
0.534976
0.543187
0.545193
-0.644637
-0.631297
-0.585632
-0.523698
-0.454536
-0.379068
-0.297027
-0.20728
-0.107049
0.00870865
0.138998
0.259296
0.351778
0.421334
0.47366
0.51243
0.539591
0.556481
0.564359
0.565538
-0.659358
-0.645878
-0.5999
-0.537787
-0.46864
-0.393434
-0.311886
-0.222786
-0.122932
-0.00625545
0.127765
0.253711
0.351312
0.425416
0.482512
0.52668
0.55952
0.580202
0.587201
0.585353
-0.673223
-0.659565
-0.613227
-0.550979
-0.48194
-0.407115
-0.326247
-0.23809
-0.139028
-0.0219353
0.11542
0.246725
0.349047
0.426752
0.487484
0.537119
0.577612
0.606696
0.6169
0.606249
-0.686173
-0.672384
-0.625702
-0.563391
-0.494601
-0.420345
-0.340411
-0.253608
-0.155903
-0.0390416
0.101238
0.237859
0.344557
0.424963
0.487269
0.540959
0.589189
0.630576
0.647726
0.645389
-0.698235
-0.684175
-0.637307
-0.575006
-0.506629
-0.433134
-0.354349
-0.269324
-0.173605
-0.0577349
0.0849799