/*--------------------------------*- C++ -*----------------------------------*\
  =========                 |
  \\      /  F ield         | OpenFOAM: The Open Source CFD Toolbox
   \\    /   O peration     | Website:  https://openfoam.org
    \\  /    A nd           | Version:  10
     \\/     M anipulation  |
\*---------------------------------------------------------------------------*/
FoamFile
{
    format      ascii;
    class       surfaceScalarField;
    location    "8";
    object      phi;
}
// * * * * * * * * * * * * * * * * * * * * * * * * * * * * * * * * * * * * * //

dimensions      [0 3 -1 0 0 0 0];

internalField   nonuniform List<scalar> 
17370
(
-0.091546
0.0960207
0.284536
-0.0776116
0.0593958
0.364991
-0.0429037
0.0313513
0.427721
-0.0219589
0.0158785
0.505332
-0.0112982
0.00844197
0.602258
-0.00624708
0.00477012
0.720534
-0.00353949
0.00267903
0.863767
-0.00194357
0.00140867
1.03599
-0.000940964
0.000594652
1.24285
-0.000274327
-3.61369e-05
1.4915
0.000339391
-0.00066909
1.49152
0.0010184
-0.00148771
1.24316
0.00202167
-0.00275456
1.03637
0.00361292
-0.00484018
0.864134
0.00631119
-0.00849585
0.721242
0.0113418
-0.0159121
0.603785
0.0219852
-0.031372
0.508826
0.0429207
-0.0594093
0.432657
0.0776221
-0.0960266
0.36518
0.0915532
0.197458
-0.127328
0.0883963
0.0389316
-0.364645
0.354343
-0.0711336
0.0814364
-0.44678
0.454407
-0.0790538
0.071427
-0.521263
0.529343
-0.0636568
0.0555766
-0.612965
0.620931
-0.0481225
0.0401561
-0.726827
0.733582
-0.0332826
0.0265272
-0.867319
0.872077
-0.021273
0.0165156
-1.03838
1.04159
-0.0129259
0.00971609
-1.2446
1.24688
-0.00726463
0.00498751
-1.49278
1.49458
-0.00316586
0.00136155
-1.49263
1.49423
0.000225424
-0.00183127
-1.24404
1.24583
0.00361692
-0.00540849
-1.03749
1.0399
0.00764712
-0.0100606
-0.866012
0.869566
0.0132319
-0.0167866
-0.724318
0.729553
0.0215153
-0.0267495
-0.608886
0.615749
0.0334931
-0.0403557
-0.515274
0.52271
0.0483056
-0.0557417
-0.440082
0.447831
0.0637996
-0.0715488
-0.374965
0.377326
0.079153
-0.0815138
-0.257239
0.225005
0.0711849
-0.0389512
-0.069528
0.0604382
0.00908983
-0.0492729
0.0553642
-0.375131
0.36904
-0.0540502
0.049992
-0.453734
0.457792
-0.0447427
0.0404847
-0.527638
0.531896
-0.0362495
0.0325662
-0.620843
0.624527
-0.028653
0.0249654
-0.734576
0.738264
-0.0209523
0.0173988
-0.873673
0.877227
-0.0137846
0.0107584
-1.04299
1.04602
-0.00772726
0.00510595
-1.24817
1.25079
-0.00228507
-0.000404476
-1.49628
1.49897
0.00307412
-0.0058564
-1.49681
1.49959
0.00844227
-0.0114319
-1.24964
1.25263
0.0144207
-0.0179896
-1.04532
1.04889
0.021503
-0.0254638
-0.876984
0.880945
0.029102
-0.0329554
-0.739073
0.742926
0.0365914
-0.0407798
-0.626147
0.630336
0.045004
-0.0502263
-0.534941
0.540164
0.0542575
-0.0555381
-0.458208
0.459488
0.049403
-0.0303251
-0.337805
0.318727
0.00911161
-0.069468
0.0603564
-0.0552013
0.0517907
0.00341057
-0.0282119
0.0372418
-0.360713
0.351684
-0.0402681
0.0394831
-0.460051
0.460836
-0.0364986
0.0334452
-0.535789
0.538842
-0.0301287
0.0272508
-0.627854
0.630732
-0.0241827
0.021574
-0.741131
0.74374
-0.0188018
0.0163128
-0.880026
0.882515
-0.0135299
0.0109467
-1.04877
1.05135
-0.00805606
0.00537794
-1.25348
1.25616
-0.00233805
-0.000611945
-1.50197
1.50492
0.00354139
-0.00653709
-1.5026
1.50559
0.00916521
-0.0119949
-1.25554
1.25837
0.0145117
-0.0172087
-1.05188
1.05457
0.0196172
-0.0223089
-0.88394
0.886632
0.0248582
-0.027861
-0.746194
0.749197
0.0306555
-0.0339028
-0.634314
0.637561
0.0369021
-0.0398263
-0.544557
0.547481
0.0405518
-0.0374526
-0.458426
0.455327
0.028352
-0.0135525
-0.301098
0.286298
0.00343306
-0.0550953
0.0516622
-0.0497813
0.0488892
0.000892128
-0.0114601
0.0183749
-0.343316
0.336401
-0.0232965
0.0252997
-0.460148
0.458145
-0.0258887
0.0256036
-0.540548
0.540833
-0.025018
0.0240681
-0.632649
0.633599
-0.0226995
0.0211238
-0.745958
0.747534
-0.0190651
0.0169175
-0.884896
0.887043
-0.0143375
0.0117854
-1.0539
1.05645
-0.00880165
0.00589272
-1.25889
1.2618
-0.00251552
-0.000771845
-1.5079
1.51119
0.0040411
-0.00736767
-1.50867
1.512
0.0102051
-0.0130849
-1.26119
1.26407
0.0155374
-0.0180134
-1.05719
1.05966
0.0200713
-0.0220263
-0.889078
0.891033
0.023532
-0.024886
-0.751379
0.752733
0.0257314
-0.0261981
-0.639493
0.63996
0.0264054
-0.0257344
-0.548591
0.54792
0.0236588
-0.0186508
-0.450905
0.445897
0.0116501
-0.0043206
-0.275294
0.267964
0.000925803
-0.049627
0.0487012
-0.0485596
0.0483895
0.000170107
-0.00453119
0.00908283
-0.330844
0.326292
-0.0142225
0.0179759
-0.455152
0.451399
-0.0209016
0.0223376
-0.540164
0.538728
-0.0229277
0.0229746
-0.633802
0.633755
-0.0224098
0.0213796
-0.74872
0.74975
-0.0197566
0.0178799
-0.88897
0.890846
-0.0154053
0.0128066
-1.05901
1.0616
-0.00959259
0.00637055
-1.26489
1.26812
-0.00256596
-0.00114651
-1.51472
1.51843
0.00484238
-0.00856932
-1.51556
1.51928
0.0116667
-0.0147239
-1.26704
1.2701
0.0171852
-0.0195027
-1.062
1.06432
0.0212378
-0.0227191
-0.892616
0.894098
0.0236283
-0.0240256
-0.753416
0.753813
0.0237922
-0.0231091
-0.639615
0.638932
0.0215697
-0.0185357
-0.545924
0.54289
0.0146816
-0.00942321
-0.44068
0.435422
0.00475961
-0.00138796
-0.263148
0.259777
0.00020737
-0.048335
0.0481277
-0.0483005
0.0482881
1.24132e-05
-0.00196308
0.00482432
-0.322601
0.31974
-0.00917275
0.0133031
-0.447214
0.443084
-0.0171952
0.0198383
-0.536522
0.533879
-0.0215842
0.022147
-0.633618
0.633056
-0.0219432
0.0212018
-0.750647
0.751388
-0.0197587
0.0179546
-0.892735
0.894539
-0.0155012
0.0128827
-1.06426
1.06688
-0.00963777
0.00635133
-1.27141
1.2747
-0.00236082
-0.00162429
-1.52232
1.52631
0.00556512
-0.00943885
-1.52313
1.527
0.0125956
-0.0156572
-1.2732
1.27626
0.0180607
-0.0202741
-1.06664
1.06886
0.0218397
-0.0230084
-0.895466
0.896634
0.0235306
-0.0235883
-0.753976
0.754033
0.0228908
-0.0209557
-0.637725
0.63579
0.018149
-0.0140824
-0.539123
0.535057
0.0097955
-0.00527705
-0.430364
0.425846
0.00226442
-0.000564956
-0.257361
0.255661
6.0707e-05
-0.0479967
0.047936
-0.048303
0.0483125
-9.43348e-06
-0.000862549
0.0023885
-0.317616
0.31609
-0.00509832
0.00804374
-0.439443
0.436498
-0.0111475
0.0135155
-0.531242
0.528874
-0.015362
0.0164102
-0.632082
0.631034
-0.016841
0.016644
-0.751889
0.752086
-0.0158559
0.0146467
-0.896107
0.897316
-0.0128111
0.0107108
-1.06929
1.0714
-0.007977
0.00510756
-1.27784
1.28071
-0.00152253
-0.00210136
-1.5302
1.53383
0.00566811
-0.00910742
-1.53074
1.53418
0.011835
-0.0143706
-1.27913
1.28167
0.0162181
-0.0177464
-1.07081
1.07234
0.0186835
-0.0191922
-0.897566
0.898074
0.0191376
-0.0184104
-0.753606
0.752878
0.0170929
-0.0149719
-0.633592
0.631471
0.0123613
-0.00901048
-0.531195
0.527844
0.00585419
-0.00292686
-0.422099
0.419172
0.00121583
-0.000327444
-0.254453
0.253564
4.9371e-05
-0.0478966
0.0478472
-0.0483226
0.048348
-2.53766e-05
-0.000298373
0.00100059
-0.315033
0.31433
-0.00236524
0.00398275
-0.434259
0.432641
-0.00585659
0.00742446
-0.526887
0.525319
-0.0088259
0.00976746
-0.629996
0.629054
-0.0103832
0.010553
-0.752054
0.751884
-0.0102924
0.00965036
-0.89822
0.898862
-0.00850155
0.00706041
-1.07316
1.0746
-0.00505984
0.00287697
-1.28324
1.28543
-0.000129024
-0.00265599
-1.53706
1.53985
0.00537375
-0.00793636
-1.53721
1.53977
0.00987916
-0.0115705
-1.28379
1.28548
0.0126898
-0.0134479
-1.07347
1.07422
0.0137265
-0.0135942
-0.898227
0.898094
0.0130754
-0.0120915
-0.751969
0.750985
0.0108318
-0.00910602
-0.629507
0.627781
0.00726197
-0.00510586
-0.525098
0.522942
0.00324804
-0.00163526
-0.416974
0.415361
0.000720771
-0.00022556
-0.252903
0.252408
4.52035e-05
-0.0477951
0.0477499
-0.0483848
0.0484295
-4.46446e-05
3.20116e-05
0.000232101
-0.31389
0.313625
-0.000817261
0.00156509
-0.431522
0.430774
-0.00249429
0.00332722
-0.524148
0.523315
-0.00414013
0.0047378
-0.628273
0.627675
-0.00518845
0.00538364
-0.751668
0.751473
-0.00532583
0.00500162
-0.899309
0.899633
-0.00432352
0.00340104
-1.07575
1.07668
-0.00205223
0.000538315
-1.28726
1.28878
0.00137649
-0.00329826
-1.54218
1.5441
0.00514431
-0.00682204
-1.54187
1.54355
0.00800282
-0.0089037
-1.28675
1.28765
0.0094054
-0.00960857
-1.07467
1.07487
0.00948984
-0.00906518
-0.897775
0.89735
0.0084416
-0.00754263
-0.750017
0.749118
0.0065621
-0.00536312
-0.626327
0.625128
0.00420325
-0.00294152
-0.52129
0.520028
0.00190795
-0.00102403
-0.414179
0.413295
0.000501066
-0.000182664
-0.252023
0.251705
4.40684e-05
-0.0477083
0.0476642
-0.0484805
0.0485417
-6.12697e-05
0.000223207
-0.000199788
-0.313497
0.313474
1.00247e-05
0.000273546
-0.430296
0.430012
-0.000650279
0.00100265
-0.522753
0.522401
-0.00135752
0.0016211
-0.627254
0.626991
-0.00181372
0.0018771
-0.751335
0.751272
-0.00179264
0.00155126
-0.899895
0.900136
-0.0010807
0.000449069
-1.07743
1.07806
0.000476416
-0.00151092
-1.29003
1.29106
0.00280029
-0.00406888
-1.54567
1.54693
0.0052427
-0.00622843
-1.54485
1.54584
0.00683794
-0.00722158
-1.28827
1.28865
0.00734287
-0.00722659
-1.07489
1.07478
0.00692396
-0.00642159
-0.896872
0.89637
0.00583898
-0.00510413
-0.748304
0.747569
0.00437613
-0.00354987
-0.62414
0.623314
0.00279813
-0.00201392
-0.519048
0.518264
0.00137983
-0.000820465
-0.412609
0.41205
0.000455094
-0.000192964
-0.251424
0.251161
5.4644e-05
-0.0476152
0.0475606
-0.0486094
0.0486847
-7.52334e-05
0.00037666
-0.000478297
-0.313514
0.313615
0.000514669
-0.000491378
-0.429877
0.429853
0.000433476
-0.000378613
-0.522213
0.522159
0.000336205
-0.000329417
-0.626864
0.626858
0.000373265
-0.000475847
-0.751291
0.751393
0.000675832
-0.000954916
-0.900386
0.900665
0.00138311
-0.00189556
-1.07862
1.07913
0.00259167
-0.00333484
-1.29193
1.29267
0.0042248
-0.00505586
-1.54796
1.54879
0.00576515
-0.00630102
-1.54658
1.54711
0.00655758
-0.00657523
-1.28882
1.28884
0.00643478
-0.00612765
-1.07456
1.07425
0.00573451
-0.00520773
-0.895856
0.895329
0.00466897
-0.00404335
-0.746898
0.746273
0.00346047
-0.0028288
-0.622604
0.621972
0.00227324
-0.00170336
-0.517611
0.517041
0.00123691
-0.000802345
-0.411569
0.411135
0.000485847
-0.000225122
-0.250905
0.250644
6.89822e-05
-0.0474993
0.0474303
-0.0487685
0.0488636
-9.50478e-05
0.000522257
-0.000735155
-0.313778
0.313991
0.000923651
-0.00106653
-0.42992
0.430063
0.00121368
-0.00135699
-0.522211
0.522355
0.00153471
-0.00172348
-0.626955
0.627143
0.00196704
-0.00223095
-0.751577
0.751841
0.00257469
-0.00294589
-0.900986
0.901357
0.00342196
-0.00392033
-1.07963
1.08012
0.00452978
-0.00512491
-1.29333
1.29392
0.00577955
-0.00632549
-1.54946
1.55001
0.00671748
-0.00690836
-1.54746
1.54765
0.00689413
-0.00672755
-1.28877
1.2886
0.00641223
-0.00596904
-1.07387
1.07343
0.00549362
-0.00492687
-0.894784
0.894218
0.00438827
-0.00379387
-0.745672
0.745077
0.00326061
-0.00269814
-0.621387
0.620825
0.00221179
-0.00171472
-0.51652
0.516023
0.00129939
-0.00089142
-0.410722
0.410314
0.000567654
-0.000275545
-0.250371
0.250079
8.77062e-05
-0.0473525
0.0472648
-0.0489714
0.0490931
-0.000121654
0.000694801
-0.00100779
-0.314253
0.314566
0.00132591
-0.00160357
-0.430275
0.430553
0.00191268
-0.00221382
-0.522579
0.52288
0.00257184
-0.00292802
-0.627417
0.627774
0.00335301
-0.00377544
-0.752184
0.752607
0.00427755
-0.00477188
-0.901786
0.902281
0.00534952
-0.00590157
-1.08064
1.08119
0.00651681
-0.00706147
-1.29448
1.29503
0.00759474
-0.00796465
-1.55046
1.55083
0.0081414
-0.00809764
-1.54772
1.54767
0.00787869
-0.0074918
-1.28832
1.28793
0.00704245
-0.00646932
-1.07292
1.07235
0.00590392
-0.00526366
-0.89362
0.89298
0.00467745
-0.00404839
-0.744473
0.743844
0.00349538
-0.00292035
-0.620265
0.61969
0.00242713
-0.00192261
-0.51553
0.515026
0.00149375
-0.00105636
-0.409897
0.40946
0.000690027
-0.000342431
-0.249762
0.249414
0.000110872
-0.0471662
0.0470553
-0.0492304
0.0493853
-0.000154982
0.000901207
-0.00132439
-0.314932
0.315355
0.00177493
-0.00218403
-0.430896
0.431305
0.00264835
-0.0031009
-0.523257
0.523709
0.00363372
-0.00415587
-0.628212
0.628734
0.0047665
-0.00535811
-0.753111
0.753703
0.00603955
-0.00668579
-0.902847
0.903493
0.00740833
-0.00806424
-1.08179
1.08245
0.00875147
-0.00931394
-1.29557
1.29614
0.00980426
-0.0100701
-1.55114
1.5514
0.0100926
-0.00985974
-1.54753
1.5473
0.00946348
-0.00888539
-1.28745
1.28687
0.00827338
-0.00754346
-1.0717
1.07097
0.00685188
-0.00609019
-0.892285
0.891523
0.00540718
-0.00468531
-0.743175
0.742454
0.00405764
-0.00340997
-0.619085
0.618437
0.00285661
-0.00228989
-0.514496
0.513929
0.00180279
-0.00129477
-0.408992
0.408484
0.000856352
-0.000429391
-0.24903
0.248603
0.000140073
-0.0469307
0.0467906
-0.049561
0.0497597
-0.000198679
0.00116363
-0.001719
-0.315841
0.316396
0.00232084
-0.00287541
-0.431783
0.432338
0.00350912
-0.00412695
-0.524241
0.524859
0.00485169
-0.00555794
-0.629344
0.630051
0.00637747
-0.00716345
-0.754388
0.755174
0.00805696
-0.00889015
-0.904228
0.905061
0.0098019
-0.0106073
-1.08317
1.08398
0.0114209
-0.0120529
-1.29673
1.29736
0.0125549
-0.0127606
-1.55164
1.55184
0.0126595
-0.0122488
-1.54698
1.54657
0.0116728
-0.0108881
-1.2862
1.28541
0.0100873
-0.00916064
-1.07015
1.06922
0.00829985
-0.00736554
-0.890682
0.889748
0.00653681
-0.00566772
-0.741665
0.740796
0.00491637
-0.00414407
-0.617734
0.616961
0.00348555
-0.00281058
-0.513314
0.512639
0.00222696
-0.00161105
-0.407927
0.407311
0.0010715
-0.000539563
-0.248127
0.247595
0.000176484
-0.0466333
0.0464568
-0.0499861
0.0502419
-0.000255802
0.00150189
-0.00222305
-0.317029
0.31775
0.00301025
-0.0037399
-0.432974
0.433703
0.00457542
-0.00538971
-0.525569
0.526383
0.0063424
-0.00726791
-0.630861
0.631787
0.00833753
-0.00935817
-0.756072
0.757092
0.0105107
-0.0115762
-0.906004
0.90707
0.0127289
-0.0137318
-1.08488
1.08588
0.014723
-0.0154675
-1.29804
1.29879
0.0160202
-0.0161891
-1.55203
1.5522
0.0159706
-0.0153696
-1.54606
1.54546
0.0145873
-0.0135595
-1.28451
1.28348
0.0125298
-0.0113543
-1.06818
1.067
0.0102734
-0.0091091
-0.888706
0.887542
0.0080822
-0.00700965
-0.739833
0.73876
0.006085
-0.00513627
-0.616108
0.615159
0.00432805
-0.00349919
-0.511894
0.511065
0.00278035
-0.00201746
-0.406627
0.405864
0.0013446
-0.000677925
-0.247
0.246334
0.000221814
-0.0462589
0.0460371
-0.0505355
0.0508667
-0.000331219
0.0019439
-0.00287863
-0.318569
0.319504
0.00390217
-0.00485288
-0.434531
0.435481
0.00594053
-0.00699871
-0.52731
0.528369
0.00823283
-0.00942877
-0.632842
0.634038
0.0108072
-0.0121186
-0.758253
0.759564
0.0135938
-0.0149503
-0.908273
0.90963
0.0164069
-0.0176613
-1.087
1.08825
0.0188829
-0.0197788
-1.2996
1.3005
0.0204101
-0.0205497
-1.55235
1.55249
0.0202007
-0.0193762
-1.54476
1.54393
0.018344
-0.0170152
-1.28231
1.28098
0.0156991
-0.0142084
-1.06568
1.06419
0.0128455
-0.0113839
-0.886237
0.884775
0.0100986
-0.00875934
-0.737562
0.736223
0.00760645
-0.00642461
-0.614102
0.61292
0.00541806
-0.00438528
-0.510142
0.509109
0.00348812
-0.00253354
-0.405012
0.404058
0.00168934
-0.000851521
-0.245587
0.244749
0.000278369
-0.0457888
0.0455105
-0.0512498
0.0516828
-0.000433082
0.00253136
-0.00374713
-0.320562
0.321778
0.00508057
-0.00631779
-0.436548
0.437786
0.00772659
-0.00909137
-0.52957
0.530934
0.0106763
-0.0122094
-0.635404
0.636937
0.0139737
-0.0156502
-0.761055
0.762732
0.0175311
-0.0192539
-0.911159
0.912882
0.0210923
-0.0226617
-1.08965
1.09122
0.0241704
-0.025254
-1.30148
1.30256
0.0259819
-0.0260839
-1.55261
1.55271
0.0255716
-0.0244683
-1.54298
1.54187
0.0231235
-0.0214163
-1.27948
1.27777
0.0197394
-0.0178506
-1.06251
1.06062
0.0161311
-0.0142924
-0.883133
0.881294
0.012679
-0.0109997
-0.734721
0.733042
0.00955493
-0.00807347
-0.611599
0.610118
0.00681065
-0.00551338
-0.507958
0.506661
0.00438522
-0.00318414
-0.402991
0.40179
0.00212211
-0.00106871
-0.24381
0.242757
0.000349004
-0.0451998
0.0448508
-0.0521844
0.0527611
-0.000576655
0.00333436
-0.00492821
-0.323144
0.324738
0.00667361
-0.0082807
-0.439161
0.440768
0.0100923
-0.0118344
-0.532498
0.53424
0.0138506
-0.0158029
-0.638709
0.640661
0.0180539
-0.0201954
-0.764643
0.766784
0.0225945
-0.024783
-0.914814
0.917003
0.0271019
-0.0290617
-1.09297
1.09493
0.0309191
-0.0322233
-1.30375
1.30505
0.0330534
-0.0330914
-1.55279
1.55282
0.0323614
-0.0308999
-1.5406
1.53914
0.0291591
-0.0269748
-1.27583
1.27365
0.0248446
-0.0224563
-1.05849
1.0561
0.0202898
-0.0179789
-0.879221
0.87691
0.0159552
-0.0138509
-0.731151
0.729047
0.0120401
-0.0101807
-0.60846
0.6066
0.0085917
-0.00695448
-0.505222
0.503584
0.00552795
-0.00400947
-0.400454
0.398936
0.00266991
-0.00134382
-0.241579
0.240253
0.000439149
-0.0444641
0.0440249
-0.0534186
0.0542048
-0.000786181
0.00446435
-0.00657198
-0.326507
0.328614
0.0088551
-0.0109186
-0.442561
0.444624
0.0132108
-0.0154012
-0.536305
0.538496
0.0179445
-0.0204278
-0.642971
0.645454
0.0233112
-0.0260624
-0.76922
0.771971
0.0291369
-0.0319226
-0.919423
0.922209
0.0348438
-0.0372792
-1.09706
1.0995
0.0395461
-0.0410932
-1.30645
1.30799
0.0420114
-0.0419342
-1.5528
1.55272
0.0409051
-0.038979
-1.53745
1.53553
0.0367356
-0.0339534
-1.27118
1.26839
0.0312586
-0.0282501
-1.0534
1.05039
0.0255306
-0.0226379
-0.874292
0.871399
0.0201102
-0.0174852
-0.72666
0.724035
0.0152252
-0.0128992
-0.604514
0.602188
0.0109015
-0.00882974
-0.501787
0.499715
0.00701489
-0.00508007
-0.397269
0.395335
0.0033799
-0.00170211
-0.23878
0.237102
0.000558703
-0.0435488
0.0429901
-0.0550751
0.0561676
-0.00109247
0.00607786
-0.00888147
-0.330926
0.333729
0.0118486
-0.0144591
-0.447024
0.449634
0.0173181
-0.0200603
-0.541273
0.544016
0.0232892
-0.0264878
-0.648459
0.651657
0.0302308
-0.0337962
-0.775039
0.778604
0.0377465
-0.0412786
-0.925197
0.928729
0.0449242
-0.0479057
-1.10208
1.10506
0.0506138
-0.0523919
-1.30958
1.31136
0.053339
-0.0530533
-1.55251
1.55222
0.0516065
-0.0490761
-1.53329
1.53076
0.0462
-0.0426767
-1.26524
1.26172
0.0392873
-0.0355194
-1.04699
1.04322
0.0321244
-0.0285239
-0.868094
0.864493
0.0253868
-0.0221364
-0.721012
0.717762
0.0193395
-0.0164552
-0.599552
0.596667
0.0139612
-0.0113457
-0.497471
0.494856
0.00902504
-0.00652913
-0.393275
0.390779
0.00434002
-0.00218752
-0.235274
0.233122
0.000723566
-0.0424137
0.0416901
-0.0573533
0.0589053
-0.00155196
0.00847146
-0.0122475
-0.336804
0.34058
0.0161176
-0.0194316
-0.452915
0.456229
0.0230302
-0.0265326
-0.547759
0.551261
0.0307379
-0.0349412
-0.655512
0.659715
0.0398448
-0.0444477
-0.782418
0.787021
0.0494514
-0.0538302
-0.932378
0.936757
0.0582508
-0.0617756
-1.10811
1.11164
0.06487
-0.066787
-1.31309
1.31501
0.0676182
-0.0669608
-1.55169
1.55103
0.0649231
-0.0616083
-1.52782
1.5245
0.0579451
-0.0535175
-1.25772
1.2533
0.0492894
-0.0446071
-1.03895
1.03427
0.040397
-0.035941
-0.860339
0.855883
0.0320685
-0.0280692
-0.713931
0.709932
0.0246368
-0.0210996
-0.593309
0.589772
0.0180242
-0.0147564
-0.492037
0.488769
0.0117958
-0.00854693
-0.388264
0.385015
0.00567689
-0.00285554
-0.230888
0.228067
0.000947544
-0.0410031
0.0400556
-0.0605769
0.0629089
-0.00233195
0.0123932
-0.0175861
-0.34474
0.349933
0.0226705
-0.026925
-0.460759
0.465014
0.0315499
-0.0361466
-0.556257
0.560854
0.0417367
-0.0472823
-0.664591
0.670137
0.0536198
-0.0594032
-0.79174
0.797523
0.0655223
-0.0707343
-0.941162
0.946374
0.0758532
-0.0798013
-1.11513
1.11908
0.0831003
-0.0849534
-1.31675
1.3186
0.0854175
-0.0841403
-1.54998
1.54871
0.0812764
-0.0769566
-1.52064
1.51632
0.07233
-0.066824
-1.2483
1.24279
0.061609
-0.0558547
-1.02898
1.02322
0.0506831
-0.0452061
-0.850721
0.845244
0.0404447
-0.0355319
-0.705112
0.700199
0.0313239
-0.0269986
-0.585481
0.581156
0.023231
-0.0191953
-0.485176
0.481141
0.0154645
-0.0112721
-0.381926
0.377734
0.00749679
-0.00375065
-0.225365
0.221619
0.00123286
-0.0392273
0.0379945
-0.0653244
0.0691803
-0.00385584
0.0194433
-0.0266981
-0.355788
0.363043
0.0333525
-0.0388819
-0.471424
0.476954
0.0449569
-0.0510918
-0.567466
0.573601
0.0584911
-0.0656067
-0.676259
0.683375
0.0734395
-0.0803392
-0.803297
0.810196
0.0874192
-0.0932697
-0.951498
0.957349
0.0988184
-0.1029
-1.12282
1.1269
0.106051
-0.107497
-1.32006
1.32151
0.10722
-0.104991
-1.54684
1.54462
0.101015
-0.095447
-1.51132
1.50575
0.0896802
-0.08294
-1.23663
1.22989
0.076616
-0.0696663
-1.01679
1.00984
0.0634205
-0.056787
-0.838956
0.832322
0.0509945
-0.0449936
-0.694252
0.688252
0.0398365
-0.0345264
-0.575741
0.570431
0.0298951
-0.0249192
-0.476508
0.471532
0.0202385
-0.0148844
-0.373793
0.368439
0.00994117
-0.00495678
-0.218269
0.213285
0.00160066
-0.0369457
0.0353451
-0.0728214
0.0801052
-0.00728388
0.0334553
-0.0440114
-0.372
0.382556
0.0527666
-0.0598538
-0.486092
0.493179
0.0678591
-0.0758795
-0.582122
0.590142
0.0851571
-0.0936102
-0.69086
0.699313
0.102498
-0.110026
-0.816915
0.824443
0.11747
-0.123366
-0.962835
0.968731
0.12867
-0.132257
-1.13042
1.134
0.134607
-0.135074
-1.32223
1.3227
0.133505
-0.129886
-1.54153
1.53791
0.12446
-0.117403
-1.49934
1.49229
0.110348
-0.102281
-1.22243
1.21436
0.0947978
-0.0866311
-1.00218
0.994013
0.0793059
-0.0715182
-0.824858
0.81707
0.0646922
-0.0575813
-0.681114
0.674003
0.051429
-0.0450675
-0.563767
0.557406
0.039515
-0.0335084
-0.465577
0.45957
0.0276491
-0.0205319
-0.3632
0.356083
0.0136492
-0.00663227
-0.208818
0.201801
0.00204378
-0.0339885
0.0319448
-0.0873169
0.0902863
-0.00296935
0.0209558
-0.0300608
-0.396367
0.405472
0.0384571
-0.0462207
-0.505768
0.513532
0.0555483
-0.0653065
-0.600045
0.609803
0.0760143
-0.0855676
-0.707489
0.717043
0.0962021
-0.105611
-0.83126
0.840668
0.115378
-0.123749
-0.973731
0.982102
0.132069
-0.138739
-1.13655
1.14322
0.144689
-0.148607
-1.32204
1.32596
0.150746
-0.150235
-1.53312
1.53261
0.146933
-0.141222
-1.48421
1.4785
0.134435
-0.125742
-1.20551
1.19682
0.117175
-0.106814
-0.985149
0.974788
0.0972269
-0.0865946
-0.808496
0.797864
0.077007
-0.0667468
-0.665763
0.655503
0.0574212
-0.047827
-0.549519
0.539925
0.0395996
-0.0304688
-0.452084
0.442953
0.0220985
-0.0133558
-0.349104
0.340361
0.00670792
-0.0020404
-0.195333
0.190665
7.77373e-05
-0.0299837
0.0299059
-0.097433
0.0931789
0.0042541
-0.00279458
-0.0025176
-0.417828
0.42314
0.00992132
-0.0169681
-0.52519
0.532237
0.0258085
-0.0342038
-0.619688
0.628083
0.0437259
-0.0524101
-0.726555
0.73524
0.0616718
-0.0700681
-0.849594
0.857991
0.0788065
-0.0860413
-0.990193
0.997427
0.0934755
-0.0991572
-1.14978
1.15546
0.104235
-0.107362
-1.32974
1.33286
0.108562
-0.107448
-1.53152
1.53041
0.103745
-0.0978577
-1.47227
1.46638
0.0909464
-0.0824064
-1.18791
1.17937
0.0741726
-0.0647382
-0.964454
0.95502
0.0558885
-0.0460543
-0.786811
0.776976
0.037255
-0.028226
-0.643812
0.634783
0.0205322
-0.0126265
-0.528126
0.520221
0.00587984
0.000650086
-0.431236
0.424707
-0.00547465
0.00869005
-0.329968
0.326752
-0.00868426
0.00597887
-0.183776
0.186482
-0.00260923
-0.0284659
0.0310751
-0.0951211
0.090963
0.00415811
-0.0096896
0.00750509
-0.432228
0.434412
-0.00271718
-0.00295205
-0.541632
0.547301
0.0100659
-0.0171191
-0.636663
0.643717
0.0250826
-0.0323863
-0.743441
0.750744
0.0403974
-0.0475355
-0.865746
0.872884
0.0547716
-0.0611322
-1.00452
1.01088
0.0675126
-0.0725162
-1.16079
1.16579
0.07665
-0.0790713
-1.3355
1.33792
0.0800517
-0.0788491
-1.52893
1.52773
0.0753744
-0.0700988
-1.46041
1.45514
0.0640914
-0.0569722
-1.17133
1.16421
0.049919
-0.0422041
-0.945988
0.938273
0.0351255
-0.0274151
-0.768085
0.760375
0.0208498
-0.0141487
-0.625838
0.619137
0.00868324
-0.0031268
-0.511183
0.505626
-0.00112145
0.00484329
-0.416288
0.412567
-0.00729327
0.00812105
-0.320197
0.319369
-0.0066499
0.00388378
-0.183555
0.186322
-0.00159234
-0.0309567
0.032549
-0.0916746
0.0878966
0.00377802
-0.0114443
0.0110586
-0.441234
0.44162
-0.00791449
0.00340683
-0.55439
0.558898
0.00256492
-0.00825016
-0.650468
0.656154
0.0148314
-0.0209082
-0.757758
0.763835
0.0275531
-0.0335101
-0.879567
0.885524
0.0399389
-0.0452485
-1.01686
1.02217
0.0508055
-0.0547942
-1.17051
1.1745
0.0584447
-0.0606305
-1.34033
1.34252
0.0614397
-0.0601957
-1.52646
1.52522
0.0573541
-0.0530378
-1.44988
1.44556
0.0480874
-0.0419873
-1.15751
1.15141
0.0363154
-0.0302299
-0.930989
0.924904
0.024573
-0.0187934
-0.753396
0.747617
0.0135915
-0.00855097
-0.612363
0.607322
0.00448094
-0.000740952
-0.499281
0.495541
-0.00194199
0.00421485
-0.406467
0.404194
-0.00563872
0.00570637
-0.314537
0.31447
-0.00457371
0.00267743
-0.183718
0.185614
-0.00113352
-0.0318569
0.0329904
-0.0886549
0.085665
0.0029899
-0.0107464
0.0115099
-0.446962
0.446199
-0.0090358
0.00553446
-0.564743
0.568244
-0.000849066
-0.00408189
-0.661799
0.66673
0.00940334
-0.0145733
-0.769494
0.774664
0.020135
-0.0251519
-0.891097
0.896114
0.0305289
-0.0351791
-1.02737
1.03202
0.0398454
-0.0435563
-1.17845
1.18216
0.0467893
-0.0487687
-1.34453
1.34651
0.0496033
-0.04864
-1.52413
1.52316
0.0463369
-0.042615
-1.44107
1.43734
0.0385043
-0.0335827
-1.14578
1.14086
0.0289275
-0.0238453
-0.919068
0.913985
0.0193402
-0.0146506
-0.742078
0.737389
0.0106303
-0.00664069
-0.602322
0.598332
0.00351759
-0.000689253
-0.490786
0.487958
-0.00146175
0.00312581
-0.399678
0.398014
-0.00395692
0.00421507
-0.310503
0.310245
-0.0035083
0.00198652
-0.182654
0.184176
-0.00089203
-0.0320739
0.0329659
-0.0864825
0.0841208
0.00236171
-0.0092109
0.0100868
-0.45063
0.449754
-0.00868825
0.00578128
-0.572586
0.575493
-0.00157427
-0.00242405
-0.671141
0.67514
0.00679746
-0.0111119
-0.779269
0.783584
0.0158699
-0.0202074
-0.90082
0.905157
0.02501
-0.0290107
-1.03642
1.04042
0.0331928
-0.0365751
-1.18568
1.18906
0.0395287
-0.041395
-1.3484
1.35027
0.0422725
-0.0418976
-1.52236
1.52199
0.0399839
-0.0369896
-1.43355
1.43056
0.0334719
-0.0292464
-1.13612
1.1319
0.0254697
-0.0210076
-0.909127
0.904665
0.0171098
-0.0131958
-0.732887
0.728973
0.00977563
-0.0063637
-0.594413
0.591001
0.00363289
-0.000982726
-0.484192
0.481542
-0.000718101
0.0021438
-0.394293
0.392868
-0.00311891
0.00339544
-0.306712
0.306435
-0.00279943
0.0016451
-0.181199
0.182353
-0.000720644
-0.0319498
0.0326704
-0.0851037
0.0833361
0.00176757
-0.00737235
0.00831757
-0.453284
0.452339
-0.00709386
0.00490575
-0.579291
0.58148
-0.00129844
-0.00211392
-0.678897
0.682309
0.00610216
-0.00964177
-0.787662
0.791202
0.0136473
-0.0173556
-0.909487
0.913195
0.0218118
-0.0253735
-1.04445
1.04801
0.029046
-0.032266
-1.19231
1.19553
0.0354396
-0.0372815
-1.35228
1.35412
0.0384084
-0.0382293
-1.52143
1.52125
0.0369898
-0.0342432
-1.42759
1.42485
0.0313395
-0.0277638
-1.12774
1.12417
0.0243097
-0.020495
-0.900432
0.896617
0.0169613
-0.0132581
-0.724956
0.721253
0.0103639
-0.00715364
-0.587462
0.584252
0.00449932
-0.00214563
-0.478254
0.4759
0.000366878
0.00119469
-0.389662
0.388101
-0.00207214
0.00245665
-0.303366
0.302982
-0.00209359
0.00126549
-0.179584
0.180412
-0.000579363
-0.0316361
0.0322155
-0.0844452
0.0830691
0.00137606
-0.00576493
0.0066817
-0.455391
0.454474
-0.00552626
0.00351194
-0.584864
0.586878
-0.00041474
-0.00245723
-0.685537
0.688409
0.00568596
-0.00898696
-0.794797
0.798098
0.0125444
-0.0162966
-0.916736
0.920488
0.0199871
-0.0233133
-1.05165
1.05498
0.0270651
-0.0300501
-1.19867
1.20165
0.0328132
-0.0351337
-1.35596
1.35828
0.0365734
-0.0368217
-1.52129
1.52154
0.0358904
-0.0338258
-1.42244
1.42038
0.0312994
-0.0280591
-1.12041
1.11717
0.0249542
-0.021384
-0.892769
0.889198
0.0180714
-0.014705
-0.71764
0.714273
0.0116456
-0.00860575
-0.580891
0.577852
0.00610746
-0.00357594
-0.472895
0.470363
0.00164446
-0.000214356
-0.385057
0.383627
-0.000790494
0.00144602
-0.300023
0.299367
-0.00143045
0.000896267
-0.177771
0.178305
-0.000447943
-0.0311959
0.0316439
-0.0843828
0.083197
0.00118584
-0.00427583
0.00487691
-0.457362
0.456761
-0.00396062
0.0020715
-0.589714
0.591603
0.000548525
-0.00319949
-0.691397
0.694048
0.00618066
-0.00903253
-0.801286
0.804138
0.0126188
-0.0155575
-0.923714
0.926652
0.0191375
-0.0222279
-1.05845
1.06154
0.0258153
-0.0289535
-1.20463
1.20777
0.0319895
-0.0341468
-1.36043
1.36259
0.0360123
-0.0367618
-1.52184
1.52259
0.0365341
-0.0348121
-1.41831
1.41659
0.0326772
-0.0297193
-1.11407
1.11111
0.0268315
-0.0233498
-0.885445
0.881963
0.0202161
-0.0167747
-0.710686
0.707244
0.013728
-0.0105939
-0.574601
0.571467
0.0079107
-0.00547263
-0.467381
0.464943
0.00335047
-0.00169551
-0.380471
0.378816
0.000406732
0.00043224
-0.296481
0.295642
-0.000677792
0.000593907
-0.175616
0.1757
-0.000314492
-0.0305804
0.0308949
-0.0845382
0.0836327
0.000905521
-0.00315009
0.00325842
-0.459524
0.459416
-0.00257149
0.000770212
-0.593704
0.595505
0.00141501
-0.00386137
-0.696577
0.699024
0.00660757
-0.00951035
-0.806917
0.809819
0.0124451
-0.0154568
-0.929784
0.932796
0.0189138
-0.0217324
-1.06503
1.06785
0.0253349
-0.0283861
-1.21074
1.21379
0.0314618
-0.0341472
-1.36519
1.36787
0.0365526
-0.0376923
-1.52349
1.52463
0.0378083
-0.0368144
-1.41514
1.41414
0.0351715
-0.0324488
-1.10806
1.10534
0.0296242
-0.0264039
-0.878394
0.875174
0.0229436
-0.0195951
-0.703544
0.700195
0.0164727
-0.0131387
-0.56831
0.564976
0.0104515
-0.00769834
-0.461725
0.458972
0.00545568
-0.00334914
-0.375888
0.373782
0.00190506
-0.00076417
-0.292693
0.291552
4.37206e-05
0.000258365
-0.173084
0.172782
-0.000229645
-0.0297193
0.0299489
-0.0849986
0.0841952
0.000803431
-0.00234714
0.00247464
-0.461845
0.461717
-0.00132235
-0.000133051
-0.597625
0.59908
0.00237026
-0.00462715
-0.701139
0.703396
0.00716013
-0.0096224
-0.812442
0.814904
0.0125917
-0.0152297
-0.935795
0.938433
0.018548
-0.0216934
-1.07108
1.07423
0.0248719
-0.0281792
-1.2169
1.2202
0.0316255
-0.0344141
-1.37053
1.37332
0.0372427
-0.0392517
-1.5261
1.52811
0.0399459
-0.0396736
-1.41316
1.41288
0.038264
-0.0359185
-1.10269
1.10034
0.0333489
-0.0300593
-0.871551
0.868261
0.0267088
-0.023176
-0.696336
0.692804
0.0199096
-0.0163152
-0.561446
0.557852
0.0133053
-0.0103689
-0.455736
0.4528
0.00771778
-0.00533204
-0.370724
0.368338
0.00353464
-0.00204748
-0.288407
0.28692
0.00102004
-0.000209968
-0.17016
0.16935
-7.95174e-05
-0.0286913
0.0287708
-0.0855948
0.0849173
0.000677438
-0.0015461
0.00150393
-0.464225
0.464268
-0.000549754
-0.00107836
-0.601003
0.602631
0.00313525
-0.00517386
-0.705344
0.707383
0.00771185
-0.00996346
-0.817353
0.819604
0.0127042
-0.0153697
-0.941486
0.944152
0.0184953
-0.0215159
-1.07721
1.08023
0.0248135
-0.0280779
-1.22345
1.22671
0.0316569
-0.0351627
-1.37646
1.37997
0.0384878
-0.040917
-1.5302
1.53263
0.0424642
-0.042708
-1.41266
1.4129
0.0419583
-0.0401656
-1.09802
1.09623
0.0376
-0.0343785
-0.864724
0.861502
0.0309988
-0.027185
-0.688872