/*--------------------------------*- C++ -*----------------------------------*\
  =========                 |
  \\      /  F ield         | OpenFOAM: The Open Source CFD Toolbox
   \\    /   O peration     | Website:  https://openfoam.org
    \\  /    A nd           | Version:  10
     \\/     M anipulation  |
\*---------------------------------------------------------------------------*/
FoamFile
{
    format      ascii;
    class       volScalarField;
    location    "8";
    object      p;
}
// * * * * * * * * * * * * * * * * * * * * * * * * * * * * * * * * * * * * * //

dimensions      [1 -1 -2 0 0 0 0];

internalField   nonuniform List<scalar> 
16128
(
1
1
1
1
1
1
1
1
1
1
1
1
1
1
1
1
1
1
1
1
1
1
1
1
4.94597
10.2666
10.5299
10.6162
10.7327
10.8386
10.9426
11.0422
11.1372
11.2274
11.3137
11.3969
11.4763
11.5493
11.6157
11.6792
11.7432
11.8047
11.8586
11.9022
11.9412
11.9735
11.9972
12.0212
1
1
1
1
1
1
1
1
1
1
1
1
1
1
1
1
1
1
1
1
1
1
1
1
4.86837
10.2302
10.5235
10.6116
10.728
10.8339
10.9376
11.0367
11.1312
11.2212
11.3073
11.3898
11.468
11.5403
11.6071
11.671
11.7337
11.7922
11.8437
11.8869
11.9274
11.9605
11.9836
12.0054
1
1
1
1
1
1
1
1
1
1
1
1
1
1
1
1
1
1
1
1
1
1
1
1
4.69813
10.1876
10.5077
10.5983
10.7154
10.822
10.9259
11.0249
11.1193
11.2096
11.2958
11.3774
11.4545
11.5271
11.5952
11.6591
11.7191
11.7733
11.8221
11.8656
11.9074
11.9403
11.9595
11.9783
1
1
1
1
1
1
1
1
1
1
1
1
1
1
1
1
1
1
1
1
1
1
1
1
4.45061
10.1188
10.4892
10.5819
10.699
10.8056
10.9089
11.0069
11.1005
11.1904
11.2762
11.3567
11.4327
11.5053
11.5744
11.6383
11.6959
11.7469
11.7941
11.8381
11.8789
11.909
11.9205
11.9377
1
1
1
1
1
1
1
1
1
1
1
1
1
1
1
1
1
1
1
1
1
1
1
1
4.13121
10.0149
10.467
10.5614
10.6783
10.7844
10.8866
10.9833
11.0755
11.1643
11.2491
11.3283
11.4028
11.4741
11.5426
11.6057
11.6621
11.712
11.7592
11.8025
11.8384
11.8631
11.8692
11.9037
1
1
1
1
1
1
1
1
1
1
1
1
1
1
1
1
1
1
1
1
1
1
1
1
3.74128
9.86371
10.443
10.539
10.6561
10.7618
10.8632
10.9588
11.0496
11.1368
11.2203
11.2981
11.3706
11.4396
11.5056
11.5664
11.6213
11.6703
11.7167
11.7584
11.7914
11.8162
11.7947
11.8464
1
1
1
1
1
1
1
1
1
1
1
1
1
1
1
1
1
1
1
1
1
1
1
1
3.29694
9.64208
10.4168
10.5122
10.6285
10.7323
10.8321
10.926
11.0148
11.0997
11.1811
11.2571
11.3278
11.3942
11.4571
11.5157
11.57
11.6183
11.662
11.6993
11.7269
11.7505
11.721
11.7825
1
1
1
1
1
1
1
1
1
1
1
1
1
1
1
1
1
1
1
1
1
1
1
1
2.81295
9.32706
10.3977
10.4864
10.5996
10.6987
10.7942
10.8844
10.9698
11.0512
11.1298
11.2037
11.2728
11.3368
11.3967
11.4526
11.5058
11.5536
11.5952
11.6292
11.6531
11.6734
11.6344
11.7012
1
1
1
1
1
1
1
1
1
1
1
1
1
1
1
1
1
1
1
1
1
1
1
1
2.32079
8.90182
10.4078
10.4644
10.5734
10.6672
10.7597
10.8467
10.9285
11.0055
11.0796
11.1493
11.2143
11.2742
11.3295
11.3806
11.4292
11.4726
11.5102
11.542
11.5642
11.5837
11.5413
11.5922
1
1
1
1
1
1
1
1
1
1
1
1
1
1
1
1
1
1
1
1
1
1
1
1
1.81997
8.32988
10.4179
10.4381
10.5436
10.6286
10.7164
10.8003
10.8801
10.9539
11.0237
11.089
11.1494
11.204
11.2535
11.2983
11.3406
11.3791
11.4117
11.4378
11.4533
11.4732
11.4432
11.4532
1
1
1
1
1
1
1
1
1
1
1
1
1
1
1
1
1
1
1
1
1
1
1
1
1.35322
7.68703
10.4665
10.3869
10.4863
10.5692
10.6593
10.7431
10.8208
10.8924
10.959
11.0202
11.0761
11.1254
11.1687
11.2061
11.2395
11.2692
11.293
11.313
11.3231
11.3301
11.2766
11.3197
1
1
1
1
1
1
1
1
1
1
1
1
1
1
1
1
1
1
1
1
1
1
1
1
1.02233
6.89897
10.3233
10.3161
10.416
10.4987
10.585
10.6687
10.7494
10.821
10.8843
10.9414
10.9923
11.0358
11.0723
11.1013
11.124
11.1434
11.1574
11.1695
11.1692
11.1579
11.091
11.1243
1
1
1
1
1
1
1
1
1
1
1
1
1
1
1
1
1
1
1
1
1
1
1
1
1.00012
5.86352
10.1006
10.2307
10.3431
10.4407
10.5262
10.6039
10.6694
10.7361
10.7972
10.8502
10.8961
10.9335
10.9626
10.9828
10.9941
11.0007
10.9977
10.9884
10.9606
10.9255
10.8403
10.8933
1
1
1
1
1
1
1
1
1
1
1
1
1
1
1
1
1
1
1
1
1
1
1
1
0.999999
4.80886
9.82871
10.1443
10.2585
10.3608
10.4416
10.5129
10.5806
10.6417
10.6947
10.7427
10.7833
10.8144
10.8362
10.847
10.8439
10.8339
10.8096
10.7796
10.7313
10.671
10.544
10.5179
1
1
1
1
1
1
1
1
1
1
1
1
1
1
1
1
1
1
1
1
1
1
1
1
1
3.71332
9.40382
10.0988
10.2263
10.3161
10.3857
10.4417
10.4914
10.5382
10.5857
10.6256
10.6575
10.6813
10.6948
10.6927
10.6748
10.6461
10.5963
10.5326
10.426
10.2719
10.0586
9.99747
1
1
1
1
1
1
1
1
1
1
1
1
1
1
1
1
1
1
1
1
1
1
1
1
1
2.62226
8.74164
10.0899
10.1689
10.2476
10.316
10.369
10.411
10.4465
10.4773
10.5049
10.5246
10.5377
10.537
10.5213
10.4865
10.433
10.347
10.2352
10.0662
9.86606
9.55125
9.50959
1
1
1
1
1
1
1
1
1
1
1
1
1
1
1
1
1
1
1
1
1
1
1
1
1
1.59702
7.94017
10.1733
10.1176
10.1897
10.248
10.2904
10.3236
10.3507
10.3715
10.3873
10.3931
10.3924
10.3727
10.3399
10.2826
10.2009
10.0764
9.91966
9.66343
9.296
8.38355
6.36278
1
1
1
1
1
1
1
1
1
1
1
1
1
1
1
1
1
1
1
1
1
1
1
1
1
1.04669
6.76473
10.1182
10.0414
10.0886
10.1488
10.1945
10.227
10.2487
10.2604
10.2644
10.2576
10.2396
10.2024
10.1505
10.0677
9.95593
9.78907
9.56641
9.21101
8.59193
7.62102
5.34803
1
1
1
1
1
1
1
1
1
1
1
1
1
1
1
1
1
1
1
1
1
1
1
1
1
1.00011
5.1923
9.64492
9.8662
9.97498
10.038
10.0866
10.1224
10.1406
10.1461
10.1403
10.1201
10.0864
10.0317
9.95991
9.85017
9.70696
9.49855
9.20934
8.78316
8.10951
7.01209
5.08737
1
1
1
1
1
1
1
1
1
1
1
1
1
1
1
1
1
1
1
1
1
1
1
1
1
0.999998
3.65174
9.19494
9.85507
9.92705
9.97617
10.0009
10.0223
10.0307
10.0285
10.0137
9.98019
9.93118
9.85845
9.76556
9.6329
9.46106
9.21752
8.88244
8.40041
7.71454
6.59916
5.08568
1
1
1
1
1
1
1
1
1
1
1
1
1
1
1
1
1
1
1
1
1
1
1
1
1
1
2.18359
8.38412
9.86743
9.85655
9.89283
9.91731
9.93356
9.92915
9.91508
9.88768
9.84082
9.77758
9.68728
9.57367
9.42193
9.2248
8.95507
8.59325
8.09414
7.40393
6.37104
5.20192
1
1
1
1
1
1
1
1
1
1
1
1
1
1
1
1
1
1
1
1
1
1
1
1
1
1
1.14846
7.13025
9.92363
9.82671
9.80862
9.82436
9.82935
9.81562
9.7927
9.75601
9.70025
9.62583
9.52102
9.38955
9.22067
9.00139
8.71619
8.34081
7.84878
7.17866
6.27168
5.32151
1
1
1
1
1
1
1
1
1
1
1
1
1
1
1
1
1
1
1
1
1
1
1
1
1
1
1.00191
5.4233
9.40903
9.62359
9.68241
9.70987
9.71209
9.69581
9.66568
9.62106
9.55683
9.47254
9.35741
9.21258
9.02999
8.7975
8.50347
8.12387
7.64591
7.01967
6.2451
5.43542
1
1
1
1
1
1
1
1
1
1
1
1
1
1
1
1
1
1
1
1
1
1
1
1
1
1
0.999976
3.45022
8.86267
9.5641
9.61643
9.63396
9.6223
9.59649
9.55541
9.50044
9.42565
9.33043
9.20611
9.05014
8.8555
8.61471
8.31773
7.94364
7.47952
6.90679
6.24693
5.53249
1
1
1
1
1
1
1
1
1
1
1
1
1
1
1
1
1
1
1
1
1
1
1
1
1
1
0.999994
1.74479
8.00924
9.62472
9.55467
9.54346
9.51928
9.48558
9.43687
9.37433
9.29167
9.18837
9.05684
8.89384
8.69282
8.44892
8.15459
7.79334
7.34626
6.82788
6.25222
5.62385
1
1
1
1
1
1
1
1
1
1
1
1
1
1
1
1
1
1
1
1
1
1
1
1
1
1
0.999999
1.05587
6.38644
9.39749
9.38245
9.40767
9.39219
9.36781
9.32025
9.25422
9.16593
9.05663
8.91981
8.75229
8.54731
8.30262
8.01183
7.66302
7.24167
6.77296
6.25568
5.70427
1
1
1
1
1
1
1
1
1
1
1
1
1
1
1
1
1
1
1
1
1
1
1
1
1
1
1
1.00009
4.12293
8.86826
9.30978
9.34218
9.31358
9.27881
9.22239
9.1474
9.05018
8.93204
8.78997
8.61987
8.41421
8.17542
7.88683
7.54772
7.159
6.73491
6.26242
5.77855
1
1
1
1
1
1
1
1
1
1
1
1
1
1
1
1
1
1
1
1
1
1
1
1
1
1
1
0.999998
2.02446
8.12219
9.33432
9.26002
9.21337
9.17252
9.11579
9.03839
8.9371
8.81451
8.66671
8.4981
8.29162
8.05982
7.77405
7.44881
7.09185
6.70357
6.26557
5.83754
1
1
1
1
1
1
1
1
1
1
1
1
1
1
1
1
1
1
1
1
1
1
1
1
1
1
1
1
1.09397
6.37317
9.13794
9.13768
9.10721
9.06937
9.01324
8.93461
8.83144
8.70673
8.55753
8.38444
8.18493
7.95276
7.67988
7.37178
7.04067
6.67721
6.2778
5.88758
1
1
1
1
1
1
1
1
1
1
1
1
1
1
1
1
1
1
1
1
1
1
1
1
1
1
1
1
1.00046
3.82133
8.59792
9.05347
9.02815
8.99981
8.9421
8.85274
8.74031
8.60943
8.45641
8.28136
8.08624
7.85329
7.59507
7.30588
6.99631
6.65193
6.29004
5.92388
1
1
1
1
1
1
1
1
1
1
1
1
1
1
1
1
1
1
1
1
1
1
1
1
1
1
1
1
0.999996
1.59437
7.68617
9.18479
9.00363
8.92296
8.85006
8.75253
8.63955
8.51229
8.3632
8.18756
7.99712
7.77135
7.52422
7.2523
6.96029
6.63647
6.30419
5.9573
1
1
1
1
1
1
1
1
1
1
1
1
1
1
1
1
1
1
1
1
1
1
1
1
1
1
1
1
0.999999
1.03107
5.71861
8.75867
8.79295
8.81414
8.74615
8.64796
8.53987
8.41857
8.27342
8.10415
7.91319
7.69932
7.46136
7.20339
6.92532
6.62274
6.31146
5.98497
1
1
1
1
1
1
1
1
1
1
1
1
1
1
1
1
1
1
1
1
1
1
1
1
1
1
1
1
1
0.999943
2.94853
8.09975
8.78559
8.7619
8.67394
8.57862
8.47368
8.35135
8.20431
8.03528
7.84517
7.63496
7.40522
7.15987
6.89504
6.6117
6.31758
6.01314
1
1
1
1
1
1
1
1
1
1
1
1
1
1
1
1
1
1
1
1
1
1
1
1
1
1
1
1
1
0.999982
1.26933
6.65752
8.82857
8.68102
8.58788
8.49771
8.39599
8.27436
8.12881
7.96368
7.78047
7.57733
7.35598
7.12017
6.86655
6.59777
6.31877
6.03469
1
1
1
1
1
1
1
1
1
1
1
1
1
1
1
1
1
1
1
1
1
1
1
1
1
1
1
1
1
0.999997
1.00577
4.06895
8.24874
8.51391
8.48771
8.43006
8.33719
8.21562
8.06998
7.90709
7.72748
7.52883
7.31326
7.08346
6.83964
6.58469
6.32078
6.05378
1
1
1
1
1
1
1
1
1
1
1
1
1
1
1
1
1
1
1
1
1
1
1
1
1
1
1
1
1
1
0.999982
1.58725
7.15076
8.64563
8.49473
8.39833
8.28873
8.157
8.00921
7.84864
7.67326
7.48041
7.27268
7.051
6.81727
6.57491
6.32409
6.07006
1
1
1
1
1
1
1
1
1
1
1
1
1
1
1
1
1
1
1
1
1
1
1
1
1
1
1
1
1
1
0.999995
1.02844
4.84006
8.25044
8.34435
8.3016
8.20985
8.08874
7.949
7.79456
7.62373
7.43618
7.2352
7.02111
6.79646
6.5648
6.32571
6.0833
1
1
1
1
1
1
1
1
1
1
1
1
1
1
1
1
1
1
1
1
1
1
1
1
1
1
1
1
1
1
0.999999
1.00002
1.90514
7.38461
8.45285
8.30408
8.17984
8.04964
7.90629
7.74978
7.57844
7.39368
7.19795
6.99155
6.7775
6.55754
6.32977
6.09687
1
1
1
1
1
1
1
1
1
1
1
1
1
1
1
1
1
1
1
1
1
1
1
1
1
1
1
1
1
1
1
1
1.06369
5.28455
8.17855
8.18957
8.10546
7.9874
7.8497
7.69641
7.52871
7.3496
7.16106
6.96398
6.76119
6.55094
6.3315
6.10299
1
1
1
1
1
1
1
1
1
1
1
1
1
1
1
1
1
1
1
1
1
1
1
1
1
1
1
1
1
1
1
1
1.00025
2.17857
7.36803
8.22073
8.07788
7.94982
7.80973
7.65673
7.4911
7.31616
7.13475
6.9455
6.75051
6.54481
6.329
6.10814
1
1
1
1
1
1
1
1
1
1
1
1
1
1
1
1
1
1
1
1
1
1
1
1
1
1
1
1
1
1
1
1
1
1.10206
5.37508
8.04952
8.01017
7.89259
7.75896
7.60987
7.44883
7.28005
7.10604
6.92405
6.73396
6.53077
6.32071
6.11492
1
1
1
1
1
1
1
1
1
1
1
1
1
1
1
1
1
1
1
1
1
1
1
1
1
1
1
1
1
1
1
1
1
1.00079
2.24273
7.19171
8.01653
7.86047
7.72624
7.57481
7.41564
7.25291
7.08657
6.90857
6.71958
6.5193
6.3292
6.20796
1
1
1
1
1
1
1
1
1
1
1
1
1
1
1
1
1
1
1
1
1
1
1
1
1
1
1
1
1
1
1
1
1
1
1.11139
5.17841
7.86138
7.81064
7.6765
7.52894
7.37696
7.22463
7.0629
6.88626
6.69783
6.52273
6.42382
6.52178
1
1
1
1
1
1
1
1
1
1
1
1
1
1
1
1
1
1
1
1
1
1
1
1
1
1
1
1
1
1
1
1
1
1
1.00105
2.14909
6.88222
7.79709
7.63279
7.49672
7.35674
7.2101
7.04461
6.86453
6.71299
6.66188
6.83179
7.19918
1
1
1
1
1
1
1
1
1
1
1
1
1
1
1
1
1
1
1
1
1
1
1
1
1
1
1
1
1
1
1
1
1
1
1
1.09463
4.65538
7.5996
7.59318
7.464
7.33359
7.18438
7.01256
6.86997
6.85193
7.10495
7.5846
7.83862
1
1
1
1
1
1
1
1
1
1
1
1
1
1
1
1
1
1
1
1
1
1
1
1
1
1
1
1
1
1
1
1
1
1
1
1.00094
1.8817
6.38637
7.5786
7.45109
7.33309
7.16184
7.02406
7.03459
7.38199
7.94357
8.29523
8.21954
1
1
1
1
1
1
1
1
1
1
1
1
1
1
1
1
1
1
1
1
1
1
1
1
1
1
1
1
1
1
1
1
1
1
1
1
1.05727
3.75327
7.22998
7.45375
7.30092
7.14775
7.14782
7.59654
8.26319
8.65254
8.60756
8.38458
1
1
1
1
1
1
1
1
1
1
1
1
1
1
1
1
1
1
1
1
1
1
1
1
1
1
1
1
1
1
1
1
1
1
1
1
1.00054
1.50991
5.69843
7.50942
7.24336
7.24178
7.78726
8.62254
9.02664
9.02608
8.75854
8.49044
1
1
1
1
1
1
1
1
1
1
1
1
1
1
1
1
1
1
1
1
1
1
1
1
1
1
1
1
1
1
1
1
1
1
1
1
1
1.02073
2.7843
6.82728
7.12713
7.87049
8.93993
9.38683
9.38929
9.17658
8.84555
8.60749
1
1
1
1
1
1
1
1
1
1
1
1
1
1
1
1
1
1
1
1
1
1
1
1
1
1
1
1
1
1
1
1
1
1
1
1
1
1.00015
1.21884
4.66008
7.42122
9.37763
9.891
9.74926
9.52511
9.21702
8.91179
8.73795
1
1
1
1
1
1
1
1
1
1
1
1
1
1
1
1
1
1
1
1
1
1
1
1
1
1
1
1
1
1
1
1
1
1
1
1
1
1
1.00467
1.91508
7.76528
10.4897
10.2043
9.87076
9.58735
9.28879
9.02112
8.89036
1
1
1
1
1
1
1
1
1
1
1
1
1
1
1
1
1
1
1
1
1
1
1
1
1
1
1
1
1
1
1
1
1
1
1
1
1
1
1.00003
1.06169
7.62692
10.8992
10.3234
9.93541
9.61991
9.34548
9.16142
9.04872
1
1
1
1
1
1
1
1
1
1
1
1
1
1
1
1
1
1
1
1
1
1
1
1
1
1
1
1
1
1
1
1
1
1
1
1
1
1
1
1.00045
6.54946
10.5195
9.9997
9.7775
9.61
9.4982
9.34614
9.20805
1
1
1
1
1
1
1
1
1
1
1
1
1
1
1
1
1
1
1
1
1
1
1
1
1
1
1
1
1
1
1
1
1
1
1
1
1
1
1
1
5.51937
10.2458
9.97611
9.90134
9.80335
9.69459
9.51891
9.36097
1
1
1
1
1
1
1
1
1
1
1
1
1
1
1
1
1
1
1
1
1
1
1
1
1
1
1
1
1
1
1
1
1
1
1
1
1
1
1
1
4.48631
9.7175
9.97944
9.94535
9.84707
9.7007
9.56546
9.43322
1
1
1
1
1
1
1
1
1
1
1
1
1
1
1
1
1
1
1
1
1
1
1
1
1
1
1
1
1
1
1
1
1
1
1
1
1
1
1
1
3.47968
9.28611
9.9553
9.91208
9.87807
9.79491
9.67331
9.55965
1
1
1
1
1
1
1
1
1
1
1
1
1
1
1
1
1
1
1
1
1
1
1
1
1
1
1
1
1
1
1
1
1
1
1
1
1
1
1
1
2.49249
8.69285
10.0954
9.99354
9.89577
9.79344
9.71929
9.61787
1
1
1
1
1
1
1
1
1
1
1
1
1
1
1
1
1
1
1
1
1
1
1
1
1
1
1
1
1
1
1
1
1
1
1
1
1
1
1
1
1.62827
8.03408
10.3028
10.0749
9.94956
9.85678
9.76273
9.65416
1
1
1
1
1
1
1
1
1
1
1
1
1
1
1
1
1
1
1
1
1
1
1
1
1
1
1
1
1
1
1
1
1
1
1
1
1
1
1
1
1.07072
7.24235
10.2755
10.0618
9.94924
9.8607
9.77615
9.68883
1
1
1
1
1
1
1
1
1
1
1
1
1
1
1
1
1
1
1
1
1
1
1
1
1
1
1
1
1
1
1
1
1
1
1
1
1
1
1
1
1.00069
6.33094
10.1782
10.0674
9.983
9.89784
9.80747
9.71723
1
1
1
1
1
1
1
1
1
1
1
1
1
1
1
1
1
1
1
1
1
1
1
1
1
1
1
1
1
1
1
1
1
1
1
1
1
1
1
1
0.999999
5.37575
10.0254
10.0876
10.0024
9.9246
9.83978
9.75175
1
1
1
1
1
1
1
1
1
1
1
1
1
1
1
1
1
1
1
1
1
1
1
1
1
1
1
1
1
1
1
1
1
1
1
1
1
1
1
1
1
4.5468
9.80128
10.1032
10.0181
9.95522
9.87174
9.78424
1
1
1
1
1
1
1
1
1
1
1
1
1
1
1
1
1
1
1
1
1
1
1
1
1
1
1
1
1
1
1
1
1
1
1
1
1
1
1
1
1
3.76951
9.54118
10.1464
10.0479
9.98681
9.9019
9.81622
1
1
1
1
1
1
1
1
1
1
1
1
1
1
1
1
1
1
1
1
1
1
1
1
1
1
1
1
1
1
1
1
1
1
1
1
1
1
1
1
1
3.05673
9.22258
10.2093
10.0845
10.0203
9.9323
9.84408
1
1
1
1
1
1
1
1
1
1
1
1
1
1
1
1
1
1
1
1
1
1
1
1
1
1
1
1
1
1
1
1
1
1
1
1
1
1
1
1
1
2.42224
8.84625
10.2991
10.123
10.0424
9.95078
9.86376
1
1
1
1
1
1
1
1
1
1
1
1
1
1
1
1
1
1
1
1
1
1
1
1
1
1
1
1
1
1
1
1
1
1
1
1
1
1
1
1
1
1.87109
8.45367
10.3777
10.1705
10.0749
9.97922
9.89019
1
1
1
1
1
1
1
1
1
1
1
1
1
1
1
1
1
1
1
1
1
1
1
1
1
1
1
1
1
1
1
1
1
1
1
1
1
1
1
1
1
1.47967
7.97569
10.4058
10.1896
10.0888
9.99665
9.90906
1
1
1
1
1
1
1
1
1
1
1
1
1
1
1
1
1
1
1
1
1
1
1
1
1
1
1
1
1
1
1
1
1
1
1
1
1
1
1
1
1
1.2705
7.52748
10.3952
10.2054
10.1147
10.024
9.93451
1
1
1
1
1
1
1
1
1
1
1
1
1
1
1
1
1
1
1
1
1
1
1
1
1
1
1
1
1
1
1
1
1
1
1
1
1
1
1
1
1
1.12525
7.0967
10.3429
10.2146
10.1272
10.0383
9.94945
1
1
1
1
1
1
1
1
1
1
1
1
1
1
1
1
1
1
1
1
1
1
1
1
1
1
1
1
1
1
1
1
1
1
1
1
1
1
1
1
1
1.00647
6.67962
10.2986
10.2366
10.1441
10.0594
9.97086
1
1
1
1
1
1
1
1
1
1
1
1
1
1
1
1
1
1
1
1
1
1
1
1
1
1
1
1
1
1
1
1
1
1
1
1
1
1
1
1
1
1.00006
6.23809
10.2256
10.2372
10.1328
10.0597
9.97564
1
1
1
1
1
1
1
1
1
1
1
1
1
1
1
1
1
1
1
1
1
1
1
1
1
1
1
1
1
1
1
1
1
1
1
1
1
1
1
1
1
1
5.80155
10.1833
10.2563
10.1453
10.0778
9.996
1
1
1
1
1
1
1
1
1
1
1
1
1
1
1
1
1
1
1
1
1
1
1
1
1
1
1
1
1
1
1
1
1
1
1
1
1
1
1
1
1
1
5.40456
10.1469
10.2733
10.1545
10.0871
10.0051
1
1
1
1
1
1
1
1
1
1
1
1
1
1
1
1
1
1
1
1
1
1
1
1
1
1
1
1
1
1
1
1
1
1
1
1
1
1
1
1
1
1
5.05787
10.1079
10.2914
10.1666
10.0978
10.0151
1
1
1
1
1
1
1
1
1
1
1
1
1
1
1
1
1
1
1
1
1
1
1
1
1
1
1
1
1
1
1
1
1
1
1
1
1
1
1
1
1
1
4.768
10.0644
10.3084
10.1789
10.1084
10.025
1
1
1
1
1
1
1
1
1
1
1
1
1
1
1
1
1
1
1
1
1
1
1
1
1
1
1
1
1
1
1
1
1
1
1
1
1
1
1
1
1
1
4.53527
10.0183
10.3231
10.1899
10.118
10.0339
1
1
1
1
1
1
1
1
1
1
1
1
1
1
1
1
1
1
1
1
1
1
1
1
1
1
1
1
1
1
1
1
1
1
1
1
1
1
1
1
1
1
4.35354
9.97483
10.3351
10.1987
10.1255
10.0406
1
1
1
1
1
1
1
1
1
1
1
1
1
1
1
1
1
1
1
1
1
1
1
1
1
1
1
1
1
1
1
1
1
1
1
1
1
1
1
1
1
1
4.21648
9.93939
10.3443
10.2055
10.1315
10.0463
1
1
1
1
1
1
1
1
1
1
1
1
1
1
1
1
1
1
1
1
1
1
1
1
1
1
1
1
1
1
1
1
1
1
1
1
1
1
1
1
1
1
4.12852
9.91122
10.3473
10.2079
10.1338
10.0488
1
1
1
1
1
1
1
1
1
1
1
1
1
1
1
1
1
1
1
1
1
1
1
1
1
1
1
1
1
1
1
1
1
1
1
1
1
1
1
1
1
1
4.094
9.88865
10.3447
10.2092
10.137
10.0523
1.26077
0.193222
0.0128366
0.0110872
0.0548701
0.116171
0.134923
0.169697
0.213448
0.258739
0.307763
0.351377
0.417231
0.517123
0.625934
0.714264
0.811693
0.892487
0.913867
0.940019
0.961309
0.95585
0.984536
1.04034
1.05369
1.06254
1.09466
1.12382
1.13008
1.14479
1.1638
1.18268
1.18875
1.88619
4.28752
5.00276
5.14395
5.20228
5.2159
5.21938
5.26743
5.3326
5.38295
5.40716
5.41889
5.43562
5.47119
5.5165
5.54634
5.55591
5.55404
5.54808
5.54188
5.53545
5.52849
5.52239
5.51833
5.51537
5.51147
5.50646
5.50318
5.50424
5.50632
5.50277
5.48934
5.46851
5.44785
5.43345
5.42503
5.41685
5.40091
5.37381
5.34144
5.31163
5.28752
5.26687
5.2456
5.22015
5.18971
5.15741
5.12811
5.10513
5.08787
5.07212
5.0529
5.0271
4.99522
4.96205
4.93186
4.90603
4.88327
4.8604
4.83428
4.80369
4.77023
4.7368
4.70478
4.67385
4.64309
4.61197
4.58062
4.54996
4.52084
4.49261
4.46271
4.4291
4.39217
4.35338
4.3143
4.27617
4.24052
4.20887
4.18068
4.15306
4.12389
4.0933
4.06169
4.02927
3.99584
3.96069
3.92405
3.8869
3.85039
3.81599
3.78526
3.75841
3.73325
3.70673
3.67718
3.64493
3.61189
3.57857
3.54606
3.51451
3.4837
3.45417
3.42738
3.40481
3.3859
3.3653
3.34072
3.31099
3.27543
3.23802
3.20554
3.18032
3.1625
3.14402
3.12008
3.08808
3.0523
3.01846
2.99161
2.9722
2.96369
2.9574
2.94665
2.93014
2.90538
2.86878
2.82647
2.78558
2.75408
2.73256
2.72058
2.71042
2.69716
2.6813
2.66368
2.6452
2.62764
2.61157
2.59605
2.57862
2.55291
2.51821
2.48106
2.44502
2.41502
2.42893
2.77158
3.50121
3.99355
4.1646
4.26702
4.30069
4.31645
4.32188
4.33735
4.37051
4.40828
4.443
2.09111
1.01814
0.433649
0.148435
0.159714
0.203248
0.190364
0.171032
0.176157
0.189754
0.217213
0.274287
0.352511
0.412055
0.450945
0.492302
0.556774
0.661918
0.72012
0.763389
0.824607
0.891935
0.953296
1.00949
1.02349
1.03645
1.06816
1.08597
1.09577
1.10988
1.12646
1.14224
1.15712
1.44265
3.89974
5.07638
5.11569
5.18194
5.24627
5.2527
5.26334
5.30939
5.36533
5.41398
5.44705
5.46717
5.48767
5.51023
5.52818
5.53765
5.54292
5.54797
5.5515
5.54924
5.53892
5.52384
5.5099
5.50267
5.50266
5.50557
5.50594
5.50207
5.49665
5.4927
5.48917
5.48135
5.46592
5.44508
5.42222
5.40026
5.38185
5.36552
5.34632
5.32302
5.29749
5.26998
5.24096
5.21259
5.18625
5.16099
5.13607
5.11211
5.08914
5.06645
5.04359
5.01977
4.99379
4.96566
4.93753
4.91031
4.88322
4.85557
4.8275
4.79893
4.76949
4.73923
4.70839
4.67672
4.64414
4.61135
4.5795
4.5492
4.5201
4.49075
4.45987
4.42668
4.39047
4.35231
4.31371
4.27656
4.2421
4.21038
4.18058
4.15204
4.12403
4.0945
4.0622
4.0277
3.99243
3.95692
3.92152
3.88662
3.8525
3.81957
3.78821
3.7583
3.72958
3.70103
3.67115
3.64093
3.60942
3.57583
3.54336
3.51408
3.48724
3.4621
3.43682
3.40991
3.38184
3.35448
3.32622
3.29759
3.27196
3.2501
3.22709
3.19771
3.1639
3.13208
3.10123
3.0723
3.04895
3.03035
3.01369
2.99742
2.98122
2.96318
2.9409
2.91132
2.87773
2.84633
2.82035
2.79876
2.77498
2.74749
2.72597
2.70827
2.69078
2.67434
2.66001
2.64824
2.63689
2.62464
2.60352
2.56509
2.52178
2.487
2.46073
2.44159
2.42978
2.44429
2.60748
3.30727
4.18412
4.38707
4.31001
4.3089
4.31852
4.33589
4.35895
4.38031
4.40193
4.43325
2.7236
1.78579
1.20609
0.713391
0.490415
0.459133
0.394486
0.30499
0.295337
0.307622
0.308243
0.318578
0.34707
0.368036
0.363619
0.366248
0.382491
0.439068
0.5284
0.605335
0.678758
0.776071
0.848015
0.92274
0.973725
1.00191
1.04328
1.07791
1.10237
1.116
1.13363
1.16221
1.18854
1.28475
2.96465
5.26096
5.50351
5.40866
5.37971
5.33304
5.3037
5.31672
5.35089
5.39633
5.44938
5.49291
5.51933
5.53191
5.53483
5.53093
5.52911
5.53846
5.55255
5.56116
5.55578
5.53516
5.51011
5.49017
5.48426
5.49251
5.50398
5.50596
5.49867
5.49056
5.48665
5.48401
5.47122
5.44305
5.40713
5.37416
5.35247
5.34597
5.34727
5.33888
5.31492
5.28277
5.24785
5.21433
5.18503
5.16026
5.13675
5.11116
5.08395
5.05801
5.03483
5.01509
4.99712
4.97492
4.94604
4.91301
4.87823
4.84455
4.8147
4.78994
4.76779
4.74313
4.71358
4.6799
4.64375
4.60748
4.5742
4.54543
4.51783
4.48762
4.45552
4.4215
4.3847
4.34727
4.30986
4.27453
4.24177
4.21048
4.18014
4.15206
4.12524
4.09382
4.05995
4.02522
3.98928
3.95329
3.91829
3.88455
3.85246
3.82169
3.79121
3.76023
3.72885
3.69778
3.66727
3.6364
3.6037
3.57001
3.54079
3.51639
3.49413
3.47046
3.44401
3.41254
3.37442
3.33788
3.31173
3.29102
3.27322
3.2556
3.23441
3.20203
3.15535
3.11326
3.08765
3.06899
3.05555
3.04713
3.03346
3.01344
2.98208
2.9418
2.90638
2.87807
2.85637
2.84013
2.8265
2.81272
2.79418
2.76649
2.73075
2.70412
2.68741
2.67361
2.66307
2.654
2.64075
2.62051
2.58175
2.53382
2.50184
2.48523
2.47461
2.47323
2.47276
2.47589
2.53837
2.99575
3.98163
4.62473
4.53211
4.3754
4.31309
4.33195
4.37139
4.39005
4.40216
4.42323
3.37606
2.47181
1.86808
1.311
0.971461
0.847524
0.713128
0.543898
0.512375
0.497402
0.445799
0.408119
0.416639
0.41764
0.405709
0.406374
0.413396
0.420324
0.431257
0.45147
0.490172
0.567464
0.652823
0.739743
0.845446
0.914845
0.951668
0.998939
1.04398
1.07323
1.09946
1.13765
1.20141
1.26212
1.93823
5.05066
5.89241
5.54078
5.44592
5.39899
5.38136
5.3996
5.41714
5.44179
5.47867
5.50378
5.51467
5.52535
5.53258
5.54117
5.54896
5.55415
5.55247
5.54728
5.53922
5.52637
5.51289
5.50183
5.49819
5.50311
5.5101
5.5102
5.49864
5.48235
5.4707
5.46677
5.45966
5.43887
5.41022
5.38276
5.36332
5.35814
5.36268
5.35107
5.31699
5.27557
5.23245
5.19463
5.16574
5.14894
5.13577
5.1175
5.09424
5.06818
5.04134
5.01554
4.99229
4.96773
4.93502
4.8999
4.86597
4.83662
4.8134
4.79435
4.77392
4.74614
4.71085
4.67305
4.63551
4.601
4.57212
4.54654
4.51799
4.48486
4.45055
4.4151
4.37969
4.34503
4.31035
4.27512
4.2412
4.20916
4.17822
4.15015
4.12163
4.08997
4.05775
4.02348
3.98648
3.94886
3.91335
3.88127
3.8518
3.82285
3.79307
3.76169
3.72847
3.6944
3.66096
3.62855
3.59732
3.56915
3.54419
3.52021
3.4957
3.46962
3.44063
3.40775
3.3717
3.33612
3.30905
3.28974
3.27229
3.25343
3.22946
3.19513
3.15375
3.11612
3.0912
3.07446
3.06303
3.05353
3.03695
3.01291
2.97311
2.92462
2.88928
2.86826
2.85289
2.84052
2.82928
2.81483
2.79793
2.77504
2.74346
2.71049
2.68787
2.67346
2.65986
2.64483
2.62379
2.59303
2.55668
2.528
2.51088
2.49986
2.49201
2.49271
2.49402
2.52509
2.65714
3.00093
3.67322
4.47956
4.67445
4.54158
4.40087
4.34803
4.35921
4.37122
4.37718
4.38929
3.90988
3.01373
2.44456
1.92327
1.48987
1.25802
1.05729
0.831352
0.760962
0.721773
0.654547
0.595161
0.589049
0.570243
0.526471
0.505399
0.496214
0.47864
0.472045
0.477988
0.490821
0.495577
0.504614
0.525039
0.576599
0.65399
0.710881
0.79415
0.892675
0.973258
1.04755
1.1078
1.21799
1.33738
1.56174
4.07013
6.11101
5.94097
5.69943
5.56415
5.4792
5.46096
5.46014
5.47106
5.48542
5.49227
5.50197
5.53322
5.57196
5.59715
5.59325
5.56379
5.53345
5.52268
5.52463
5.53743
5.54741
5.54573
5.53333
5.51558
5.50154
5.49381
5.48702
5.47905
5.47638
5.47597
5.46532
5.4453
5.42088
5.39436
5.37231
5.35945
5.3469
5.31784
5.27998
5.23914
5.20412
5.17804
5.16988
5.17266
5.16393
5.13819
5.10433
5.06355
5.02588
4.9943
4.96943
4.9509
4.92727
4.90017
4.8736
4.84849
4.82399
4.79784
4.76652
4.7312
4.69432
4.65991
4.62925
4.60388
4.57956
4.54936
4.51547
4.47999
4.4452
4.41168
4.37873
4.34518
4.30956
4.27149
4.23492
4.20272
4.17342
4.14748
4.11917
4.08882
4.05645
4.02015
3.98057
3.94208
3.90828
3.87861
3.85035
3.82195
3.79264
3.76151
3.72771
3.69193
3.65678
3.62477
3.59641
3.56991
3.54306
3.51528
3.48729
3.45963
3.43212
3.40503
3.37805
3.34913
3.31698
3.2864
3.2626
3.23981
3.21268
3.18358
3.15715
3.13239
3.1063
3.08376
3.06606
3.04779
3.02438
2.99385
2.9583
2.92473
2.89542
2.87156
2.85403
2.83911
2.82442
2.81004
2.79488
2.7761
2.75174
2.72398
2.69562
2.67092
2.6524
2.63294
2.60472
2.574
2.55318
2.54023
2.52663
2.51065
2.5031
2.5017
2.5342
2.6816
2.94551
3.13725
3.37987
4.00967
4.51049
4.57243
4.487
4.38112
4.3329
4.32071
4.32655
4.34804
4.29207
3.49236
2.89897
2.40101
1.98082
1.66393
1.41005
1.15238
1.02529
0.959719
0.866408
0.793867
0.77155
0.740227
0.676865
0.630703
0.612541
0.585184
0.557375
0.5554
0.556095
0.550369
0.539769
0.541079
0.538062
0.541175
0.549788
0.578869
0.648494
0.753702
0.881163
1.02587
1.19696
1.40379
1.54885
2.38479
5.54441
6.21564
5.95874
5.71997
5.57899
5.52035
5.51476
5.52107
5.52086
5.53416
5.55097
5.5691
5.58049
5.58096
5.56917
5.55082
5.54009
5.54058
5.54902
5.55886
5.55984
5.54544
5.51802
5.49552
5.48784
5.49072
5.50182
5.50758
5.49873
5.48051
5.4542
5.42789
5.40583
5.38527
5.36804
5.34892
5.32226
5.29262
5.26376
5.23787
5.21927
5.21063
5.20752
5.19405
5.16493
5.12631
5.0796
5.03867
5.00829
4.98531
4.97304
4.96192
4.94082
4.91362
4.8827
4.84841
4.81429
4.78099
4.74805
4.71639
4.68732
4.662
4.63943
4.61392
4.58257
4.5479
4.51039
4.47505
4.44286
4.41149
4.3788
4.34379
4.30506
4.26492
4.22985
4.19995
4.17387
4.14766
4.11801
4.08637
4.05097
4.01157
3.97208
3.93679
3.90559
3.87618
3.84732
3.81863
3.78955
3.7592
3.72672
3.69217
3.65738
3.62492
3.5952
3.56635
3.53703
3.50672
3.47646
3.44935
3.42667
3.4063
3.38608
3.36299
3.33271
3.29179
3.24871
3.2157
3.19274
3.1755
3.16033
3.14467
3.12482
3.09812
3.06315
3.02752
2.99682
2.96996
2.94875
2.93089
2.91149
2.8877
2.86109
2.83896
2.82353
2.80935
2.79143
2.77148
2.75185
2.73269
2.70991
2.67861
2.64337
2.61317
2.58975
2.57316
2.56191
2.55063
2.53777
2.5231
2.52047
2.55154
2.70454
2.95971
3.21247
3.29432
3.3525
3.55659
4.10452
4.46726
4.48531
4.41553
4.32205
4.28123
4.27832
4.30871
4.58432
3.8861
3.29766
2.79818
2.38295
2.0377
1.7476
1.47301
1.33161
1.23045
1.11474
1.00324
0.963935
0.914891
0.832304
0.773031
0.74715
0.71237
0.67547
0.672423
0.664384
0.648752
0.627833
0.597918
0.569628
0.55555
0.555727
0.560833
0.57644
0.61605
0.682931
0.807316
0.991356
1.2492
1.41226
1.53898
3.68025
6.11576
6.12275
5.80011
5.63258
5.53832
5.5332
5.56334
5.5908
5.59774
5.58514
5.56575
5.55466
5.55306
5.56181
5.56947
5.5699
5.56254
5.55161
5.5365
5.52253
5.51699
5.51052
5.50407
5.50266
5.50748
5.50898
5.49809
5.47633
5.44655
5.42077
5.40216
5.39036
5.38831
5.37985
5.35509
5.32464
5.29678
5.27261
5.25443
5.24191
5.22642
5.19982
5.16642
5.12787
5.09005
5.05826
5.03234
5.01447
5.00396
4.99268
4.9701
4.94015
4.90635
4.86773
4.8296
4.7968
4.7672
4.74064
4.71766
4.69639
4.67294
4.64403
4.61145
4.57475
4.53729
4.50346
4.47259
4.44272
4.41064
4.37617
4.33834
4.29821
4.26193
4.2315
4.20469
4.17774
4.14735
4.11454
4.0787
4.03994
4.00127
3.96638
3.93506
3.9048
3.8744
3.84385
3.8136
3.78384
3.75426
3.72412
3.69256
3.65903
3.62439
3.59089
3.55977
3.53043
3.50157
3.4725
3.44526
3.42288
3.40344
3.38475
3.36426
3.33729
3.29732
3.24766
3.20777
3.18539
3.1693
3.15678
3.14477
3.1266
3.1015
3.06082
3.01333
2.97895
2.95844
2.94375
2.93273
2.9194
2.90166
2.87855
2.84848
2.81715
2.79017
2.76994
2.75534
2.74326
2.72997
2.71239
2.68554
2.64608
2.60739
2.58605
2.57359
2.56267
2.5518
2.5442
2.54689
2.58514
2.73074
3.01854
3.22625
3.36596
3.37821
3.35919
3.37202
3.59371
4.08834
4.42238
4.42212
4.34653
4.27502
4.25136
4.27832
4.81632
4.18781
3.61456
3.16067
2.73682
2.36657
2.08086
1.81036
1.61191
1.50679
1.37013
1.23313
1.17016
1.10249
0.986599
0.901732
0.87645
0.84008
0.796354
0.789937
0.780705
0.754629
0.727555
0.694651
0.650959
0.622492
0.613992
0.617435
0.647332
0.719948
0.80543
0.926954
1.02939
1.07262
1.16381
1.21192
1.64124
4.78553
6.04638
5.85923
5.69724
5.59149
5.57519
5.62131
5.64446
5.63981
5.61006
5.56279
5.54487
5.55275
5.57522
5.59682
5.59508
5.58092
5.55493
5.52836
5.51463
5.51542
5.52631
5.52993
5.52088
5.50649
5.48934
5.47073
5.45112
5.43199
5.41475
5.40311
5.40081
5.40181
5.38648
5.35941
5.32723
5.29624
5.27043
5.25231
5.2365
5.20959
5.17742
5.141
5.10665
5.07878
5.05794
5.04492
5.03347
5.01576
4.98846
4.95683
4.92256
4.8868
4.8513
4.81911
4.79108
4.76696
4.74649
4.72614
4.70075
4.6704
4.63605
4.5976
4.56056
4.52872
4.49994
4.47261
4.44161
4.40742
4.36969
4.32961
4.29373
4.264
4.23726
4.20951
4.17819
4.14376
4.10645
4.06753
4.02976
3.99555
3.96432
3.93396
3.90326
3.87181
3.83979
3.80791
3.77708
3.74765
3.71895
3.68934
3.65683
3.62097
3.58536
3.55402
3.5266
3.50103
3.47585
3.44995
3.4228
3.39632
3.37326
3.35115
3.32473
3.29173
3.25687
3.22335
3.19165
3.16697
3.14927
3.13331
3.11547
3.08999
3.05287
3.011
2.97937
2.95971
2.94459
2.93325
2.92273
2.90779
2.88882
2.85838
2.81417
2.77767
2.75749
2.74325
2.72976
2.71641
2.70178
2.68274
2.65568
2.62315
2.59715
2.57943
2.56617
2.55797
2.56324
2.60694
2.76365
3.05981
3.28214
3.38454
3.4257
3.40668
3.36146
3.33351
3.36085
3.60593
4.09622
4.37379
4.35684
4.30739
4.2703
4.28306
5.01796
4.43286
3.89149
3.46893
3.06669
2.66414
2.39803
2.15641
1.88731
1.75352
1.63764
1.4642
1.36069
1.27991
1.14959
1.05806
1.02963
0.989671
0.927957
0.909895
0.898086
0.865397
0.81571
0.778206
0.738431
0.71947
0.720707
0.744974
0.827775
0.922704
1.01028
1.06709
1.10579
1.14846
1.20826
1.24037
1.24554
2.16544
5.19225
5.87869
5.69582
5.60817
5.6043
5.66261
5.68057
5.6619
5.61512
5.57025
5.55823
5.56648
5.59607
5.61489
5.60806
5.58943
5.56295
5.54094
5.52568
5.52893
5.54366
5.54176
5.5243
5.49803
5.47165
5.45438
5.44257
5.43586
5.43019
5.42394
5.41409
5.39569
5.372
5.34465
5.31474
5.28451
5.25925
5.24084
5.22389
5.19756
5.16726
5.13516
5.10756
5.08546
5.06996
5.0561
5.03459
5.00502
4.97248
4.93858
4.90679
4.87733
4.84953
4.82264
4.79691
4.77263
4.74825
4.72074
4.69042
4.65701
4.61997
4.58347
4.55207
4.52449
4.49938
4.4705
4.43751
4.4003
4.35954
4.3223
4.29223
4.26553
4.23813
4.20743
4.17322
4.13569
4.09717
4.06087
4.0277
3.99603
3.96425
3.93185
3.89906
3.86644
3.83433
3.80282
3.772
3.74195
3.71239
3.68209
3.64931
3.61441
3.58147
3.55294
3.52706
3.50275
3.4794
3.45525
3.42783
3.39559
3.3607
3.32806
3.30022
3.27803
3.2593
3.23925
3.21319
3.17992
3.14498
3.11646
3.09111
3.06457
3.03858
3.01679
2.99606
2.97218
2.94937
2.93245
2.91829
2.90403
2.88559
2.85732
2.81723
2.77797
2.75114
2.73328
2.71884
2.70474
2.68959
2.67378
2.65794
2.64048
2.61724
2.58924
2.56812
2.57057
2.61356
2.77381
3.05057
3.29884
3.44253
3.48197
3.46906
3.43278
3.37977
3.32683
3.32272
3.36254
3.62824
4.09394
4.30251
4.33033
4.32139
4.32445
5.17077
4.62441
4.14451
3.7363
3.34365
2.96091
2.68217
2.44362
2.18507
1.99469
1.86937
1.69003
1.54948
1.46176
1.31506
1.20666
1.17603
1.13925
1.08219
1.04386
1.01399
0.970788
0.899184
0.838083
0.827088
0.835699
0.859688
0.947084
1.08823
1.17872
1.21028
1.21251
1.2353
1.27504
1.31189
1.3394
1.3444
1.35842
2.48547
5.09249
5.72256
5.68135
5.70021
5.72364
5.70593
5.67972
5.6331
5.60613
5.59577
5.60507
5.62547
5.62039
5.60123
5.57859
5.562
5.55039
5.54488
5.54924
5.55138
5.53735
5.51579
5.49076
5.46974
5.45318
5.44819
5.45257
5.4508
5.43415
5.40833
5.37655
5.34768
5.32401
5.30167
5.27636
5.25256
5.23278
5.21421
5.19303
5.16841
5.14275
5.11831