/*--------------------------------*- C++ -*----------------------------------*\
  =========                 |
  \\      /  F ield         | OpenFOAM: The Open Source CFD Toolbox
   \\    /   O peration     | Website:  https://openfoam.org
    \\  /    A nd           | Version:  10
     \\/     M anipulation  |
\*---------------------------------------------------------------------------*/
FoamFile
{
    format      ascii;
    class       volScalarField;
    location    "8";
    object      T;
}
// * * * * * * * * * * * * * * * * * * * * * * * * * * * * * * * * * * * * * //

dimensions      [0 0 0 1 0 0 0];

internalField   nonuniform List<scalar> 
16128
(
1
1
1
1
1
1
1
1
1
1
1
1
1
1
1
1
1
1
1
1
1
1
1
1
2.06814
2.68195
2.70464
2.71156
2.72027
2.72784
2.73503
2.74179
2.74827
2.75458
2.76081
2.7669
2.77261
2.77767
2.78211
2.7863
2.79059
2.79479
2.79847
2.80143
2.8041
2.80637
2.80808
2.80973
1
1
1
1
1
1
1
1
1
1
1
1
1
1
1
1
1
1
1
1
1
1
1
1
2.05766
2.67967
2.70432
2.7113
2.71997
2.72753
2.73469
2.74141
2.74785
2.75415
2.76037
2.7664
2.77203
2.77705
2.78151
2.78573
2.78994
2.79394
2.79746
2.80039
2.80315
2.80549
2.80717
2.80869
1
1
1
1
1
1
1
1
1
1
1
1
1
1
1
1
1
1
1
1
1
1
1
1
2.03147
2.67617
2.7032
2.71033
2.71901
2.72661
2.7338
2.74053
2.747
2.75334
2.75956
2.76553
2.77107
2.7761
2.78067
2.78491
2.78895
2.79265
2.79598
2.79893
2.80177
2.80412
2.80559
2.80692
1
1
1
1
1
1
1
1
1
1
1
1
1
1
1
1
1
1
1
1
1
1
1
1
1.99171
2.66986
2.70132
2.70864
2.71735
2.72502
2.73227
2.73904
2.74554
2.75191
2.75812
2.76401
2.76948
2.77453
2.77919
2.78346
2.78736
2.79085
2.79408
2.79706
2.79985
2.80204
2.80303
2.80426
1
1
1
1
1
1
1
1
1
1
1
1
1
1
1
1
1
1
1
1
1
1
1
1
1.93791
2.66008
2.69834
2.70584
2.71465
2.72247
2.72986
2.73679
2.74339
2.74982
2.75602
2.76184
2.76722
2.77221
2.77688
2.78115
2.78501
2.78845
2.7917
2.79467
2.79717
2.799
2.79966
2.80206
1
1
1
1
1
1
1
1
1
1
1
1
1
1
1
1
1
1
1
1
1
1
1
1
1.86633
2.64475
2.69422
2.70205
2.71106
2.7191
2.72678
2.734
2.74084
2.74738
2.75362
2.75938
2.76466
2.76954
2.77411
2.77832
2.78215
2.78556
2.78879
2.79172
2.79415
2.79602
2.7947
2.79821
1
1
1
1
1
1
1
1
1
1
1
1
1
1
1
1
1
1
1
1
1
1
1
1
1.77511
2.62123
2.68924
2.69738
2.70647
2.7146
2.72253
2.73008
2.73721
2.74391
2.75019
2.75592
2.76114
2.76593
2.77042
2.77461
2.77849
2.78194
2.78502
2.78771
2.78986
2.79168
2.78978
2.79392
1
1
1
1
1
1
1
1
1
1
1
1
1
1
1
1
1
1
1
1
1
1
1
1
1.66467
2.58951
2.68488
2.69232
2.70119
2.70913
2.71706
2.72478
2.73215
2.73903
2.74541
2.75118
2.75641
2.76121
2.76568
2.76988
2.77386
2.77737
2.78038
2.78292
2.78486
2.78649
2.78395
2.78846
1
1
1
1
1
1
1
1
1
1
1
1
1
1
1
1
1
1
1
1
1
1
1
1
1.5331
2.54496
2.68151
2.68671
2.69545
2.7031
2.711
2.71887
2.72647
2.73353
2.74001
2.74579
2.751
2.75575
2.76017
2.76432
2.7682
2.77159
2.77443
2.77688
2.77879
2.7804
2.77762
2.78107
1
1
1
1
1
1
1
1
1
1
1
1
1
1
1
1
1
1
1
1
1
1
1
1
1.36627
2.47519
2.67608
2.67955
2.68859
2.69576
2.70353
2.71149
2.7194
2.72677
2.73345
2.73935
2.7446
2.74932
2.7537
2.75774
2.7615
2.76478
2.76743
2.76963
2.77117
2.77284
2.77091
2.77157
1
1
1
1
1
1
1
1
1
1
1
1
1
1
1
1
1
1
1
1
1
1
1
1
1.17204
2.39424
2.6764
2.67192
2.68015
2.68726
2.69515
2.70311
2.71106
2.71865
2.72557
2.73167
2.73704
2.74181
2.74617
2.75013
2.75365
2.75662
2.7589
2.76085
2.76213
2.763
2.75945
2.76244
1
1
1
1
1
1
1
1
1
1
1
1
1
1
1
1
1
1
1
1
1
1
1
1
1.00974
2.31538
2.67116
2.66962
2.67626
2.6818
2.68815
2.69508
2.70254
2.70985
2.71665
2.72279
2.72822
2.73302
2.73734
2.74121
2.74447
2.74713
2.74903
2.75059
2.75114
2.75097
2.74675
2.74899
1
1
1
1
1
1
1
1
1
1
1
1
1
1
1
1
1
1
1
1
1
1
1
1
1.00004
2.20172
2.668
2.67027
2.67563
2.681
2.68574
2.69052
2.69536
2.7012
2.70728
2.71302
2.71826
2.72291
2.72712
2.73089
2.73395
2.73615
2.73704
2.73726
2.73613
2.73458
2.72912
2.73269
1
1
1
1
1
1
1
1
1
1
1
1
1
1
1
1
1
1
1
1
1
1
1
1
1
2.05231
2.65243
2.66902
2.67404
2.679
2.68265
2.68598
2.68974
2.69382
2.69816
2.7028
2.7073
2.71152
2.71551
2.71896
2.72137
2.72284
2.72257
2.7217
2.71945
2.71644
2.70735
2.70407
1
1
1
1
1
1
1
1
1
1
1
1
1
1
1
1
1
1
1
1
1
1
1
1
1
1.85591
2.60373
2.66129
2.67065
2.67715
2.68127
2.68372
2.68559
2.68763
2.69037
2.69329
2.69629
2.69956
2.7029
2.70528
2.70675
2.7073
2.7059
2.70299
2.69678
2.68699
2.67096
2.66419
1
1
1
1
1
1
1
1
1
1
1
1
1
1
1
1
1
1
1
1
1
1
1
1
1
1.59846
2.50564
2.63895
2.65649
2.66793
2.67525
2.67934
2.68154
2.6829
2.68392
2.68502
2.68619
2.6878
2.68936
2.69029
2.69026
2.68936
2.6859
2.67987
2.66906
2.65594
2.63646
2.64103
1
1
1
1
1
1
1
1
1
1
1
1
1
1
1
1
1
1
1
1
1
1
1
1
1
1.25565
2.37847
2.62187
2.63492
2.65022
2.66172
2.66931
2.67394
2.67649
2.67749
2.67759
2.67731
2.67709
2.67605
2.67493
2.67279
2.66957
2.6634
2.65433
2.63704
2.61065
2.54478
2.39972
1
1
1
1
1
1
1
1
1
1
1
1
1
1
1
1
1
1
1
1
1
1
1
1
1
1.01909
2.2723
2.62424
2.6214
2.62899
2.64087
2.65204
2.66054
2.66607
2.6687
2.66907
2.66823
2.66641
2.66332
2.65979
2.65483
2.64865
2.63891
2.62475
2.5996
2.55211
2.47652
2.26881
1
1
1
1
1
1
1
1
1
1
1
1
1
1
1
1
1
1
1
1
1
1
1
1
1
1.00006
2.09802
2.60561
2.60815
2.61413
2.62248
2.63278
2.64291
2.65081
2.65611
2.65825
2.65764
2.6554
2.65105
2.64538
2.63734
2.62766
2.61378
2.59382
2.5624
2.50902
2.41409
2.21074
1
1
1
1
1
1
1
1
1
1
1
1
1
1
1
1
1
1
1
1
1
1
1
1
1
0.999999
1.8342
2.56196
2.60887
2.61139
2.61487
2.61962
2.62639
2.63341
2.63992
2.64405
2.64437
2.64267
2.63805
2.63095
2.62054
2.60747
2.58948
2.56463
2.52741
2.47101
2.3678
2.20026
1
1
1
1
1
1
1
1
1
1
1
1
1
1
1
1
1
1
1
1
1
1
1
1
1
1
1.45613
2.44201
2.60237
2.60447
2.60769
2.61041
2.61432
2.61809
2.62292
2.6272
2.62857
2.62754
2.6234
2.61591
2.6043
2.58859
2.56715
2.53846
2.49803
2.43894
2.33999
2.21024
1
1
1
1
1
1
1
1
1
1
1
1
1
1
1
1
1
1
1
1
1
1
1
1
1
1
1.05947
2.2946
2.60079
2.59772
2.59917
2.60167
2.60367
2.6047
2.60674
2.60935
2.61077
2.61015
2.60668
2.59959
2.58785
2.57065
2.54722
2.51585
2.47401
2.41428
2.3257
2.22111
1
1
1
1
1
1
1
1
1
1
1
1
1
1
1
1
1
1
1
1
1
1
1
1
1
1
1.00076
2.11344
2.56453
2.57789
2.58605
2.59087
2.59285
2.59273
2.59254
2.5927
2.59255
2.59145
2.58801
2.58138
2.57021
2.55314
2.52925
2.49674
2.45444
2.39652
2.31932
2.23111
1
1
1
1
1
1
1
1
1
1
1
1
1
1
1
1
1
1
1
1
1
1
1
1
1
1
0.999993
1.77453
2.49761
2.56056
2.57435
2.58042
2.58251
2.58237
2.58116
2.57931
2.57685
2.57384
2.56929
2.56232
2.55146
2.53523
2.51224
2.4805
2.4387
2.38433
2.31754
2.2396
1
1
1
1
1
1
1
1
1
1
1
1
1
1
1
1
1
1
1
1
1
1
1
1
1
1
0.999998
1.29595
2.3637
2.55251
2.55709
2.56404
2.56813
2.56959
2.56867
2.56629
2.56241
2.5575
2.5512
2.54306
2.53193
2.51646
2.49502
2.46549
2.4256
2.37605
2.31729
2.2486
1
1
1
1
1
1
1
1
1
1
1
1
1
1
1
1
1
1
1
1
1
1
1
1
1
1
1
1.02249
2.21452
2.53577
2.53653
2.54358
2.54893
2.55347
2.55421
2.55274
2.54887
2.54304
2.53526
2.52559
2.51338
2.49783
2.47746
2.45018
2.4137
2.36957
2.31711
2.25724
1
1
1
1
1
1
1
1
1
1
1
1
1
1
1
1
1
1
1
1
1
1
1
1
1
1
1
1.00006
1.89633
2.48708
2.52414
2.53299
2.53469
2.53786
2.53919
2.53825
2.53492
2.529
2.5206
2.50986
2.49649
2.48061
2.46023
2.43433
2.40186
2.36324
2.31645
2.26489
1
1
1
1
1
1
1
1
1
1
1
1
1
1
1
1
1
1
1
1
1
1
1
1
1
1
1
1
1.38514
2.36875
2.51754
2.51719
2.51881
2.52127
2.52278
2.52219
2.51953
2.51431
2.5061
2.49544
2.48132
2.46505
2.44406
2.41905
2.3899
2.35581
2.31386
2.26954
1
1
1
1
1
1
1
1
1
1
1
1
1
1
1
1
1
1
1
1
1
1
1
1
1
1
1
1
1.0373
2.19917
2.49932
2.50098
2.50268
2.50505
2.50645
2.50585
2.50347
2.49889
2.49149
2.48112
2.46767
2.45088
2.43019
2.40594
2.37885
2.34736
2.31029
2.27126
1
1
1
1
1
1
1
1
1
1
1
1
1
1
1
1
1
1
1
1
1
1
1
1
1
1
1
1
1.00021
1.8253
2.43893
2.48418
2.48799
2.49157
2.49246
2.49108
2.48799
2.48323
2.47618
2.46646
2.45401
2.43736
2.41766
2.39452
2.36883
2.33878
2.30571
2.27017
1
1
1
1
1
1
1
1
1
1
1
1
1
1
1
1
1
1
1
1
1
1
1
1
1
1
1
1
0.999999
1.2308
2.29876
2.48511
2.47617
2.47724
2.47703
2.47496
2.47164
2.46712
2.46061
2.45138
2.44002
2.42458
2.40616
2.38451
2.36011
2.33175
2.30139
2.26814
1
1
1
1
1
1
1
1
1
1
1
1
1
1
1
1
1
1
1
1
1
1
1
1
1
1
1
1
1
1.01231
2.11344
2.45209
2.45463
2.46166
2.46017
2.45787
2.45503
2.45102
2.44486
2.43634
2.42539
2.41159
2.39458
2.3746
2.35164
2.32519
2.29674
2.26552
1
1
1
1
1
1
1
1
1
1
1
1
1
1
1
1
1
1
1
1
1
1
1
1
1
1
1
1
1
1
1.62851
2.36274
2.44422
2.44905
2.44677
2.44429
2.44131
2.43699
2.43055
2.42203
2.4113
2.39823
2.38252
2.36431
2.34306
2.31876
2.29214
2.26321
1
1
1
1
1
1
1
1
1
1
1
1
1
1
1
1
1
1
1
1
1
1
1
1
1
1
1
1
1
0.999997
1.10539
2.19956
2.44166
2.43264
2.43135
2.42978
2.42703
2.42252
2.41591
2.40749
2.39724
2.38485
2.37019
2.35336
2.3337
2.31139
2.28674
2.26022
1
1
1
1
1
1
1
1
1
1
1
1
1
1
1
1
1
1
1
1
1
1
1
1
1
1
1
1
1
0.999999
1.00228
1.85181
2.38268
2.40871
2.4131
2.41502
2.41353
2.40939
2.4028
2.39439
2.38424
2.37207
2.35795
2.34188
2.32364
2.30324
2.2807
2.25651
1
1
1
1
1
1
1
1
1
1
1
1
1
1
1
1
1
1
1
1
1
1
1
1
1
1
1
1
1
1
0.999996
1.22282
2.22624
2.4103
2.40227
2.40213
2.40017
2.39574
2.38933
2.38125
2.37138
2.35954
2.34595
2.33057
2.31346
2.29466
2.27395
2.2517
1
1
1
1
1
1
1
1
1
1
1
1
1
1
1
1
1
1
1
1
1
1
1
1
1
1
1
1
1
1
0.999999
1.01106
1.96797
2.37265
2.38312
2.38389
2.38278
2.37988
2.37493
2.36797
2.35878
2.34746
2.33438
2.31958
2.30326
2.2856
2.26637
2.24577
1
1
1
1
1
1
1
1
1
1
1
1
1
1
1
1
1
1
1
1
1
1
1
1
1
1
1
1
1
1
1
1.00002
1.32726
2.2325
2.38077
2.37361
2.37017
2.36627
2.3611
2.35435
2.34567
2.33503
2.32264
2.30862
2.29327
2.27674
2.25873
2.23937
1
1
1
1
1
1
1
1
1
1
1
1
1
1
1
1
1
1
1
1
1
1
1
1
1
1
1
1
1
1
1
1
1.0247
2.0205
2.35164
2.35858
2.35547
2.35127
2.34607
2.33952
2.33143
2.32171
2.31037
2.29752
2.28342
2.26791
2.25079
2.23201
1
1
1
1
1
1
1
1
1
1
1
1
1
1
1
1
1
1
1
1
1
1
1
1
1
1
1
1
1
1
1
1
1.0001
1.40716
2.22218
2.34969
2.34248
2.33814
2.33272
2.32602
2.31805
2.30891
2.29863
2.28688
2.27381
2.25896
2.24239
2.22422
1
1
1
1
1
1
1
1
1
1
1
1
1
1
1
1
1
1
1
1
1
1
1
1
1
1
1
1
1
1
1
1
1
1.03965
2.02204
2.32896
2.3284
2.32371
2.31844
2.31195
2.30427
2.29563
2.28612
2.27533
2.26309
2.24891
2.23286
2.21625
1
1
1
1
1
1
1
1
1
1
1
1
1
1
1
1
1
1
1
1
1
1
1
1
1
1
1
1
1
1
1
1
1
1.0003
1.42181
2.19854
2.31864
2.31008
2.30531
2.29888
2.2914
2.28325
2.2744
2.26407
2.25214
2.23825
2.22369
2.21894
1
1
1
1
1
1
1
1
1
1
1
1
1
1
1
1
1
1
1
1
1
1
1
1
1
1
1
1
1
1
1
1
1
1
1.04322
1.98779
2.29983
2.29824
2.29179
2.28506
2.27801
2.27072
2.26228
2.25209
2.24017
2.22667
2.22686
2.24041
1
1
1
1
1
1
1
1
1
1
1
1
1
1
1
1
1
1
1
1
1
1
1
1
1
1
1
1
1
1
1
1
1
1
1.00039
1.39329
2.16097
2.28757
2.27771
2.2723
2.26646
2.25967
2.25073
2.23994
2.23078
2.23328
2.2552
2.2946
1
1
1
1
1
1
1
1
1
1
1
1
1
1
1
1
1
1
1
1
1
1
1
1
1
1
1
1
1
1
1
1
1
1
1
1.03659
1.90268
2.26071
2.26712
2.26055
2.25473
2.2476
2.23781
2.23022
2.23532
2.2649
2.31334
2.34004
1
1
1
1
1
1
1
1
1
1
1
1
1
1
1
1
1
1
1
1
1
1
1
1
1
1
1
1
1
1
1
1
1
1
1
1.00033
1.31181
2.09887
2.255
2.24865
2.24449
2.23545
2.23024
2.23629
2.27353
2.32814
2.3637
2.36209
1
1
1
1
1
1
1
1
1
1
1
1
1
1
1
1
1
1
1
1
1
1
1
1
1
1
1
1
1
1
1
1
1
1
1
1
1.02194
1.73945
2.19461
2.24244
2.23296
2.22497
2.23178
2.27722
2.33968
2.3779
2.37724
2.36516
1
1
1
1
1
1
1
1
1
1
1
1
1
1
1
1
1
1
1
1
1
1
1
1
1
1
1
1
1
1
1
1
1
1
1
1
1.00018
1.18869
2.00511
2.232
2.21442
2.22187
2.27585
2.35247
2.39265
2.39557
2.37856
2.36316
1
1
1
1
1
1
1
1
1
1
1
1
1
1
1
1
1
1
1
1
1
1
1
1
1
1
1
1
1
1
1
1
1
1
1
1
1
1.00777
1.53178
2.13258
2.17915
2.2582
2.35335
2.39877
2.40411
2.39166
2.37297
2.3606
1
1
1
1
1
1
1
1
1
1
1
1
1
1
1
1
1
1
1
1
1
1
1
1
1
1
1
1
1
1
1
1
1
1
1
1
1
1.00005
1.08274
1.8723
2.19282
2.35399
2.40553
2.40031
2.39242
2.37779
2.36235
2.35601
1
1
1
1
1
1
1
1
1
1
1
1
1
1
1
1
1
1
1
1
1
1
1
1
1
1
1
1
1
1
1
1
1
1
1
1
1
1
1.00166
1.31273
2.20317
2.43288
2.4179
2.39979
2.38428
2.36813
2.35481
2.35213
1
1
1
1
1
1
1
1
1
1
1
1
1
1
1
1
1
1
1
1
1
1
1
1
1
1
1
1
1
1
1
1
1
1
1
1
1
1
1.00001
1.02322
2.2901
2.52722
2.47008
2.42565
2.39475
2.37207
2.35911
2.35365
1
1
1
1
1
1
1
1
1
1
1
1
1
1
1
1
1
1
1
1
1
1
1
1
1
1
1
1
1
1
1
1
1
1
1
1
1
1
1
1.00016
2.25459
2.5858
2.52557
2.47256
2.43219
2.40602
2.38397
2.36847
1
1
1
1
1
1
1
1
1
1
1
1
1
1
1
1
1
1
1
1
1
1
1
1
1
1
1
1
1
1
1
1
1
1
1
1
1
1
1
1
2.16313
2.64599
2.60389
2.56192
2.51753
2.47714
2.43988
2.41047
1
1
1
1
1
1
1
1
1
1
1
1
1
1
1
1
1
1
1
1
1
1
1
1
1
1
1
1
1
1
1
1
1
1
1
1
1
1
1
1
2.01644
2.64692
2.64047
2.6215
2.59044
2.54963
2.50933
2.47221
1
1
1
1
1
1
1
1
1
1
1
1
1
1
1
1
1
1
1
1
1
1
1
1
1
1
1
1
1
1
1
1
1
1
1
1
1
1
1
1
1.82343
2.61588
2.64773
2.63954
2.62689
2.60555
2.57674
2.5453
1
1
1
1
1
1
1
1
1
1
1
1
1
1
1
1
1
1
1
1
1
1
1
1
1
1
1
1
1
1
1
1
1
1
1
1
1
1
1
1
1.57021
2.52014
2.65027
2.64181
2.63156
2.62006
2.60817
2.59014
1
1
1
1
1
1
1
1
1
1
1
1
1
1
1
1
1
1
1
1
1
1
1
1
1
1
1
1
1
1
1
1
1
1
1
1
1
1
1
1
1.27414
2.40272
2.64746
2.63524
2.63008
2.62486
2.61729
2.60648
1
1
1
1
1
1
1
1
1
1
1
1
1
1
1
1
1
1
1
1
1
1
1
1
1
1
1
1
1
1
1
1
1
1
1
1
1
1
1
1
1.0319
2.3255
2.64404
2.63063
2.62596
2.62182
2.61664
2.61067
1
1
1
1
1
1
1
1
1
1
1
1
1
1
1
1
1
1
1
1
1
1
1
1
1
1
1
1
1
1
1
1
1
1
1
1
1
1
1
1
1.00029
2.24387
2.64932
2.63898
2.63173
2.62542
2.61896
2.6128
1
1
1
1
1
1
1
1
1
1
1
1
1
1
1
1
1
1
1
1
1
1
1
1
1
1
1
1
1
1
1
1
1
1
1
1
1
1
1
1
1
2.13234
2.65545
2.65197
2.64226
2.63425
2.62637
2.61882
1
1
1
1
1
1
1
1
1
1
1
1
1
1
1
1
1
1
1
1
1
1
1
1
1
1
1
1
1
1
1
1
1
1
1
1
1
1
1
1
1
2.00561
2.64224
2.65935
2.65153
2.64456
2.63608
2.62765
1
1
1
1
1
1
1
1
1
1
1
1
1
1
1
1
1
1
1
1
1
1
1
1
1
1
1
1
1
1
1
1
1
1
1
1
1
1
1
1
1
1.86399
2.61005
2.66339
2.6555
2.6497
2.64176
2.63376
1
1
1
1
1
1
1
1
1
1
1
1
1
1
1
1
1
1
1
1
1
1
1
1
1
1
1
1
1
1
1
1
1
1
1
1
1
1
1
1
1
1.71463
2.56866
2.66234
2.65338
2.64857
2.64162
2.63444
1
1
1
1
1
1
1
1
1
1
1
1
1
1
1
1
1
1
1
1
1
1
1
1
1
1
1
1
1
1
1
1
1
1
1
1
1
1
1
1
1
1.55478
2.52137
2.65947
2.64717
2.64262
2.63699
2.63124
1
1
1
1
1
1
1
1
1
1
1
1
1
1
1
1
1
1
1
1
1
1
1
1
1
1
1
1
1
1
1
1
1
1
1
1
1
1
1
1
1
1.37909
2.46865
2.65746
2.64353
2.63876
2.63354
2.6284
1
1
1
1
1
1
1
1
1
1
1
1
1
1
1
1
1
1
1
1
1
1
1
1
1
1
1
1
1
1
1
1
1
1
1
1
1
1
1
1
1
1.22944
2.41841
2.66021
2.6453
2.6395
2.63394
2.62842
1
1
1
1
1
1
1
1
1
1
1
1
1
1
1
1
1
1
1
1
1
1
1
1
1
1
1
1
1
1
1
1
1
1
1
1
1
1
1
1
1
1.14248
2.38579
2.66941
2.65465
2.64724
2.64009
2.63312
1
1
1
1
1
1
1
1
1
1
1
1
1
1
1
1
1
1
1
1
1
1
1
1
1
1
1
1
1
1
1
1
1
1
1
1
1
1
1
1
1
1.07046
2.34605
2.67605
2.66547
2.65739
2.64912
2.64109
1
1
1
1
1
1
1
1
1
1
1
1
1
1
1
1
1
1
1
1
1
1
1
1
1
1
1
1
1
1
1
1
1
1
1
1
1
1
1
1
1
1.00321
2.2942
2.67707
2.67173
2.66397
2.65654
2.64877
1
1
1
1
1
1
1
1
1
1
1
1
1
1
1
1
1
1
1
1
1
1
1
1
1
1
1
1
1
1
1
1
1
1
1
1
1
1
1
1
1
1.00002
2.23878
2.67112
2.67219
2.66414
2.65847
2.65188
1
1
1
1
1
1
1
1
1
1
1
1
1
1
1
1
1
1
1
1
1
1
1
1
1
1
1
1
1
1
1
1
1
1
1
1
1
1
1
1
1
1
2.18059
2.66357
2.67298
2.66463
2.65969
2.65361
1
1
1
1
1
1
1
1
1
1
1
1
1
1
1
1
1
1
1
1
1
1
1
1
1
1
1
1
1
1
1
1
1
1
1
1
1
1
1
1
1
1
2.1252
2.65753
2.6727
2.66394
2.65902
2.65296
1
1
1
1
1
1
1
1
1
1
1
1
1
1
1
1
1
1
1
1
1
1
1
1
1
1
1
1
1
1
1
1
1
1
1
1
1
1
1
1
1
1
2.07548
2.65376
2.67269
2.6635
2.65852
2.65246
1
1
1
1
1
1
1
1
1
1
1
1
1
1
1
1
1
1
1
1
1
1
1
1
1
1
1
1
1
1
1
1
1
1
1
1
1
1
1
1
1
1
2.03274
2.6513
2.67337
2.6638
2.65865
2.65249
1
1
1
1
1
1
1
1
1
1
1
1
1
1
1
1
1
1
1
1
1
1
1
1
1
1
1
1
1
1
1
1
1
1
1
1
1
1
1
1
1
1
1.99718
2.64866
2.67484
2.6649
2.65951
2.65319
1
1
1
1
1
1
1
1
1
1
1
1
1
1
1
1
1
1
1
1
1
1
1
1
1
1
1
1
1
1
1
1
1
1
1
1
1
1
1
1
1
1
1.96798
2.64518
2.67645
2.66628
2.66074
2.65433
1
1
1
1
1
1
1
1
1
1
1
1
1
1
1
1
1
1
1
1
1
1
1
1
1
1
1
1
1
1
1
1
1
1
1
1
1
1
1
1
1
1
1.94472
2.64175
2.67774
2.66741
2.66184
2.65542
1
1
1
1
1
1
1
1
1
1
1
1
1
1
1
1
1
1
1
1
1
1
1
1
1
1
1
1
1
1
1
1
1
1
1
1
1
1
1
1
1
1
1.92991
2.6398
2.67829
2.66793
2.66242
2.65607
1
1
1
1
1
1
1
1
1
1
1
1
1
1
1
1
1
1
1
1
1
1
1
1
1
1
1
1
1
1
1
1
1
1
1
1
1
1
1
1
1
1
1.92504
2.63888
2.67822
2.66814
2.66279
2.65649
1.47796
0.737326
0.282785
0.329097
0.746628
0.909364
0.990514
1.11214
1.10434
1.08726
1.10302
1.15195
1.26541
1.39831
1.46895
1.48382
1.48544
1.4907
1.50999
1.55484
1.57665
1.5624
1.55197
1.55047
1.55453
1.5674
1.59291
1.59655
1.58577
1.58228
1.58594
1.59758
1.60065
1.92738
2.53663
2.65158
2.65026
2.6497
2.64922
2.64868
2.65582
2.66618
2.67329
2.67535
2.675
2.67499
2.67768
2.68188
2.68398
2.68308
2.67988
2.67563
2.67111
2.66635
2.66138
2.65644
2.65175
2.64721
2.64259
2.63789
2.63364
2.63027
2.62737
2.62389
2.61901
2.61332
2.60781
2.60324
2.59952
2.59584
2.59109
2.5848
2.57774
2.57108
2.56526
2.55994
2.55452
2.54852
2.54176
2.53467
2.52803
2.52235
2.51755
2.51304
2.50808
2.50221
2.49563
2.489
2.48293
2.47763
2.47287
2.4682
2.46311
2.45743
2.45139
2.4454
2.43963
2.43402
2.42842
2.42276
2.41706
2.41148
2.40617
2.40102
2.39561
2.38963
2.38312
2.37628
2.36938
2.36259
2.35615
2.35033
2.34504
2.33981
2.33432
2.3286
2.32269
2.31664
2.31036
2.30372
2.2968
2.28982
2.28294
2.27638
2.27046
2.26528
2.2604
2.25519
2.24939
2.24313
2.23682
2.2305
2.2243
2.2183
2.21249
2.2069
2.20183
2.1976
2.19406
2.19
2.18501
2.17895
2.17175
2.16427
2.15769
2.15259
2.14894
2.14497
2.13971
2.13278
2.12509
2.11797
2.11238
2.10841
2.10662
2.10518
2.10253
2.09857
2.09287
2.08468
2.07527
2.06633
2.05951
2.05504
2.05256
2.05016
2.04692
2.04299
2.0386
2.03412
2.02992
2.02614
2.02241
2.01799
2.01165
2.00325
1.99415
1.98544
1.97874
1.98225
2.06354
2.21553
2.29801
2.33129
2.35288
2.36241
2.36597
2.36641
2.36882
2.37455
2.3805
2.3854
1.74597
1.40716
1.17221
0.825298
0.839986
0.90603
0.906048
0.915967
0.922908
0.925286
0.934866
0.986942
1.09689
1.19454
1.23693
1.25556
1.27888
1.32544
1.35842
1.39495
1.44149
1.48389
1.50084
1.50769
1.51357
1.5259
1.54911
1.5512
1.54706
1.54642
1.55033
1.56038
1.56905
1.70251
2.4209
2.64429
2.64055
2.64225
2.64875
2.64894
2.64957
2.65557
2.66267
2.6677
2.66972
2.66965
2.66988
2.67097
2.67184
2.67156
2.67045
2.66873
2.6663
2.66269
2.65757
2.65152
2.64552
2.6404
2.63614
2.63228
2.62819
2.62377
2.61949
2.61575
2.61233
2.6085
2.60371
2.59843
2.59293
2.58762
2.58288
2.57844
2.57351
2.56802
2.56227
2.55626
2.55006
2.54395
2.53811
2.53239
2.52669
2.52111
2.51567
2.51029
2.50492
2.49945
2.49375
2.48785
2.48209
2.47657
2.47114
2.46574
2.4604
2.45509
2.44971
2.44422
2.43866
2.43296
2.42711
2.42121
2.41546
2.40997
2.40468
2.39937
2.39383
2.38794
2.3816
2.37495
2.36823
2.36173
2.35562
2.3499
2.34446
2.33919
2.33399
2.3285
2.32252
2.31616
2.30963
2.30302
2.2964
2.28985
2.28341
2.27715
2.27116
2.26541
2.25982
2.25423
2.24839
2.24252
2.23642
2.22995
2.22373
2.21808
2.2129
2.2081
2.20334
2.1983
2.193
2.18768
2.182
2.1762
2.171
2.16657
2.16204
2.15637
2.14963
2.1429
2.13621
2.12996
2.12496
2.12096
2.11738
2.11398
2.1107
2.1068
2.1017
2.09492
2.08729
2.08027
2.07467
2.07008
2.06504
2.05913
2.05435
2.05033
2.04613
2.04211
2.0386
2.03567
2.03284
2.02982
2.02471
2.01545
2.00505
1.99683
1.99065
1.98618
1.98354
1.9868
2.02501
2.17465
2.32811
2.36343
2.35283
2.35627
2.35935
2.36303
2.36706
2.37101
2.37497
2.37996
1.85996
1.66974
1.50345
1.27588
1.1307
1.12291
1.08952
1.03537
1.02974
1.034
1.01966
1.02019
1.03847
1.06984
1.07288
1.07736
1.09234
1.13294
1.19377
1.23994
1.28321
1.34473
1.38529
1.41652
1.43784
1.45361
1.47454
1.48892
1.49907
1.50623
1.51564
1.52983
1.53991
1.57086
2.13595
2.59168
2.65393
2.63937
2.63504
2.62875
2.62283
2.62304
2.62496
2.62775
2.63136
2.63381
2.63463
2.63463
2.63443
2.63421
2.63467
2.6361
2.63704
2.63673
2.63383
2.62794
2.62112
2.61462
2.60992
2.6067
2.60377
2.59978
2.59481
2.59025
2.58685
2.58401
2.57997
2.57433
2.56797
2.56204
2.55762
2.55531
2.55404
2.55125
2.54633
2.54043
2.53416
2.52813
2.52277
2.51813
2.51362
2.50868
2.50336
2.49809
2.49317
2.48874
2.48453
2.47973
2.47403
2.46781
2.46145
2.45539
2.44999
2.44541
2.44123
2.43671
2.43146
2.42557
2.41929
2.41298
2.40712
2.40195
2.39696
2.39161
2.38601
2.38016
2.37392
2.36762
2.36136
2.35543
2.34988
2.34454
2.33932
2.33444
2.32971
2.32418
2.31818
2.312
2.30561
2.29922
2.29296
2.28684
2.28093
2.27524
2.26956
2.26367
2.25763
2.25165
2.24577
2.23981
2.23344
2.22681
2.22103
2.21613
2.21165
2.20702
2.20199
2.19605
2.18886
2.18197
2.17702
2.17312
2.16977
2.16636
2.16235
2.15613
2.14685
2.13816
2.1327
2.12863
2.12556
2.12339
2.12021
2.11588
2.10929
2.10059
2.09276
2.08649
2.08177
2.07833
2.07554
2.07265
2.06874
2.06282
2.0551
2.04919
2.04531
2.04209
2.03962
2.03733
2.03393
2.02889
2.01958
2.00828
2.00071
1.99668
1.99434
1.99413
1.9939
1.9941
2.00821
2.10754
2.29071
2.39481
2.38051
2.3569
2.34887
2.35282
2.35953
2.36276
2.36506
2.36879
1.9626
1.81229
1.68316
1.51576
1.38553
1.33873
1.28196
1.20153
1.17877
1.16209
1.11616
1.08525
1.09302
1.09417
1.0856
1.08537
1.08806
1.09283
1.10155
1.11697
1.14307
1.19413
1.24676
1.29377
1.34529
1.37752
1.3911
1.40829
1.42847
1.44687
1.46323
1.48004
1.49982
1.51734
1.7557
2.42395
2.6042
2.56607
2.56303
2.56125
2.55897
2.56094
2.56134
2.56174
2.56385
2.56481
2.5646
2.56505
2.56642
2.5696
2.5738
2.57751
2.57909
2.57914
2.57818
2.57549
2.57189
2.56807
2.56484
2.5621
2.55931
2.55559
2.55035
2.54492
2.54083
2.53833
2.53574
2.53197
2.52775
2.52375
2.52073
2.51962
2.51978
2.51749
2.51204
2.5057
2.49921
2.49361
2.48941
2.48695
2.48501
2.48228
2.47868
2.47446
2.46994
2.46541
2.46114
2.45663
2.45092
2.44492
2.43919
2.4342
2.43016
2.42675
2.42317
2.41849
2.41267
2.40644
2.40021
2.39438
2.38935
2.38481
2.37985
2.37426
2.36857
2.36277
2.35706
2.35154
2.34605
2.34052
2.33519
2.33016
2.32529
2.32083
2.31623
2.31107
2.30577
2.30012
2.29399
2.28774
2.2818
2.2764
2.27142
2.26646
2.26126
2.25568
2.24968
2.24343
2.23714
2.23087
2.22468
2.21898
2.21385
2.20896
2.20407
2.19898
2.19346
2.18736
2.18081
2.17453
2.17001
2.16695
2.16416
2.16101
2.15666
2.15004
2.14191
2.13454
2.12954
2.12589
2.12301
2.12052
2.11667
2.11124
2.10245
2.09195
2.08433
2.07992
2.07688
2.07442
2.07204
2.06907
2.06566
2.06102
2.05449
2.04743
2.0426
2.03945
2.03629
2.03265
2.02752
2.02008
2.01154
2.00487
2.0009
1.99823
1.99628
1.99591
1.99636
2.00367
2.03418
2.10772
2.23499
2.36865
2.39722
2.37639
2.35431
2.3474
2.34843
2.34972
2.35042
2.35215
2.03961
1.901
1.79731
1.67914
1.5642
1.49839
1.42932
1.33327
1.29761
1.27623
1.23941
1.20735
1.20565
1.19355
1.16296
1.14682
1.1403
1.13028
1.12647
1.13023
1.13755
1.1394
1.14503
1.1595
1.19319
1.23982
1.26697
1.30421
1.34751
1.38408
1.41686
1.44005
1.47757
1.51751
1.58742
2.18915
2.52891
2.51755
2.49873
2.48779
2.48208
2.48411
2.48663
2.48928
2.49161
2.49265
2.49391
2.49832
2.50485
2.51088
2.51318
2.51324
2.51291
2.51382
2.51564
2.51808
2.51923
2.51856
2.5156
2.5114
2.50742
2.50405
2.50068
2.49735
2.49512
2.49365
2.49121
2.48817
2.485
2.48175
2.47918
2.4778
2.47637
2.47258
2.46749
2.46196
2.45727
2.45388
2.45301
2.45371
2.45301
2.45009
2.44581
2.44037
2.43521
2.43072
2.42699
2.42397
2.42016
2.41588
2.41175
2.40788
2.40412
2.40013
2.39539
2.39002
2.38435
2.37895
2.37399
2.36974
2.36558
2.36054
2.35499
2.34925
2.34372
2.33847
2.33341
2.32836
2.32308
2.31747
2.31212
2.30746
2.30324
2.29949
2.29529
2.2907
2.28571
2.28003
2.27377
2.26769
2.26239
2.2578
2.25343
2.24901
2.24436
2.2393
2.23363
2.2274
2.22105
2.21504
2.20952
2.20424
2.19887
2.19335
2.18785
2.18255
2.17746
2.17271
2.16823
2.16364
2.15857
2.15381
2.15026
2.14681
2.14238
2.13739
2.13276
2.12825
2.12318
2.1185
2.11455
2.11035
2.10503
2.09821
2.09038
2.08309
2.07676
2.07159
2.06779
2.06466
2.06168
2.05896
2.05627
2.05282
2.04803
2.04245
2.03668
2.03142
2.02723
2.02283
2.01658
2.00968
2.00508
2.00213
1.99898
1.99527
1.99252
1.99305
2.00064
2.03404
2.09145
2.12975
2.17354
2.28313
2.36416
2.37278
2.3597
2.34327
2.33478
2.33052
2.33113
2.33379
2.09044
1.97372
1.87397
1.77748
1.68827
1.61283
1.53886
1.44966
1.40387
1.37899
1.33865
1.30556
1.2962
1.28056
1.24553
1.21918
1.20943
1.19518
1.17905
1.17646
1.1761
1.17123
1.16388
1.16464
1.16271
1.1646
1.1698
1.18668
1.2268
1.28226
1.34166
1.40169
1.46554
1.53476
1.57775
1.81191
2.38026
2.50045
2.47456
2.45132
2.44296
2.44309
2.44624
2.45082
2.45301
2.45599
2.45888
2.46252
2.46594
2.46799
2.46867
2.46905
2.47038
2.47271
2.4756
2.47798
2.47858
2.47709
2.4732
2.46944
2.46747
2.46686
2.46692
2.4666
2.46422
2.4607
2.45655
2.45276
2.44982
2.44734
2.44546
2.44344
2.44046
2.43699
2.43354
2.43041
2.42817
2.42725
2.42704
2.42552
2.42199
2.41722
2.41133
2.40617
2.40242
2.39954
2.39795
2.39637
2.39328
2.38935
2.38492
2.38005
2.37522
2.37049
2.3658
2.36123
2.35694
2.35307
2.34949
2.34538
2.34035
2.33479
2.32883
2.32323
2.31817
2.31334
2.30844
2.30333
2.29777
2.29209
2.28724
2.28321
2.27974
2.27618
2.27198
2.26736
2.26201
2.25591
2.24973
2.24423
2.23944
2.23499
2.23068
2.22641
2.22206
2.2174
2.21225
2.20655
2.20061
2.19486
2.18943
2.18403
2.17845
2.17266
2.16691
2.16184
2.15776
2.15432
2.15119
2.14782
2.14337
2.13704
2.13023
2.12528
2.12214
2.11989
2.1178
2.11534
2.11178
2.10663
2.09958
2.09208
2.08539
2.07941
2.0745
2.07025
2.06576
2.06047
2.05477
2.05022
2.04725
2.04471
2.04156
2.03809
2.03467
2.03132
2.02715
2.02096
2.01369
2.00745
2.00267
1.99923
1.99674
1.99428
1.99125
1.98716
1.98726
1.99473
2.02892
2.08285
2.13192
2.14416
2.15288
2.18881
2.28301
2.33794
2.34543
2.33373
2.31842
2.31009
2.30879
2.31246
2.12686
2.03027
1.93807
1.8509
1.77254
1.69845
1.62592
1.54668
1.50557
1.47377
1.43361
1.39157
1.37661
1.35462
1.31504
1.28759
1.27649
1.26074
1.24216
1.23866
1.23263
1.22319
1.21198
1.19585
1.1792
1.16886
1.16841
1.17126
1.18068
1.20428
1.24263
1.30827
1.39104
1.48599
1.53517
1.57161
2.1087
2.48474
2.48746
2.45424
2.44165
2.43441
2.43505
2.44133
2.44714
2.44939
2.44921
2.44842
2.44822
2.44918
2.4515
2.4535
2.45454
2.45477
2.45447
2.45328
2.45187
2.45124
2.45024
2.44892
2.44817
2.44812
2.44775
2.44563
2.44207
2.43742
2.43328
2.43026
2.42833
2.4278
2.42662
2.42368
2.42013
2.41689
2.41407
2.41197
2.41052
2.40858
2.40505
2.4005
2.39527
2.3902
2.38606
2.38278
2.38059
2.37935
2.37791
2.37481
2.37062
2.36587
2.36044
2.35508
2.35047
2.34632
2.34256
2.33926
2.33613
2.3326
2.3282
2.32316
2.31743
2.31153
2.30613
2.30117
2.29642
2.29143
2.28624
2.2807
2.27495
2.26992
2.26587
2.26241
2.25892
2.25483
2.25024
2.24502
2.23915
2.23315
2.22763
2.22265
2.21785
2.21308
2.20837
2.20377
2.19928
2.19479
2.19014
2.18515
2.17968
2.17387
2.16809
2.1626
2.15731
2.15205
2.14674
2.14179
2.13783
2.13458
2.13167
2.12868
2.12478
2.11869
2.11082
2.10466
2.10164
2.09972
2.09831
2.09678
2.09382
2.08928
2.08146
2.07194
2.06469
2.05999
2.0564
2.05353
2.05024
2.0462
2.04129
2.03517
2.02897
2.02384
2.02022
2.01794
2.01633
2.01451
2.01177
2.00702
1.99944
1.99166
1.9873
1.98475
1.98248
1.98006
1.97758
1.97906
1.98855
2.02028
2.07919
2.11894
2.14188
2.14065
2.13738
2.1372
2.1765
2.25857
2.30977
2.31227
2.30159
2.29034
2.28533
2.28831
2.15405
2.07093
1.98639
1.91365
1.83902
1.76574
1.70198
1.63561
1.58411
1.55581
1.51486
1.47017
1.44877
1.42343
1.37722
1.34309
1.33328
1.31768
1.29716
1.29316
1.28805
1.27513
1.26228
1.24609
1.2226
1.2059
1.20049
1.20258
1.2195
1.2574
1.29858
1.35224
1.3909
1.40782
1.44343
1.45968
1.6189
2.33779
2.50427
2.48139
2.46245
2.4481
2.44537
2.45113
2.45468
2.45454
2.45159
2.44613
2.4441
2.44533
2.44815
2.4507
2.45057
2.44914
2.44608
2.44265
2.44066
2.44047
2.4413
2.44124
2.43931
2.43679
2.43405
2.43116
2.42809
2.42495
2.42189
2.41951
2.41848
2.41794
2.41534
2.41162
2.40746
2.40359
2.40046
2.39831
2.39637
2.39274
2.38817
2.38294
2.37794
2.37381
2.3707
2.36874
2.36706
2.36457
2.36076
2.35631
2.35147
2.34641
2.34136
2.33675
2.33269
2.32916
2.32613
2.3231
2.31933
2.3148
2.30963
2.30379
2.29805
2.29297
2.28828
2.28377
2.27876
2.27336
2.26758
2.26159
2.2564
2.25228
2.24873
2.24511
2.24097
2.23631
2.23109
2.22545
2.21978
2.21447
2.20946
2.20447
2.1994
2.19423
2.18904
2.18396
2.17912
2.17455
2.17011
2.16548
2.16029
2.15445
2.14853
2.14325
2.13857
2.13415
2.12976
2.12525
2.12056
2.11608
2.11233
2.10889
2.1048
2.09964
2.09422
2.08903
2.0841
2.08043
2.07798
2.07573
2.07294
2.06849
2.06157
2.05346
2.04703
2.04276
2.03932
2.03657
2.03395
2.03053
2.02645
2.02025
2.01137
2.0042
2.00058
1.99835
1.99643
1.99461
1.99255
1.98954
1.98472
1.97844
1.97331
1.9698
1.96689
1.96429
1.9661
1.97697
2.01076
2.07025
2.1105
2.12767
2.13255
2.12832
2.11956
2.11191
2.11554
2.15813
2.23658
2.28016
2.28039
2.27325
2.26647
2.26736
2.17735
2.10245
2.02664
1.96284
1.89614
1.82166
1.76849
1.71648
1.65357
1.62034
1.58961
1.53988
1.50824
1.48115
1.43548
1.40317
1.39325
1.37768
1.35159
1.34342
1.3381
1.32393
1.30212
1.28441
1.26454
1.25471
1.25536
1.26771
1.30736
1.34923
1.38513
1.40701
1.42029
1.43472
1.45436
1.46508
1.46797
1.80689
2.42575
2.50199
2.47522
2.4609
2.45912
2.46368
2.46406
2.46026
2.45328
2.44673
2.44443
2.44486
2.44799
2.44985
2.4485
2.44551
2.44155
2.43799
2.43516
2.43485
2.43568
2.43467
2.43138
2.42723
2.42325
2.42048
2.41839
2.41684
2.41524
2.41343
2.41109
2.40767
2.40366
2.39942
2.39514
2.39112
2.38794
2.38568
2.38352
2.37995
2.3756
2.37078
2.36638
2.36267
2.3599
2.35743
2.35402
2.3496
2.34484
2.33996
2.33539
2.33111
2.32701
2.323
2.31911
2.31541
2.31168
2.30751
2.30296
2.29796
2.29244
2.28692
2.28204
2.27758
2.2734
2.26861
2.26324
2.25732
2.25099
2.24532
2.24087
2.23707
2.2333
2.22915
2.22454
2.21942
2.21408
2.20894
2.2041
2.19926
2.19418
2.18883
2.18332
2.17779
2.17239
2.16716
2.16214
2.15732
2.15263
2.14784
2.14262
2.137
2.13168
2.12707
2.12287
2.11891
2.11509
2.1111
2.10655
2.10114
2.09524
2.08977
2.08519
2.08162
2.07868
2.07556
2.07139
2.06587
2.05994
2.05513
2.05089
2.04631
2.04167
2.03769
2.03377
2.02908
2.02446
2.02088
2.0178
2.01468
2.01074
2.00494
1.99688
1.98906
1.98388
1.98073
1.97843
1.97626
1.97392
1.97142
1.96886
1.96594
1.96166
1.95574
1.95086
1.95182
1.96214
1.99612
2.05172
2.09616
2.11982
2.12546
2.12282
2.11552
2.10458
2.09448
2.09011
2.09611
2.14231
2.2167
2.24933
2.25558
2.2525
2.25216
2.19514
2.12657
2.06184
2.00264
1.9406
1.87456
1.82347
1.77626
1.72139
1.67817
1.64773
1.60055
1.56156
1.53601
1.49035
1.45475
1.44425
1.43077
1.40942
1.39522
1.38389
1.36676
1.33736
1.31006
1.30484
1.30889
1.32014
1.35869
1.41415
1.44575
1.45629
1.45692
1.46444
1.47709
1.48858
1.49724
1.49878
1.50534
1.89249
2.38826
2.47304
2.46749
2.46892
2.4696
2.46541
2.46001
2.45261
2.44732
2.44439
2.44435
2.44595
2.4446
2.44079
2.43649
2.43307
2.43019
2.42808
2.42731
2.4263
2.42318
2.4194
2.41544
2.41204
2.40918
2.40787
2.40775
2.40675
2.40349
2.39899
2.39362
2.38864
2.38453
2.38094
2.37737
2.3743
2.37185
2.3695
2.36664
2.36306
2.35906
2.35501
2.35117
2.34734
2.34311
2.33842
2.33358
2.32884
2.32436
2.32035
2.31679
2.31328
2.30941
2.30502
2.30021
2.29518
2.29021
2.28537
2.2805
2.27572
2.2713
2.26717
2.26299
2.25823
2.25296
2.24723
2.24106
2.2352