/*--------------------------------*- C++ -*----------------------------------*\
  =========                 |
  \\      /  F ield         | OpenFOAM: The Open Source CFD Toolbox
   \\    /   O peration     | Website:  https://openfoam.org
    \\  /    A nd           | Version:  10
     \\/     M anipulation  |
\*---------------------------------------------------------------------------*/
FoamFile
{
    format      ascii;
    class       volVectorField;
    location    "8";
    object      U;
}
// * * * * * * * * * * * * * * * * * * * * * * * * * * * * * * * * * * * * * //

dimensions      [0 1 -1 0 0 0 0];

internalField   nonuniform List<vector> 
16128
(
(3 -8.41532e-15 0)
(3 1.96348e-14 0)
(3 5.31199e-14 0)
(3 6.44574e-14 0)
(3 4.38357e-14 0)
(3 2.49253e-14 0)
(3 -2.45602e-14 0)
(3 -2.75647e-14 0)
(3 -4.71938e-14 0)
(3 -1.05595e-13 0)
(3 -9.6853e-14 0)
(3 -7.31655e-14 0)
(3 -5.77875e-14 0)
(3 -1.24422e-13 0)
(3 -1.91905e-13 0)
(3 -1.87995e-13 0)
(3 -1.18541e-13 0)
(3 -2.45912e-14 0)
(3 -1.44414e-14 0)
(3 -8.16689e-14 0)
(3 -1.12778e-13 0)
(3 -1.01622e-13 0)
(3 -1.24691e-13 0)
(3 -1.2959e-13 0)
(1.44713 0.00831547 0)
(0.769378 0.00889329 0)
(0.7235 0.0110981 0)
(0.697097 0.0119967 0)
(0.667338 0.0124927 0)
(0.638011 0.0130006 0)
(0.607941 0.0134527 0)
(0.577519 0.0137393 0)
(0.547099 0.0138252 0)
(0.517049 0.0137871 0)
(0.487314 0.0138191 0)
(0.457359 0.0141402 0)
(0.42673 0.014667 0)
(0.395581 0.0151325 0)
(0.364132 0.0154691 0)
(0.33202 0.0158253 0)
(0.298728 0.0162502 0)
(0.264221 0.0168116 0)
(0.228724 0.0175407 0)
(0.191948 0.0184811 0)
(0.153598 0.0192919 0)
(0.112855 0.0207463 0)
(0.0684541 0.0221645 0)
(0.0235561 0.0223168 0)
(3 -1.01363e-14 0)
(3 2.58134e-14 0)
(3 8.52684e-14 0)
(3 1.07525e-13 0)
(3 8.44498e-14 0)
(3 -9.1007e-16 0)
(3 -5.53346e-14 0)
(3 -6.38192e-14 0)
(3 -9.52747e-14 0)
(3 -9.08151e-14 0)
(3 -7.52989e-14 0)
(3 -5.32083e-14 0)
(3 -3.43655e-14 0)
(3 -1.19575e-13 0)
(3 -1.99171e-13 0)
(3 -1.36833e-13 0)
(3 -5.42398e-14 0)
(3 -1.97375e-14 0)
(3 -2.80976e-14 0)
(3 -9.41405e-14 0)
(3 -1.58891e-13 0)
(3 -1.85123e-13 0)
(3 -1.63331e-13 0)
(3 -1.19377e-13 0)
(1.46202 0.0384426 0)
(0.765303 0.0357916 0)
(0.716034 0.0328767 0)
(0.68933 0.0346107 0)
(0.659571 0.0360231 0)
(0.630282 0.037622 0)
(0.600265 0.0391129 0)
(0.569867 0.0401119 0)
(0.539404 0.040468 0)
(0.509246 0.0403582 0)
(0.479412 0.0404238 0)
(0.449457 0.0414475 0)
(0.418925 0.0432051 0)
(0.387848 0.0447692 0)
(0.356427 0.0458338 0)
(0.32446 0.0469098 0)
(0.291641 0.0483009 0)
(0.257998 0.0502856 0)
(0.223653 0.0527395 0)
(0.188225 0.055689 0)
(0.151171 0.0581907 0)
(0.111534 0.0629817 0)
(0.0677581 0.0675324 0)
(0.0235323 0.0681851 0)
(3 9.03437e-15 0)
(3 2.97045e-14 0)
(3 2.74955e-14 0)
(3 3.38905e-14 0)
(3 1.70288e-14 0)
(3 -1.68267e-14 0)
(3 -3.87983e-14 0)
(3 -5.23383e-14 0)
(3 -1.81354e-14 0)
(3 3.92602e-14 0)
(3 1.91986e-14 0)
(3 -1.88361e-14 0)
(3 -2.40618e-14 0)
(3 -6.41499e-14 0)
(3 -1.00649e-13 0)
(3 -7.88351e-14 0)
(3 -7.29382e-14 0)
(3 -5.36565e-14 0)
(3 -1.04418e-13 0)
(3 -1.4475e-13 0)
(3 -6.37299e-14 0)
(3 -6.08585e-14 0)
(3 -5.53808e-14 0)
(3 -8.5601e-14 0)
(1.50967 0.0677824 0)
(0.771818 0.0623979 0)
(0.718119 0.0569611 0)
(0.689853 0.0591596 0)
(0.659094 0.0612284 0)
(0.629107 0.0636718 0)
(0.598633 0.0660502 0)
(0.567851 0.067701 0)
(0.53693 0.0683204 0)
(0.506182 0.0681231 0)
(0.475721 0.0681537 0)
(0.445245 0.0697493 0)
(0.41426 0.0725432 0)
(0.382564 0.074972 0)
(0.350342 0.076549 0)
(0.317643 0.0781579 0)
(0.284407 0.0802486 0)
(0.250698 0.0831609 0)
(0.216577 0.0865632 0)
(0.181787 0.0908693 0)
(0.145653 0.0948143 0)
(0.107642 0.103428 0)
(0.0654268 0.11159 0)
(0.0236376 0.113116 0)
(3 2.66643e-14 0)
(3 4.62062e-14 0)
(3 3.89032e-14 0)
(3 -6.09948e-15 0)
(3 -3.06604e-14 0)
(3 1.72941e-15 0)
(3 -7.15354e-15 0)
(3 2.94425e-15 0)
(3 2.56724e-14 0)
(3 1.89286e-14 0)
(3 8.30997e-15 0)
(3 -1.7777e-14 0)
(3 -4.24526e-14 0)
(3 -4.47111e-14 0)
(3 -2.29438e-14 0)
(3 -2.55816e-14 0)
(3 1.24496e-14 0)
(3 -1.52953e-14 0)
(3 -4.81158e-14 0)
(3 -6.92855e-14 0)
(3 -4.01437e-14 0)
(3 5.73918e-14 0)
(3 4.33766e-14 0)
(3 -2.95454e-14 0)
(1.58199 0.0942293 0)
(0.780011 0.0888666 0)
(0.721241 0.0819583 0)
(0.69233 0.0838805 0)
(0.661525 0.0862958 0)
(0.631776 0.0894043 0)
(0.601727 0.092641 0)
(0.571335 0.0950571 0)
(0.540584 0.0961711 0)
(0.509702 0.0961558 0)
(0.478897 0.0963566 0)
(0.448051 0.0986496 0)
(0.41667 0.102604 0)
(0.3843 0.106127 0)
(0.351077 0.108546 0)
(0.317257 0.110992 0)
(0.282957 0.113869 0)
(0.248215 0.11745 0)
(0.213021 0.121091 0)
(0.177335 0.126011 0)
(0.140534 0.130693 0)
(0.103374 0.143027 0)
(0.0624673 0.154735 0)
(0.0228442 0.156041 0)
(3 -5.42745e-15 0)
(3 4.04736e-16 0)
(3 -1.61823e-14 0)
(3 -5.87896e-14 0)
(3 -1.18651e-14 0)
(3 2.74756e-14 0)
(3 7.9652e-14 0)
(3 2.96019e-14 0)
(3 -2.22064e-14 0)
(3 -4.85676e-14 0)
(3 -5.04836e-14 0)
(3 -6.43248e-14 0)
(3 -6.64879e-14 0)
(3 -4.23756e-14 0)
(3 -2.92778e-15 0)
(3 4.69948e-15 0)
(3 -1.16146e-14 0)
(3 -2.92163e-14 0)
(3 -9.69262e-15 0)
(3 2.15939e-15 0)
(3 -1.68602e-14 0)
(3 7.4126e-14 0)
(3 1.30391e-13 0)
(3 9.23212e-14 0)
(1.68121 0.120595 0)
(0.790243 0.115833 0)
(0.723347 0.10849 0)
(0.693338 0.109143 0)
(0.662258 0.111436 0)
(0.632635 0.114881 0)
(0.603019 0.118838 0)
(0.573151 0.122067 0)
(0.542827 0.123849 0)
(0.512179 0.124191 0)
(0.481494 0.124585 0)
(0.450881 0.127493 0)
(0.419929 0.13257 0)
(0.387934 0.137278 0)
(0.354884 0.140727 0)
(0.321067 0.144272 0)
(0.286541 0.148235 0)
(0.251159 0.152793 0)
(0.214732 0.156828 0)
(0.177535 0.162495 0)
(0.139114 0.167405 0)
(0.101971 0.182528 0)
(0.0620294 0.196721 0)
(0.0253044 0.198112 0)
(3 -2.37129e-14 0)
(3 -5.1976e-14 0)
(3 -6.88279e-14 0)
(3 -3.70642e-14 0)
(3 1.39443e-14 0)
(3 5.57571e-14 0)
(3 8.61406e-15 0)
(3 -2.22402e-14 0)
(3 -4.10084e-14 0)
(3 -8.89098e-14 0)
(3 -9.65536e-14 0)
(3 -7.85467e-14 0)
(3 -3.94941e-15 0)
(3 2.25914e-15 0)
(3 1.2037e-14 0)
(3 -1.36222e-14 0)
(3 -7.57518e-14 0)
(3 -1.06552e-13 0)
(3 -8.12239e-14 0)
(3 -4.5259e-14 0)
(3 -5.08844e-14 0)
(3 -2.67171e-14 0)
(3 -3.42746e-14 0)
(3 -2.1719e-14 0)
(1.81596 0.14533 0)
(0.80604 0.143487 0)
(0.727417 0.136768 0)
(0.696204 0.135113 0)
(0.664662 0.13689 0)
(0.634914 0.140419 0)
(0.60541 0.144971 0)
(0.575754 0.149051 0)
(0.545601 0.151679 0)
(0.514953 0.152597 0)
(0.484119 0.153226 0)
(0.453412 0.156636 0)
(0.42259 0.162759 0)
(0.390765 0.168704 0)
(0.357758 0.173287 0)
(0.323858 0.178051 0)
(0.289085 0.183273 0)
(0.253262 0.189147 0)
(0.216024 0.193987 0)
(0.177769 0.201036 0)
(0.137251 0.206087 0)
(0.09896 0.223342 0)
(0.0589501 0.236192 0)
(0.0385406 0.238584 0)
(3 1.35554e-14 0)
(3 -1.87696e-14 0)
(3 -4.43117e-14 0)
(3 -4.59274e-14 0)
(3 -2.53725e-14 0)
(3 -2.28931e-14 0)
(3 -3.03657e-14 0)
(3 -3.42509e-14 0)
(3 -7.49887e-14 0)
(3 -3.1033e-14 0)
(3 -3.5912e-15 0)
(3 4.23654e-14 0)
(3 6.20506e-14 0)
(3 5.91062e-14 0)
(3 7.69909e-14 0)
(3 6.89833e-14 0)
(3 1.68737e-14 0)
(3 -7.74925e-14 0)
(3 -1.0634e-13 0)
(3 -9.81239e-14 0)
(3 -7.8325e-14 0)
(3 -9.12053e-14 0)
(3 -1.58974e-13 0)
(3 -1.0652e-13 0)
(1.98681 0.164759 0)
(0.828333 0.171547 0)
(0.733311 0.165892 0)
(0.701844 0.161082 0)
(0.670491 0.161998 0)
(0.641365 0.165347 0)
(0.612753 0.170274 0)
(0.5841 0.175104 0)
(0.554853 0.178632 0)
(0.524811 0.180333 0)
(0.494208 0.181304 0)
(0.463525 0.185176 0)
(0.432751 0.192361 0)
(0.400909 0.199752 0)
(0.367646 0.205743 0)
(0.33322 0.211955 0)
(0.297609 0.218624 0)
(0.260852 0.226139 0)
(0.222597 0.232166 0)
(0.183648 0.241212 0)
(0.141791 0.246882 0)
(0.102975 0.265682 0)
(0.0612836 0.275098 0)
(0.0416073 0.280399 0)
(3 6.23764e-15 0)
(3 3.6224e-16 0)
(3 6.94731e-15 0)
(3 1.58881e-14 0)
(3 1.4583e-14 0)
(3 1.17243e-14 0)
(3 2.54003e-14 0)
(3 -2.60392e-14 0)
(3 -4.02506e-15 0)
(3 1.69294e-14 0)
(3 5.70417e-14 0)
(3 1.35435e-13 0)
(3 1.66484e-13 0)
(3 1.44548e-13 0)
(3 1.01473e-13 0)
(3 2.70938e-14 0)
(3 3.603e-14 0)
(3 2.60043e-14 0)
(3 -1.70998e-14 0)
(3 -3.59609e-14 0)
(3 -7.72753e-14 0)
(3 -1.25848e-13 0)
(3 -9.24976e-14 0)
(3 -2.43871e-14 0)
(2.18941 0.178183 0)
(0.852411 0.203824 0)
(0.732659 0.19627 0)
(0.701292 0.187793 0)
(0.669725 0.187667 0)
(0.640726 0.190553 0)
(0.612464 0.195591 0)
(0.58444 0.201109 0)
(0.556048 0.205666 0)
(0.526958 0.208432 0)
(0.497266 0.209908 0)
(0.46755 0.214156 0)
(0.438042 0.22234 0)
(0.407585 0.231291 0)
(0.375453 0.238856 0)
(0.341746 0.24667 0)
(0.306241 0.254973 0)
(0.269181 0.264498 0)
(0.230109 0.271986 0)
(0.190529 0.283097 0)
(0.147611 0.289241 0)
(0.107988 0.309139 0)
(0.0640025 0.316318 0)
(0.043407 0.324772 0)
(3 -6.41659e-15 0)
(3 2.51239e-14 0)
(3 1.14305e-13 0)
(3 1.31347e-13 0)
(3 8.55022e-14 0)
(3 -2.10193e-14 0)
(3 -2.09403e-14 0)
(3 -5.40149e-15 0)
(3 1.8535e-14 0)
(3 5.16072e-14 0)
(3 9.57265e-14 0)
(3 1.40279e-13 0)
(3 1.83563e-13 0)
(3 1.9235e-13 0)
(3 1.62403e-13 0)
(3 1.17952e-13 0)
(3 8.64948e-14 0)
(3 7.41523e-14 0)
(3 3.42249e-14 0)
(3 -2.39803e-14 0)
(3 -5.50949e-14 0)
(3 -9.7016e-14 0)
(3 -8.51931e-14 0)
(3 -3.90452e-14 0)
(2.42661 0.189294 0)
(0.890609 0.2437 0)
(0.742945 0.22602 0)
(0.714698 0.216425 0)
(0.681961 0.215466 0)
(0.651574 0.217706 0)
(0.621713 0.222454 0)
(0.592412 0.228064 0)
(0.563157 0.233023 0)
(0.533541 0.236447 0)
(0.503517 0.238114 0)
(0.473734 0.24222 0)
(0.444794 0.25099 0)
(0.415517 0.261495 0)
(0.384631 0.270913 0)
(0.352069 0.280745 0)
(0.317315 0.291113 0)
(0.280778 0.303128 0)
(0.241472 0.312437 0)
(0.201576 0.325957 0)
(0.157202 0.333238 0)
(0.116069 0.355014 0)
(0.0683009 0.361788 0)
(0.0439481 0.371502 0)
(3 -5.30933e-16 0)
(3 5.0155e-14 0)
(3 6.16872e-14 0)
(3 9.06743e-14 0)
(3 6.1522e-14 0)
(3 3.69764e-15 0)
(3 4.36243e-15 0)
(3 1.18177e-13 0)
(3 1.46931e-13 0)
(3 1.51449e-13 0)
(3 9.99697e-14 0)
(3 7.09974e-14 0)
(3 3.67254e-14 0)
(3 4.74373e-14 0)
(3 1.26956e-13 0)
(3 1.19954e-13 0)
(3 4.85721e-14 0)
(3 -2.09027e-15 0)
(3 -4.12862e-14 0)
(3 -4.90772e-14 0)
(3 -5.6597e-14 0)
(3 -8.00263e-14 0)
(3 -3.84649e-14 0)
(3 -5.44012e-14 0)
(2.69732 0.185996 0)
(0.963319 0.27946 0)
(0.776729 0.241408 0)
(0.749933 0.239751 0)
(0.714062 0.241418 0)
(0.680634 0.244581 0)
(0.647172 0.249706 0)
(0.61436 0.255863 0)
(0.581895 0.261632 0)
(0.549559 0.265988 0)
(0.517182 0.267932 0)
(0.485407 0.271419 0)
(0.455192 0.280017 0)
(0.42573 0.291562 0)
(0.395258 0.302627 0)
(0.363542 0.314565 0)
(0.329517 0.327291 0)
(0.293487 0.342368 0)
(0.253546 0.354207 0)
(0.2131 0.370572 0)
(0.16712 0.379575 0)
(0.123921 0.404077 0)
(0.0721337 0.41476 0)
(0.0404924 0.420221 0)
(3 -4.24842e-15 0)
(3 -2.57232e-14 0)
(3 -1.71858e-14 0)
(3 -2.94806e-14 0)
(3 -4.15592e-14 0)
(3 1.46052e-14 0)
(3 5.41462e-14 0)
(3 5.27561e-14 0)
(3 8.07801e-14 0)
(3 6.81039e-14 0)
(3 6.27961e-14 0)
(3 1.29233e-14 0)
(3 6.93679e-15 0)
(3 3.08847e-14 0)
(3 5.57007e-14 0)
(3 8.36924e-14 0)
(3 4.92306e-14 0)
(3 2.87111e-14 0)
(3 3.84869e-14 0)
(3 1.23675e-16 0)
(3 -5.39225e-14 0)
(3 -4.32302e-14 0)
(3 -5.09046e-15 0)
(3 1.06099e-14 0)
(2.95087 0.080382 0)
(1.05993 0.292899 0)
(0.80637 0.257529 0)
(0.789332 0.263074 0)
(0.753007 0.268243 0)
(0.717694 0.273542 0)
(0.681354 0.279917 0)
(0.645655 0.286745 0)
(0.610387 0.292889 0)
(0.575186 0.297969 0)
(0.539818 0.300354 0)
(0.50503 0.302989 0)
(0.472096 0.310649 0)
(0.440963 0.322495 0)
(0.40966 0.334633 0)
(0.377921 0.348431 0)
(0.344263 0.363558 0)
(0.309179 0.382084 0)
(0.269344 0.397146 0)
(0.22849 0.416587 0)
(0.180343 0.428654 0)
(0.133241 0.456867 0)
(0.0806555 0.472054 0)
(0.0509116 0.47391 0)
(3 -6.70694e-15 0)
(3 -3.9379e-14 0)
(3 -4.61043e-14 0)
(3 -6.67868e-14 0)
(3 -6.27908e-14 0)
(3 -5.11678e-14 0)
(3 -1.1019e-14 0)
(3 4.64948e-16 0)
(3 -8.93117e-16 0)
(3 2.59005e-14 0)
(3 4.77547e-14 0)
(3 1.57802e-14 0)
(3 -5.28173e-15 0)
(3 -1.08742e-14 0)
(3 5.20585e-14 0)
(3 9.42877e-14 0)
(3 1.24486e-13 0)
(3 1.28447e-13 0)
(3 1.4785e-13 0)
(3 1.12563e-13 0)
(3 5.17829e-14 0)
(3 4.94586e-14 0)
(3 5.3373e-14 0)
(3 3.10383e-14 0)
(3.01821 0.00739271 0)
(1.14879 0.288425 0)
(0.808382 0.271291 0)
(0.79859 0.293049 0)
(0.76962 0.300677 0)
(0.740757 0.305124 0)
(0.709573 0.310423 0)
(0.676791 0.317553 0)
(0.642435 0.32542 0)
(0.606893 0.33213 0)
(0.570081 0.335617 0)
(0.5328 0.337812 0)
(0.496728 0.344071 0)
(0.462885 0.355544 0)
(0.42961 0.368058 0)
(0.39692 0.383153 0)
(0.363029 0.400092 0)
(0.32873 0.421886 0)
(0.288828 0.441134 0)
(0.246898 0.465487 0)
(0.19553 0.483923 0)
(0.144684 0.517445 0)
(0.0858602 0.53254 0)
(0.055773 0.537643 0)
(3 7.81158e-15 0)
(3 9.00243e-15 0)
(3 -3.19985e-14 0)
(3 -2.8231e-14 0)
(3 6.94134e-15 0)
(3 1.35046e-15 0)
(3 3.16819e-14 0)
(3 6.39385e-14 0)
(3 3.32641e-14 0)
(3 1.07373e-14 0)
(3 2.98311e-14 0)
(3 1.1571e-14 0)
(3 8.65998e-15 0)
(3 -1.37577e-14 0)
(3 1.0819e-14 0)
(3 4.34417e-14 0)
(3 4.2335e-14 0)
(3 8.44995e-14 0)
(3 9.53311e-14 0)
(3 8.71923e-14 0)
(3 6.40187e-14 0)
(3 6.97744e-14 0)
(3 3.64742e-14 0)
(3 1.84635e-14 0)
(3.00063 1.79156e-05 0)
(1.27995 0.306876 0)
(0.798069 0.278674 0)
(0.78159 0.308646 0)
(0.759294 0.325098 0)
(0.736943 0.332517 0)
(0.715282 0.338943 0)
(0.693079 0.346485 0)
(0.667786 0.355155 0)
(0.637684 0.364388 0)
(0.603393 0.371074 0)
(0.5663 0.374829 0)
(0.528466 0.38047 0)
(0.492053 0.391539 0)
(0.456299 0.403847 0)
(0.421894 0.419516 0)
(0.386728 0.437743 0)
(0.352507 0.462761 0)
(0.31311 0.48711 0)
(0.271971 0.517135 0)
(0.221654 0.541989 0)
(0.170972 0.58221 0)
(0.103714 0.599972 0)
(0.0702075 0.61154 0)
(3 1.73458e-14 0)
(3 3.82616e-15 0)
(3 -4.90096e-14 0)
(3 -5.2003e-14 0)
(3 -1.84987e-14 0)
(3 -1.76541e-14 0)
(3 8.86241e-15 0)
(3 1.8065e-14 0)
(3 -3.97928e-14 0)
(3 -7.03566e-14 0)
(3 -6.86753e-14 0)
(3 -3.27929e-14 0)
(3 2.84859e-14 0)
(3 1.03217e-14 0)
(3 -2.26378e-14 0)
(3 -4.18153e-14 0)
(3 -2.43826e-14 0)
(3 4.93825e-16 0)
(3 7.74825e-15 0)
(3 2.34195e-14 0)
(3 7.2455e-14 0)
(3 5.98944e-14 0)
(3 -1.20512e-14 0)
(3 -4.06038e-14 0)
(3 -6.83024e-08 0)
(1.49735 0.335633 0)
(0.808269 0.309224 0)
(0.753198 0.318047 0)
(0.736628 0.332044 0)
(0.719532 0.342002 0)
(0.704683 0.353145 0)
(0.688774 0.365171 0)
(0.673108 0.379213 0)
(0.654073 0.392573 0)
(0.6289 0.403637 0)
(0.597638 0.411309 0)
(0.562437 0.418322 0)
(0.526375 0.42992 0)
(0.489428 0.442055 0)
(0.453299 0.458271 0)
(0.416992 0.476973 0)
(0.383076 0.504298 0)
(0.344774 0.533066 0)
(0.304935 0.569456 0)
(0.252042 0.605296 0)
(0.196256 0.660332 0)
(0.116724 0.688256 0)
(0.0716766 0.708752 0)
(3 -1.5001e-14 0)
(3 -1.65292e-14 0)
(3 1.73978e-14 0)
(3 3.70763e-14 0)
(3 1.12356e-14 0)
(3 1.24158e-16 0)
(3 -1.0476e-14 0)
(3 -3.81016e-14 0)
(3 -8.02629e-14 0)
(3 -8.82844e-14 0)
(3 -9.807e-14 0)
(3 -4.68682e-14 0)
(3 -2.38462e-14 0)
(3 -2.18028e-14 0)
(3 -7.98603e-14 0)
(3 -1.05549e-13 0)
(3 -3.386e-14 0)
(3 -2.56511e-14 0)
(3 -5.92316e-14 0)
(3 -4.40356e-14 0)
(3 1.39716e-15 0)
(3 -2.20438e-14 0)
(3 -2.74133e-14 0)
(3 -4.67088e-14 0)
(3 -8.71642e-08 0)
(1.82954 0.374457 0)
(0.835685 0.368493 0)
(0.744992 0.347923 0)
(0.725854 0.349416 0)
(0.710736 0.356397 0)
(0.696455 0.36532 0)
(0.682745 0.377129 0)
(0.669321 0.39227 0)
(0.656669 0.410612 0)
(0.64126 0.428358 0)
(0.619401 0.442516 0)
(0.591437 0.453847 0)
(0.56038 0.468155 0)
(0.525256 0.482123 0)
(0.490071 0.499416 0)
(0.453441 0.518116 0)
(0.419591 0.547076 0)
(0.382459 0.580789 0)
(0.344992 0.626274 0)
(0.296243 0.675007 0)
(0.25023 0.744109 0)
(0.167804 0.78878 0)
(0.111181 0.822417 0)
(3 -6.24605e-15 0)
(3 1.83573e-14 0)
(3 8.83708e-14 0)
(3 6.40635e-14 0)
(3 1.69754e-14 0)
(3 -5.67795e-15 0)
(3 -3.12187e-14 0)
(3 -3.61833e-14 0)
(3 -5.87538e-14 0)
(3 -6.89928e-14 0)
(3 -8.14165e-14 0)
(3 -7.24922e-14 0)
(3 -9.60847e-14 0)
(3 -1.01372e-13 0)
(3 -6.39189e-14 0)
(3 -4.70683e-14 0)
(3 -8.25502e-14 0)
(3 -6.68812e-14 0)
(3 -5.57005e-15 0)
(3 8.28964e-15 0)
(3 -1.91011e-14 0)
(3 -1.66307e-14 0)
(3 -1.44217e-14 0)
(3 -3.43185e-14 0)
(3 -1.85714e-08 0)
(2.31456 0.375778 0)
(0.908493 0.437656 0)
(0.784869 0.376331 0)
(0.753117 0.373499 0)
(0.725804 0.376448 0)
(0.703893 0.383574 0)
(0.686393 0.394163 0)
(0.671249 0.407599 0)
(0.658536 0.424999 0)
(0.646733 0.445229 0)
(0.633052 0.465382 0)
(0.613348 0.482889 0)
(0.589951 0.501717 0)
(0.561358 0.519977 0)
(0.530336 0.540246 0)
(0.495418 0.560067 0)
(0.463286 0.590789 0)
(0.42913 0.628195 0)
(0.399649 0.679852 0)
(0.356967 0.737302 0)
(0.316592 0.835764 0)
(0.206521 0.944829 0)
(0.161199 1.03804 0)
(3 8.53054e-15 0)
(3 2.06551e-14 0)
(3 -1.07551e-14 0)
(3 -3.54887e-14 0)
(3 -3.37678e-14 0)
(3 -3.75935e-14 0)
(3 -3.11731e-14 0)
(3 -1.13687e-14 0)
(3 -1.54899e-14 0)
(3 -7.00342e-14 0)
(3 -8.81176e-14 0)
(3 -1.27854e-13 0)
(3 -1.65677e-13 0)
(3 -1.84125e-13 0)
(3 -1.89865e-13 0)
(3 -4.6729e-14 0)
(3 -4.53693e-14 0)
(3 -7.10273e-14 0)
(3 -2.24441e-14 0)
(3 6.11902e-14 0)
(3 8.0903e-14 0)
(3 7.75214e-14 0)
(3 6.51455e-14 0)
(3 2.70106e-14 0)
(3 -1.91785e-09 0)
(2.90772 0.191765 0)
(1.07507 0.464699 0)
(0.860828 0.399454 0)
(0.823846 0.395098 0)
(0.777321 0.40016 0)
(0.738806 0.405015 0)
(0.709532 0.41321 0)
(0.686746 0.425029 0)
(0.669244 0.441078 0)
(0.655734 0.460937 0)
(0.644277 0.483098 0)
(0.630631 0.505469 0)
(0.613897 0.529336 0)
(0.593869 0.553362 0)
(0.57007 0.578883 0)
(0.540468 0.601792 0)
(0.513096 0.634547 0)
(0.483156 0.673205 0)
(0.462298 0.731004 0)
(0.427023 0.809897 0)
(0.410652 0.944758 0)
(0.394908 1.09488 0)
(0.539447 1.34559 0)
(3 6.15084e-15 0)
(3 9.70959e-15 0)
(3 -2.41018e-14 0)
(3 -5.48599e-15 0)
(3 2.2155e-15 0)
(3 -3.84099e-15 0)
(3 -5.02107e-14 0)
(3 -1.24371e-13 0)
(3 -8.24426e-14 0)
(3 -8.57738e-14 0)
(3 -1.13489e-13 0)
(3 -1.55809e-13 0)
(3 -1.99619e-13 0)
(3 -1.82509e-13 0)
(3 -1.48215e-13 0)
(3 -7.3486e-14 0)
(3 -7.41574e-14 0)
(3 -6.08485e-14 0)
(3 -6.83731e-14 0)
(3 1.68922e-14 0)
(3 4.63615e-14 0)
(3 2.20348e-14 0)
(3 -1.4439e-14 0)
(3 -6.59754e-14 0)
(3 -7.81605e-11 0)
(3.04722 0.0118884 0)
(1.2673 0.42836 0)
(0.883829 0.43049 0)
(0.857858 0.447535 0)
(0.821909 0.445201 0)
(0.782663 0.441904 0)
(0.746171 0.443312 0)
(0.715266 0.44904 0)
(0.690777 0.460278 0)
(0.672902 0.477371 0)
(0.659811 0.499107 0)
(0.648181 0.523398 0)
(0.636951 0.550595 0)
(0.623748 0.579432 0)
(0.609157 0.610835 0)
(0.58747 0.638989 0)
(0.56779 0.674922 0)
(0.544544 0.715308 0)
(0.532957 0.77767 0)
(0.523603 0.869531 0)
(0.537937 1.00949 0)
(0.624798 1.16066 0)
(0.932996 1.34894 0)
(3 -3.12468e-15 0)
(3 -8.187e-15 0)
(3 1.95648e-14 0)
(3 5.39917e-14 0)
(3 3.31968e-14 0)
(3 4.15129e-14 0)
(3 -1.85937e-14 0)
(3 -7.96113e-14 0)
(3 -8.26505e-14 0)
(3 -3.88973e-14 0)
(3 -2.60344e-14 0)
(3 -1.79566e-14 0)
(3 -5.32111e-14 0)
(3 -2.03238e-14 0)
(3 -7.13351e-15 0)
(3 -6.32467e-14 0)
(3 -2.18164e-14 0)
(3 5.0391e-14 0)
(3 7.18637e-14 0)
(3 1.50748e-13 0)
(3 4.70641e-14 0)
(3 -5.42041e-14 0)
(3 -1.20781e-13 0)
(3 -1.24134e-13 0)
(3 -1.69876e-12 0)
(3.00174 -7.10762e-06 0)
(1.49129 0.424983 0)
(0.866041 0.460154 0)
(0.844691 0.47066 0)
(0.823321 0.474319 0)
(0.801128 0.475323 0)
(0.774701 0.47705 0)
(0.745933 0.480241 0)
(0.719057 0.486544 0)
(0.696574 0.498628 0)
(0.680611 0.517395 0)
(0.667999 0.540678 0)
(0.659883 0.568956 0)
(0.650966 0.600704 0)
(0.645295 0.636607 0)
(0.633265 0.670978 0)
(0.623726 0.710878 0)
(0.610936 0.753637 0)
(0.610325 0.815562 0)
(0.625477 0.905818 0)
(0.673168 1.02897 0)
(0.822842 1.16424 0)
(1.16054 1.27796 0)
(3 -7.20459e-15 0)
(3 -1.26403e-14 0)
(3 -2.20413e-15 0)
(3 6.22301e-14 0)
(3 8.11521e-14 0)
(3 6.72501e-14 0)
(3 4.66668e-14 0)
(3 4.98423e-14 0)
(3 2.61172e-14 0)
(3 5.97894e-14 0)
(3 1.2438e-13 0)
(3 1.1563e-13 0)
(3 1.21524e-13 0)
(3 1.00116e-13 0)
(3 5.45069e-14 0)
(3 -2.32471e-14 0)
(3 -2.009e-14 0)
(3 1.79043e-14 0)
(3 1.22771e-13 0)
(3 1.19361e-13 0)
(3 6.7555e-14 0)
(3 9.43472e-15 0)
(3 -4.86562e-14 0)
(3 -4.05851e-14 0)
(3 -1.0274e-13 0)
(3 -2.03279e-07 0)
(1.93047 0.452178 0)
(0.89456 0.491689 0)
(0.831473 0.477304 0)
(0.825931 0.487703 0)
(0.812445 0.495842 0)
(0.79547 0.502669 0)
(0.774105 0.508215 0)
(0.750854 0.51426 0)
(0.727537 0.522358 0)
(0.709224 0.537496 0)
(0.69391 0.557643 0)
(0.686322 0.584542 0)
(0.679685 0.616533 0)
(0.679936 0.654587 0)
(0.677168 0.694421 0)
(0.678816 0.738213 0)
(0.678622 0.783936 0)
(0.690513 0.842428 0)
(0.721855 0.923303 0)
(0.79825 1.02884 0)
(0.969258 1.13778 0)
(1.25331 1.20777 0)
(3 5.03827e-15 0)
(3 -7.87294e-15 0)
(3 -2.26952e-14 0)
(3 -4.03251e-14 0)
(3 -2.27888e-15 0)
(3 -9.52693e-15 0)
(3 1.12099e-14 0)
(3 8.45788e-14 0)
(3 6.74852e-14 0)
(3 6.60214e-14 0)
(3 3.80579e-14 0)
(3 4.30287e-14 0)
(3 9.06654e-14 0)
(3 1.13559e-13 0)
(3 4.03229e-14 0)
(3 -4.03929e-14 0)
(3 -1.05709e-13 0)
(3 -7.94247e-14 0)
(3 -3.73401e-14 0)
(3 -6.51753e-14 0)
(3 -4.51993e-14 0)
(3 -2.18032e-14 0)
(3 -2.80336e-14 0)
(3 -2.26291e-14 0)
(3 1.85592e-15 0)
(3 -2.55003e-07 0)
(2.60655 0.358524 0)
(1.01397 0.546362 0)
(0.873848 0.484851 0)
(0.855222 0.494609 0)
(0.837587 0.509138 0)
(0.820748 0.521598 0)
(0.802023 0.531982 0)
(0.782944 0.541532 0)
(0.761702 0.549502 0)
(0.742861 0.562602 0)
(0.725827 0.578683 0)
(0.716427 0.602463 0)
(0.710816 0.63213 0)
(0.71402 0.668972 0)
(0.718392 0.710971 0)
(0.73008 0.757478 0)
(0.743162 0.806111 0)
(0.767488 0.861213 0)
(0.810962 0.930901 0)
(0.903387 1.01622 0)
(1.06829 1.09675 0)
(1.30653 1.14268 0)
(3 2.4798e-15 0)
(3 -1.5527e-14 0)
(3 -4.90916e-14 0)
(3 -9.84532e-14 0)
(3 -1.0559e-13 0)
(3 -9.00116e-14 0)
(3 -5.99571e-14 0)
(3 -2.02114e-14 0)
(3 5.4286e-15 0)
(3 6.153e-15 0)
(3 1.89501e-14 0)
(3 4.16849e-14 0)
(3 3.85023e-14 0)
(3 1.60368e-14 0)
(3 5.61909e-14 0)
(3 2.04784e-14 0)
(3 -6.40394e-14 0)
(3 -6.74369e-14 0)
(3 -9.39653e-14 0)
(3 -1.79165e-13 0)
(3 -1.47542e-13 0)
(3 -1.0144e-13 0)
(3 -3.94644e-14 0)
(3 1.76351e-14 0)
(3 4.25863e-14 0)
(3 -5.36434e-08 0)
(3.08194 0.0488603 0)
(1.26763 0.525321 0)
(0.929515 0.5137 0)
(0.897028 0.523472 0)
(0.872415 0.53126 0)
(0.851467 0.540253 0)
(0.833421 0.550822 0)
(0.817258 0.562734 0)
(0.798877 0.57264 0)
(0.78154 0.58614 0)
(0.764539 0.599923 0)
(0.752818 0.620311 0)
(0.746539 0.646473 0)
(0.749879 0.680094 0)
(0.758286 0.720541 0)
(0.776471 0.766986 0)
(0.800937 0.817189 0)
(0.836446 0.870387 0)
(0.890345 0.930988 0)
(0.987539 0.997303 0)
(1.13565 1.05249 0)
(1.33048 1.08308 0)
(3 1.6048e-15 0)
(3 2.25791e-14 0)
(3 2.02162e-14 0)
(3 -4.80997e-15 0)
(3 -4.37062e-14 0)
(3 -5.76508e-14 0)
(3 -4.02626e-14 0)
(3 -4.62125e-14 0)
(3 -2.95518e-14 0)
(3 -1.37192e-14 0)
(3 2.5962e-14 0)
(3 1.56695e-14 0)
(3 -3.29872e-15 0)
(3 1.06304e-14 0)
(3 3.62661e-14 0)
(3 4.02772e-14 0)
(3 3.10713e-14 0)
(3 -7.48236e-15 0)
(3 -2.3857e-14 0)
(3 -1.26015e-13 0)
(3 -1.07459e-13 0)
(3 -5.32386e-14 0)
(3 1.24032e-13 0)
(3 1.65376e-13 0)
(3 1.29937e-13 0)
(3 -5.46018e-09 0)
(3.00942 0.000132291 0)
(1.49563 0.507483 0)
(0.918912 0.570991 0)
(0.892537 0.556065 0)
(0.87675 0.55771 0)
(0.862113 0.56401 0)
(0.849378 0.573857 0)
(0.83864 0.586532 0)
(0.826174 0.597976 0)
(0.814375 0.612248 0)
(0.801481 0.625605 0)
(0.791228 0.642957 0)
(0.785087 0.664537 0)
(0.787902 0.693448 0)
(0.798418 0.729381 0)
(0.819671 0.771782 0)
(0.851002 0.819679 0)
(0.895385 0.870861 0)
(0.95834 0.925679 0)
(1.05426 0.977666 0)
(1.186 1.01644 0)
(1.34557 1.03616 0)
(3 1.18173e-14 0)
(3 5.57779e-14 0)
(3 4.79098e-14 0)
(3 3.75068e-14 0)
(3 2.80395e-14 0)
(3 3.77667e-14 0)
(3 4.81024e-14 0)
(3 1.24638e-14 0)
(3 2.16297e-14 0)
(3 1.98911e-14 0)
(3 -1.58516e-14 0)
(3 -5.20025e-14 0)
(3 -2.73041e-14 0)
(3 3.82148e-14 0)
(3 -1.90149e-15 0)
(3 -1.31337e-14 0)
(3 1.15671e-13 0)
(3 1.69145e-13 0)
(3 1.12792e-13 0)
(3 7.68273e-14 0)
(3 7.67601e-14 0)
(3 1.21267e-13 0)
(3 1.66604e-13 0)
(3 1.22502e-13 0)
(3 8.79339e-14 0)
(3 -1.7353e-10 0)
(3.00007 -2.53109e-06 0)
(2.06039 0.512025 0)
(0.965994 0.602863 0)
(0.904283 0.567128 0)
(0.894291 0.57248 0)
(0.8822 0.579651 0)
(0.871227 0.588768 0)
(0.862588 0.601711 0)
(0.853684 0.614649 0)
(0.846404 0.630252 0)
(0.83834 0.645328 0)
(0.831604 0.662582 0)
(0.826915 0.681269 0)
(0.828986 0.705929 0)
(0.839905 0.737037 0)
(0.861729 0.774011 0)
(0.895106 0.816625 0)
(0.943614 0.863084 0)
(1.0114 0.911349 0)
(1.10428 0.954659 0)
(1.22213 0.984444 0)
(1.35451 0.996183 0)
(3 7.57556e-15 0)
(3 3.61366e-15 0)
(3 -1.83779e-14 0)
(3 1.45985e-15 0)
(3 2.53345e-14 0)
(3 4.7866e-14 0)
(3 6.39758e-14 0)
(3 6.93675e-14 0)
(3 4.47983e-14 0)
(3 1.4109e-15 0)
(3 -5.43018e-14 0)
(3 -9.58333e-14 0)
(3 -1.06177e-13 0)
(3 -9.30104e-14 0)
(3 -8.72862e-16 0)
(3 1.00803e-13 0)
(3 9.86518e-14 0)
(3 8.17525e-14 0)
(3 9.06743e-14 0)
(3 1.06499e-13 0)
(3 1.32648e-13 0)
(3 1.39941e-13 0)
(3 1.06299e-13 0)
(3 2.75178e-14 0)
(3 9.4088e-16 0)
(3 -4.80826e-13 0)
(3.00001 -3.31058e-06 0)
(2.87342 0.247975 0)
(1.15305 0.616863 0)
(0.961654 0.572833 0)
(0.937446 0.580114 0)
(0.916924 0.593197 0)
(0.900671 0.603683 0)
(0.889653 0.617073 0)
(0.880569 0.630494 0)
(0.875369 0.646684 0)
(0.871213 0.663325 0)
(0.869039 0.681621 0)
(0.868101 0.699784 0)
(0.871186 0.720695 0)
(0.88224 0.746893 0)
(0.9038 0.778117 0)
(0.937149 0.814109 0)
(0.986076 0.854011 0)
(1.05384 0.894386 0)
(1.14334 0.932323 0)
(1.24862 0.957233 0)
(1.36463 0.965725 0)
(3 -4.09738e-14 0)
(3 -3.67405e-14 0)
(3 -9.27067e-16 0)
(3 3.10628e-14 0)
(3 7.7589e-14 0)
(3 4.91745e-14 0)
(3 7.83547e-15 0)
(3 -4.80649e-14 0)
(3 -6.49196e-14 0)
(3 -6.9626e-14 0)
(3 -7.67332e-14 0)
(3 -6.2379e-14 0)
(3 -7.04015e-14 0)
(3 -9.97723e-14 0)
(3 -7.53685e-14 0)
(3 -3.31576e-14 0)
(3 -9.07554e-15 0)
(3 -6.08386e-14 0)
(3 -6.8603e-14 0)
(3 -4.72196e-14 0)
(3 -1.72511e-14 0)
(3 8.24945e-14 0)
(3 1.05421e-13 0)
(3 9.53028e-14 0)
(3 6.50326e-14 0)
(3 6.04738e-14 0)
(3 -7.00178e-07 0)
(3.05676 0.0131748 0)
(1.40287 0.57439 0)
(0.992084 0.623808 0)
(0.963963 0.620641 0)
(0.938733 0.623297 0)
(0.922993 0.626892 0)
(0.91249 0.636669 0)
(0.904477 0.647569 0)
(0.901082 0.661901 0)
(0.900314 0.678002 0)
(0.902458 0.696325 0)
(0.90652 0.715221 0)
(0.912832 0.734404 0)
(0.924637 0.756303 0)
(0.945666 0.782115 0)
(0.978142 0.811389 0)
(1.02465 0.843665 0)
(1.08725 0.876111 0)
(1.16933 0.907858 0)
(1.26242 0.928738 0)
(1.36866 0.935648 0)
(3 -5.64943e-15 0)
(3 -2.56273e-14 0)
(3 -1.17385e-14 0)
(3 1.23147e-14 0)
(3 2.9234e-14 0)
(3 1.95179e-14 0)
(3 -4.80931e-14 0)
(3 -1.13638e-13 0)
(3 -9.02535e-14 0)
(3 -6.03006e-14 0)
(3 3.7493e-15 0)
(3 6.96919e-14 0)
(3 8.08334e-14 0)
(3 8.7323e-14 0)
(3 4.88018e-14 0)
(3 -3.4225e-15 0)
(3 -5.50123e-14 0)
(3 -6.00428e-14 0)
(3 -7.33564e-14 0)
(3 -7.18318e-14 0)
(3 -2.50246e-14 0)
(3 3.37631e-14 0)
(3 8.4789e-14 0)
(3 1.30054e-13 0)
(3 1.19458e-13 0)
(3 1.27266e-13 0)
(3 -7.10144e-08 0)
(3.00187 -4.58166e-07 0)
(1.86459 0.566368 0)
(0.999651 0.661139 0)
(0.965611 0.638611 0)
(0.958175 0.643745 0)
(0.94891 0.645744 0)
(0.939127 0.653151 0)
(0.931541 0.661948 0)
(0.927957 0.674488 0)
(0.928456 0.689572 0)
(0.932957 0.707297 0)
(0.940757 0.726735 0)
(0.951539 0.746359 0)
(0.965064 0.766192 0)
(0.986573 0.788518 0)
(1.0188 0.812554 0)
(1.06253 0.83818 0)
(1.11948 0.864518 0)
(1.19366 0.889603 0)
(1.27652 0.905167 0)
(1.37393 0.91215 0)
(3 1.46234e-14 0)
(3 1.36318e-14 0)
(3 -2.42201e-14 0)
(3 -9.16214e-14 0)
(3 -7.03623e-14 0)
(3 -2.38724e-14 0)
(3 -1.89427e-14 0)
(3 8.43204e-15 0)
(3 -9.4307e-15 0)
(3 2.57677e-15 0)
(3 2.53832e-14 0)
(3 4.19494e-14 0)
(3 3.22533e-14 0)
(3 1.87994e-14 0)
(3 -1.81577e-15 0)
(3 -3.18672e-14 0)
(3 -1.27733e-13 0)
(3 -9.69147e-14 0)
(3 -5.37851e-14 0)
(3 -1.66844e-14 0)
(3 5.55579e-14 0)
(3 1.65508e-14 0)
(3 4.15317e-14 0)
(3 6.38668e-14 0)
(3 8.37751e-14 0)
(3 1.0335e-13 0)
(3 -2.25231e-09 0)
(3 -1.71884e-07 0)
(2.73687 0.330564 0)
(1.15067 0.67437 0)
(1.0011 0.638312 0)
(0.990164 0.650046 0)
(0.979494 0.659531 0)
(0.968894 0.668819 0)
(0.960573 0.67727 0)
(0.95601 0.688159 0)
(0.956096 0.701295 0)
(0.961574 0.717407 0)
(0.970833 0.735511 0)
(0.985592 0.755346 0)
(1.00201 0.77409 0)
(1.02534 0.792666 0)
(1.05719 0.812596 0)
(1.09759 0.832418 0)
(1.14933 0.852902 0)
(1.21411 0.870967 0)
(1.28681 0.881868 0)
(1.37394 0.888682 0)
(3 -5.68107e-15 0)
(3 5.6762e-15 0)
(3 1.86488e-14 0)
(3 -1.52297e-15 0)
(3 -1.38503e-14 0)
(3 8.15083e-18 0)
(3 3.3635e-14 0)
(3 5.01533e-14 0)
(3 4.54889e-14 0)
(3 2.63087e-14 0)
(3 -3.86015e-15 0)
(3 1.65238e-14 0)
(3 1.55834e-14 0)
(3 -4.82312e-14 0)
(3 -9.54641e-14 0)
(3 -1.13194e-13 0)
(3 -7.86194e-14 0)
(3 -8.68422e-15 0)
(3 3.07874e-14 0)
(3 5.14168e-14 0)
(3 1.89128e-14 0)
(3 1.84895e-14 0)
(3 5.95202e-14 0)
(3 7.63242e-14 0)
(3 9.6032e-14 0)
(3 1.06683e-13 0)
(3 -5.24567e-12 0)
(3 -2.26526e-07 0)
(3.06987 0.0245621 0)
(1.44149 0.641216 0)
(1.04702 0.682448 0)
(1.01541 0.679582 0)
(1.00058 0.683583 0)
(0.990701 0.690117 0)
(0.984607 0.695412 0)
(0.981912 0.703698 0)
(0.982969 0.71356 0)
(0.988916 0.727037 0)
(0.998871 0.743008 0)
(1.01506 0.761073 0)
(1.03455 0.779702 0)
(1.0604 0.798046 0)
(1.09246 0.815853 0)
(1.1307 0.832262 0)
(1.17933 0.848458 0)
(1.2363 0.861101 0)
(1.3018 0.868907 0)
(1.37838 0.874261 0)
(3 -3.45883e-15 0)
(3 1.21395e-14 0)
(3 8.26993e-14 0)
(3 1.44257e-13 0)
(3 6.37469e-14 0)
(3 1.42464e-14 0)
(3 3.14986e-15 0)
(3 -9.22023e-15 0)
(3 8.24104e-15 0)
(3 5.82589e-15 0)
(3 -1.89259e-14 0)
(3 2.59856e-14 0)
(3 1.52705e-14 0)
(3 1.69498e-14 0)
(3 1.89279e-14 0)
(3 3.15787e-14 0)
(3 8.03174e-14 0)
(3 1.17555e-13 0)
(3 1.04527e-13 0)
(3 3.81687e-14 0)
(3 2.87656e-15 0)
(3 3.45441e-14 0)
(3 9.41992e-15 0)
(3 -6.16453e-14 0)
(3 -7.0533e-14 0)
(3 -4.33386e-15 0)
(3 9.45834e-14 0)
(3 -4.85768e-08 0)
(3.00354 7.82253e-05 0)
(1.9992 0.61 0)
(1.07328 0.728078 0)
(1.03558 0.699323 0)
(1.03108 0.698398 0)
(1.02237 0.704253 0)
(1.01511 0.708865 0)
(1.01218 0.716539 0)
(1.01287 0.72505 0)
(1.01792 0.736779 0)
(1.02718 0.749487 0)
(1.04249 0.766026 0)
(1.06357 0.782091 0)
(1.09054 0.798592 0)
(1.12234 0.814305 0)
(1.15966 0.828297 0)
(1.20554 0.840976 0)
(1.25667 0.850146 0)
(1.31643 0.855819 0)
(1.38316 0.859123 0)
(3 6.11723e-15 0)
(3 7.00512e-15 0)
(3 3.17886e-14 0)
(3 3.04923e-14 0)
(3 3.60312e-15 0)
(3 -2.93379e-14 0)
(3 -6.77688e-14 0)
(3 -5.87843e-14 0)
(3 -1.38052e-14 0)
(3 2.25289e-14 0)
(3 5.21762e-14 0)
(3 -1.15822e-14 0)
(3 -2.14495e-14 0)
(3 1.37223e-14 0)
(3 1.5639e-14 0)
(3 4.53481e-14 0)
(3 8.48117e-14 0)
(3 8.80076e-14 0)
(3 6.38473e-14 0)
(3 3.27551e-14 0)
(3 1.08784e-14 0)
(3 -3.38141e-14 0)
(3 -3.24668e-14 0)
(3 -4.15721e-14 0)
(3 -1.04966e-14 0)
(3 2.39799e-14 0)
(3 1.02534e-13 0)