/*--------------------------------*- C++ -*----------------------------------*\
  =========                 |
  \\      /  F ield         | OpenFOAM: The Open Source CFD Toolbox
   \\    /   O peration     | Website:  https://openfoam.org
    \\  /    A nd           | Version:  10
     \\/     M anipulation  |
\*---------------------------------------------------------------------------*/
FoamFile
{
    format      ascii;
    class       surfaceScalarField;
    location    "54";
    object      phi;
}
// * * * * * * * * * * * * * * * * * * * * * * * * * * * * * * * * * * * * * //

dimensions      [0 3 -1 0 0 0 0];

internalField   nonuniform List<scalar> 
17370
(
-0.091607
0.0960098
0.284608
-0.0775956
0.0594214
0.36495
-0.0430446
0.031626
0.427587
-0.0223236
0.0162723
0.505303
-0.0116802
0.00880669
0.602276
-0.00659536
0.00511016
0.720543
-0.00387304
0.00299251
0.863787
-0.00221925
0.00164085
1.03603
-0.00110932
0.0006884
1.24292
-0.000277323
-0.000115932
1.49158
0.000504008
-0.000916889
1.4916
0.00132037
-0.00182454
1.24319
0.0023754
-0.00311947
1.03638
0.00397795
-0.00519804
0.864127
0.0066733
-0.00887595
0.72126
0.0117398
-0.0163179
0.603793
0.022355
-0.031642
0.508726
0.0430439
-0.0594107
0.432535
0.077589
-0.0960039
0.36519
0.0916208
0.19739
-0.12709
0.088021
0.0390692
-0.364355
0.354028
-0.0714772
0.0818035
-0.446654
0.454253
-0.0791731
0.0715745
-0.521011
0.529107
-0.0637238
0.0556277
-0.612991
0.620759
-0.0482422
0.0404739
-0.727163
0.733684
-0.0338623
0.0273415
-0.86758
0.872432
-0.0221375
0.017285
-1.03856
1.0419
-0.0135861
0.0102459
-1.24472
1.24713
-0.00769464
0.00528838
-1.49284
1.49486
-0.00332363
0.00130832
-1.49269
1.49451
0.000512487
-0.00233315
-1.24411
1.24602
0.00430704
-0.00621884
-1.03761
1.04009
0.00855544
-0.0110361
-0.866187
0.869817
0.0142962
-0.0179258
-0.724595
0.729749
0.0227127
-0.0278672
-0.609065
0.615634
0.0343409
-0.0409104
-0.515123
0.522459
0.0486303
-0.0559662
-0.43988
0.447658
0.063989
-0.0717679
-0.374708
0.377355
0.0792646
-0.081912
-0.256898
0.224436
0.071562
-0.0391006
-0.0688092
0.0591966
0.00961259
-0.052112
0.0589398
-0.374836
0.368008
-0.0580939
0.0542533
-0.453945
0.457786
-0.0487683
0.0442106
-0.527617
0.532174
-0.0396623
0.0357673
-0.620801
0.624696
-0.0315546
0.0275592
-0.734659
0.738654
-0.0232017
0.0193136
-0.873955
0.877843
-0.0152676
0.01181
-1.04336
1.04682
-0.00828985
0.00525623
-1.24865
1.25168
-0.00204676
-0.000936059
-1.49695
1.49993
0.00389716
-0.00704603
-1.49742
1.50057
0.00999136
-0.0133933
-1.25007
1.25347
0.0167321
-0.0206431
-1.04565
1.04956
0.0244119
-0.0286501
-0.877136
0.881374
0.0325492
-0.0366676
-0.738981
0.7431
0.0404848
-0.0449565
-0.62597
0.630441
0.0494503
-0.0548729
-0.535015
0.540438
0.0586412
-0.0594013
-0.458075
0.458835
0.0524548
-0.0320656
-0.336763
0.316373
0.00967373
-0.0686621
0.0589884
-0.0534072
0.0492953
0.00411191
-0.0332459
0.0436709
-0.358561
0.348136
-0.0473482
0.046763
-0.459579
0.460165
-0.0438365
0.0406257
-0.536132
0.539343
-0.0369503
0.0335964
-0.628395
0.631749
-0.0299628
0.0267213
-0.742033
0.745275
-0.0232676
0.020069
-0.881336
0.884535
-0.0164751
0.0131228
-1.05025
1.0536
-0.00942322
0.0060178
-1.25495
1.25835
-0.00222583
-0.0013916
-1.50328
1.5069
0.00497805
-0.00867987
-1.50406
1.50777
0.0119629
-0.0154975
-1.25703
1.26056
0.0186824
-0.0220837
-1.05326
1.05666
0.0251103
-0.0283912
-0.884981
0.888262
0.0314929
-0.0349903
-0.746781
0.750278
0.0382297
-0.0417866
-0.63456
0.638117
0.0448947
-0.0477059
-0.54458
0.547392
0.0481717
-0.0443279
-0.45695
0.453107
0.0336985
-0.0163818
-0.297054
0.279738
0.00417936
-0.053138
0.0489586
-0.0461258
0.04357
0.00255585
-0.0230494
0.0334001
-0.337545
0.327194
-0.0391354
0.0400857
-0.459916
0.458965
-0.038836
0.0365092
-0.542001
0.544327
-0.0338685
0.0313232
-0.634717
0.637262
-0.0283469
0.0254989
-0.748359
0.751207
-0.0222604
0.0192457
-0.887589
0.890604
-0.0158937
0.0127591
-1.05677
1.05991
-0.00920187
0.00580147
-1.26175
1.26515
-0.00189061
-0.00190748
-1.51063
1.51443
0.00566603
-0.00945635
-1.51155
1.51534
0.0126945
-0.0160336
-1.26402
1.26736
0.0189474
-0.0220474
-1.05987
1.06297
0.0248359
-0.0278422
-0.891456
0.894462
0.0304984
-0.0332859
-0.753456
0.756244
0.0356741
-0.0381565
-0.641068
0.643551
0.0403481
-0.0414192
-0.549225
0.550296
0.0402838
-0.0342779
-0.44798
0.441974
0.0236297
-0.0103777
-0.264547
0.251295
0.00263938
-0.0457139
0.0430745
-0.0414516
0.0396511
0.00180048
-0.016946
0.026232
-0.317326
0.30804
-0.0328287
0.0349494
-0.457406
0.455285
-0.0345149
0.0328157
-0.546358
0.548057
-0.0305878
0.0284597
-0.639575
0.641703
-0.026022
0.0236431
-0.753808
0.756187
-0.0208273
0.0180797
-0.89346
0.896208
-0.014894
0.0118582
-1.06295
1.06599
-0.00839197
0.00507609
-1.26847
1.27178
-0.00123699
-0.00250943
-1.51819
1.52194
0.00620499
-0.00989249
-1.51908
1.52277
0.0130029
-0.016193
-1.27063
1.27382
0.0189485
-0.0218117
-1.06599
1.06885
0.0242665
-0.0267805
-0.897245
0.899759
0.0289112
-0.0311068
-0.758685
0.76088
0.0330353
-0.0350598
-0.645775
0.647799
0.0365619
-0.0367529
-0.550875
0.551066
0.034347
-0.0273543
-0.435379
0.428387
0.01767
-0.0074782
-0.239715
0.229523
0.00190281
-0.040864
0.0389612
-0.0381013
0.0367496
0.00135171
-0.0129471
0.0209463
-0.2994
0.291401
-0.0277141
0.030636
-0.452732
0.44981
-0.0308425
0.0297176
-0.549496
0.550621
-0.0277185
0.0257925
-0.643763
0.645689
-0.023581
0.0214392
-0.758431
0.760573
-0.01893
0.0164602
-0.898757
0.901227
-0.0135388
0.0106824
-1.06888
1.07174
-0.00735213
0.00413546
-1.27501
1.27823
-0.000403083
-0.00322694
-1.5256
1.52923
0.00679346
-0.0103357
-1.52638
1.52992
0.0132956
-0.0162799
-1.27693
1.27992
0.0187838
-0.0212994
-1.07157
1.07408
0.0234021
-0.025533
-0.902071
0.904202
0.0273618
-0.0292658
-0.762923
0.764827
0.0309402
-0.0326971
-0.649664
0.651421
0.0335348
-0.0329885
-0.55089
0.550344
0.0296588
-0.0223489
-0.421178
0.413868
0.0138387
-0.00577693
-0.220498
0.212436
0.00147646
-0.0372992
0.0358227
-0.0355687
0.0345273
0.00104142
-0.0101231
0.0168976
-0.284038
0.277263
-0.0234163
0.0268021
-0.446635
0.443249
-0.0275877
0.0268968
-0.551522
0.552213
-0.0251331
0.0233519
-0.647585
0.649366
-0.0212916
0.0192866
-0.762647
0.764653
-0.0169264
0.0146095
-0.903555
0.905872
-0.0118833
0.00920935
-1.07444
1.07711
-0.00606233
0.00298993
-1.28133
1.2844
0.000598665
-0.00408861
-1.53277
1.53626
0.00750003
-0.0108538
-1.53336
1.53672
0.0136096
-0.0163305
-1.28279
1.28551
0.0185713
-0.0207974
-1.07647
1.0787
0.0226594
-0.0245485
-0.906227
0.908117
0.0261637
-0.0278409
-0.766618
0.768295
0.0293098
-0.0307396
-0.653028
0.654458
0.0310719
-0.0298073
-0.549449
0.548185
0.0258605
-0.0186295
-0.406572
0.399341
0.0112142
-0.00464863
-0.205193
0.198627
0.00119298
-0.0345053
0.0333123
-0.0336122
0.0328001
0.000812052
-0.00803125
0.0137332
-0.271054
0.265352
-0.019778
0.0233721
-0.439748
0.436154
-0.0246444
0.0242051
-0.552811
0.553251
-0.0227175
0.0210493
-0.651145
0.652813
-0.0190891
0.0171775
-0.76661
0.768522
-0.0149225
0.0127045
-0.908074
0.910292
-0.0100906
0.00753419
-1.07965
1.0822
-0.00453758
0.00161072
-1.28735
1.29028
0.00180895
-0.00513141
-1.53963
1.54296
0.00835896
-0.0114926
-1.53995
1.54308
0.0140315
-0.0165086
-1.28812
1.29059
0.0185349
-0.0205344
-1.08084
1.08284
0.0221921
-0.0238674
-0.909923
0.911598
0.0252995
-0.0267874
-0.769884
0.771371
0.028066
-0.0291233
-0.655676
0.656733
0.029089
-0.0271614
-0.546591
0.544664
0.02282
-0.0158628
-0.392242
0.385285
0.00936546
-0.00386674
-0.192647
0.187148
0.000996505
-0.0322312
0.0312347
-0.0320857
0.0314506
0.000635101
-0.00642125
0.0112069
-0.260135
0.255349
-0.0166699
0.0202749
-0.432553
0.428948
-0.021881
0.0216738
-0.553612
0.553819
-0.0204259
0.0188234
-0.6545
0.656102
-0.0169238
0.0150656
-0.770404
0.772262
-0.0128749
0.0107228
-0.912402
0.914554
-0.00818887
0.00571427
-1.08464
1.08711
-0.00282209
1.77433e-05
-1.29309
1.29589
0.0032517
-0.00640289
-1.54615
1.54931
0.00943597
-0.0123506
-1.54609
1.549
0.0146896
-0.0169495
-1.29298
1.29524
0.0187773
-0.0205604
-1.08478
1.08656
0.0220259
-0.0235056
-0.913202
0.914681
0.0247758
-0.0260944
-0.772779
0.774098
0.027229
-0.0278785
-0.657566
0.658215
0.0274811
-0.0250034
-0.542475
0.539997
0.0204269
-0.0138147
-0.378511
0.371899
0.00804859
-0.00331744
-0.182073
0.177342
0.000859141
-0.0303188
0.0294597
-0.0308947
0.0304024
0.000492354
-0.00512897
0.00912554
-0.250983
0.246987
-0.0139617
0.0174289
-0.425419
0.421952
-0.0192289
0.0192189
-0.553973
0.553983
-0.0181741
0.0166099
-0.657756
0.65932
-0.014739
0.0129028
-0.774103
0.77594
-0.010739
0.00861861
-0.916603
0.918723
-0.00613073
0.00371067
-1.08947
1.09189
-0.000892195
-0.0018264
-1.29859
1.30131
0.00496034
-0.00795156
-1.55233
1.55532
0.0108005
-0.0135094
-1.55179
1.5545
0.0156601
-0.0177135
-1.29741
1.29946
0.0193531
-0.0209307
-1.0883
1.08987
0.0222141
-0.0235106
-0.916104
0.9174
0.0246303
-0.0257898
-0.775346
0.776505
0.0267381
-0.0270192
-0.658658
0.658939
0.0262368
-0.0232979
-0.537301
0.534362
0.0185884
-0.0123181
-0.365479
0.359208
0.00711571
-0.0029351
-0.172921
0.168741
0.000765043
-0.028659
0.027894
-0.0299772
0.0296052
0.00037201
-0.00404907
0.00735328
-0.24336
0.240055
-0.0115501
0.014769
-0.418623
0.415404
-0.0166381
0.0167916
-0.553963
0.553809
-0.0158407
0.0143593
-0.660922
0.662404
-0.0124942
0.0106494
-0.777769
0.779614
-0.00847451
0.00635032
-0.920746
0.92287
-0.00387175
0.00147425
-1.0942
1.0966
0.00129537
-0.00394949
-1.30393
1.30658
0.00698175
-0.00984155
-1.5582
1.56106
0.0125281
-0.0150422
-1.55708
1.5596
0.0170054
-0.0188482
-1.30142
1.30327
0.0202964
-0.021669
-1.09142
1.09279
0.0227763
-0.0239006
-0.918648
0.919772
0.0248773
-0.0258722
-0.777594
0.778589
0.0265724
-0.0265514
-0.659075
0.659054
0.0253676
-0.0220256
-0.531233
0.527891
0.0172338
-0.0112576
-0.353114
0.347138
0.00647329
-0.00267836
-0.164785
0.16099
0.000703831
-0.0271712
0.0264673
-0.029293
0.029028
0.000265005
-0.00310497
0.00578525
-0.237084
0.234404
-0.00934309
0.0122305
-0.412371
0.409484
-0.0140541
0.0142983
-0.553669
0.553424
-0.013397
0.0119659
-0.663948
0.665379
-0.0100806
0.00819771
-0.781459
0.783342
-0.00597962
0.00382288
-0.924896
0.927052
-0.00132055
-0.0010802
-1.09888
1.10129
0.00383788
-0.00645488
-1.30914
1.31175
0.00940785
-0.0121522
-1.56381
1.56656
0.0146872
-0.0170143
-1.56199
1.56432
0.0187976
-0.0204369
-1.30502
1.30666
0.0216975
-0.022861
-1.09414
1.09531
0.0237802
-0.0247225
-0.920853
0.921795
0.0255535
-0.0263777
-0.779501
0.780325
0.026804
-0.0265302
-0.658901
0.658627
0.0249075
-0.0211833
-0.524379
0.520655
0.0163168
-0.010558
-0.341309
0.33555
0.00606263
-0.00252122
-0.157355
0.153814
0.000668879
-0.0257936
0.0251247
-0.0288193
0.0286556
0.00016371
-0.00223257
0.00432785
-0.232036
0.229941
-0.00724217
0.00972916
-0.40682
0.404333
-0.0114025
0.0116631
-0.553243
0.552982
-0.010784
0.00937004
-0.666907
0.668321
-0.00744288
0.00549634
-0.785229
0.787175
-0.00320161
0.000978611
-0.929109
0.931332
0.00158639
-0.00403186
-1.10359
1.10604
0.00681241
-0.00942068
-1.31428
1.31689
0.0123222
-0.0149709
-1.5692
1.57184
0.0173655
-0.0195092
-1.56652
1.56866
0.0211099
-0.0225402
-1.3082
1.30963
0.0236073
-0.0245558
-1.09646
1.09741
0.025277
-0.0260206
-0.922695
0.923438
0.0266946
-0.0273694
-0.781058
0.781733
0.0274928
-0.0268655
-0.658127
0.6575
0.0248224
-0.0207337
-0.51679
0.512702
0.0157776
-0.0101524
-0.329906
0.324281
0.00583589
-0.00244245
-0.150381
0.146988
0.000654554
-0.0244768
0.0238222
-0.0285476
0.0284862
6.14603e-05
-0.00138232
0.00290755
-0.228148
0.226623
-0.00516407
0.00718579
-0.402104
0.400082
-0.00860348
0.00879763
-0.552838
0.552643
-0.00789519
0.00646389
-0.669866
0.671297
-0.00445715
0.00241657
-0.789127
0.791168
-1.10886e-05
-0.00231434
-0.933455
0.93578
0.00497787
-0.00749844
-1.10839
1.11091
0.0103358
-0.0129651
-1.31941
1.32204
0.0158434
-0.0184145
-1.57439
1.57696
0.0206785
-0.0226413
-1.57068
1.57264
0.0240551
-0.0252655
-1.31095
1.31217
0.0261233
-0.0268307
-1.09836
1.09907
0.0273338
-0.027862
-0.924151
0.92468
0.0283717
-0.0288516
-0.78225
0.78273
0.0286888
-0.0276537
-0.656618
0.655583
0.0251628
-0.0206865
-0.508487
0.50401
0.0155956
-0.0100075
-0.318735
0.313147
0.00576803
-0.00243123
-0.143662
0.140325
0.000658184
-0.0231817
0.0225235
-0.0284808
0.0285279
-4.71154e-05
-0.000508995
0.00145931
-0.225402
0.224451
-0.00303068
0.00452311
-0.398351
0.396859
-0.00558315
0.00562602
-0.552628
0.552585
-0.0046408
0.00313377
-0.672911
0.674418
-0.0010114
-0.001164
-0.793218
0.795393
0.00372696
-0.00618687
-0.938005
0.940465
0.00898927
-0.0116204
-1.11334
1.11597
0.0145522
-0.0172308
-1.32458
1.32726
0.020106
-0.0226071
-1.57943
1.58193
0.0247382
-0.0265083
-1.57446
1.57623
0.027719
-0.0286911
-1.31325
1.31423
0.0293277
-0.0297893
-1.0998
1.10026
0.030063
-0.0303578
-0.925187
0.925482
0.0306794
-0.0308968
-0.782937
0.783155
0.0304685
-0.028942
-0.654274
0.652747
0.0259584
-0.0210531
-0.499425
0.49452
0.0157625
-0.0101074
-0.3076
0.301945
0.00584686
-0.00248214
-0.137018
0.133654
0.000678324
-0.0218729
0.0211945
-0.0286299
0.0287927
-0.000162772
0.000414164
-6.96116e-05
-0.22382
0.223476
-0.000766561
0.00164866
-0.395687
0.394805
-0.00224685
0.00205468
-0.552788
0.55298
-0.000935283
-0.000703773
-0.676159
0.677798
0.002984
-0.00533405
-0.797581
0.799931
0.0081004
-0.0107452
-0.94283
0.945474
0.0137412
-0.0165297
-1.11852
1.12131
0.0195996
-0.0223601
-1.32986
1.33262
0.0252621
-0.0277126
-1.58432
1.58677
0.0297169
-0.0312859
-1.57785
1.57942
0.0322836
-0.0329944
-1.31506
1.31577
0.0333838
-0.033575
-1.10074
1.10093
0.033604
-0.0336456
-0.925751
0.925793
0.0337579
-0.0336477
-0.783003
0.782893
0.0328829
-0.0307682
-0.650978
0.648863
0.0272408
-0.0218437
-0.489511
0.484114
0.0162712
-0.0104376
-0.296287
0.290453
0.00606059
-0.00258918
-0.130284
0.126813
0.00071312
-0.0205181
0.019805
-0.0290348
0.0293371
-0.000302329
0.00140531
-0.00170979
-0.22349
0.223795
0.00171398
-0.0015509
-0.39424
0.394077
0.00154862
-0.00208503
-0.553521
0.554058
0.00342348
-0.0052463
-0.679733
0.681555
0.00774381
-0.0103209
-0.802291
0.804868
0.013349
-0.0162297
-0.948027
0.950908
0.0194696
-0.0224566
-1.12402
1.127
0.0257043
-0.0285754
-1.33531
1.33818
0.0315204
-0.0339176
-1.58911
1.59151
0.0357771
-0.037111
-1.58082
1.58215
0.0378681
-0.0382859
-1.31632
1.31674
0.0384065
-0.0383074
-1.10109
1.101
0.0380674
-0.0378293
-0.925782
0.925544
0.0377292
-0.0371866
-0.782313
0.78177
0.0359906
-0.0332158
-0.64657
0.643795
0.0290672
-0.023086
-0.478607
0.472626
0.0171288
-0.0109951
-0.284571
0.278438
0.00640485
-0.00274979
-0.123304
0.119649
0.000761752
-0.0190888
0.018327
-0.0297112
0.0301898
-0.000478566
0.00268686
-0.00373539
-0.224483
0.225531
0.00460818
-0.00523937
-0.394238
0.394869
0.00595419
-0.00694174
-0.555079
0.556066
0.00858527
-0.0106676
-0.683744
0.685826
0.0134669
-0.0163395
-0.807458
0.810331
0.0196955
-0.0228677
-0.953697
0.95687
0.0264092
-0.0296438
-1.12992
1.13315
0.0331133
-0.036121
-1.34097
1.34398
0.0391178
-0.0414501
-1.59378
1.59611
0.0431374
-0.0442055
-1.58329
1.58435
0.0446651
-0.0447605
-1.31695
1.31705
0.0445763
-0.0441478
-1.10081
1.10038
0.0436047
-0.0430543
-0.925204
0.924654
0.0426509
-0.0416613
-0.780718
0.779729
0.0399233
-0.0363807
-0.64089
0.637348
0.0315025
-0.024811
-0.466517
0.459825
0.0183452
-0.0117788
-0.272207
0.26564
0.00687562
-0.00296089
-0.115925
0.11201
0.000822973
-0.0175582
0.0167352
-0.0307384
0.0314346
-0.000696216
0.00417216
-0.00610874
-0.226999
0.228935
0.00804511
-0.00957514
-0.395891
0.397421
0.0111095
-0.0126695
-0.557703
0.559263
0.0147497
-0.0171758
-0.688354
0.69078
0.0203669
-0.0236097
-0.81322
0.816463
0.0273792
-0.0309219
-0.959963
0.963506
0.034845
-0.0383857
-1.13632
1.13986
0.042122
-0.0452886
-1.34691
1.35007
0.0483412
-0.0505916
-1.5983
1.60055
0.0520699
-0.0528219
-1.5852
1.58595
0.0529264
-0.0526469
-1.31688
1.3166
0.052107
-0.051299
-1.09978
1.09897
0.0504148
-0.0495045
-0.923941
0.923031
0.0486975
-0.0472127
-0.778199
0.776714
0.0447902
-0.0403443
-0.633709
0.629263
0.0346002
-0.027043
-0.452981
0.445424
0.0199243
-0.0127816
-0.258925
0.251782
0.00746388
-0.00321618
-0.107997
0.103749
0.000894218
-0.0159024
0.0150082
-0.0321964
0.0331796
-0.000983151
0.00604919
-0.00904087
-0.231295
0.234287
0.0122331
-0.0148217
-0.399465
0.402054
0.0173264
-0.0195893
-0.561669
0.563932
0.022248
-0.0251424
-0.693741
0.696636
0.0288525
-0.0325703
-0.819735
0.823453
0.0368554
-0.0408463
-0.966983
0.970974
0.0452173
-0.0491065
-1.14334
1.14723
0.0531329
-0.0564554
-1.35314
1.35646
0.0595301
-0.0616393
-1.60262
1.60473
0.0628334
-0.0631782
-1.58642
1.58677
0.0628742
-0.0621379
-1.31597
1.31524
0.0611921
-0.059948
-1.09791
1.09666
0.058674
-0.0573912
-0.921885
0.920602
0.0560667
-0.0539809
-0.774651
0.772565
0.0507441
-0.0452132
-0.624736
0.619205
0.0384218
-0.0298009
-0.437684
0.429063
0.0218619
-0.0139884
-0.244439
0.236566
0.00815435
-0.00350609
-0.0993776
0.0947294
0.000971988
-0.0141032
0.0131312
-0.0342149
0.0355881
-0.00137316
0.00849009
-0.0128385
-0.237692
0.24204
0.0175163
-0.0213405
-0.405332
0.409157
0.0249845
-0.0281059
-0.567317
0.570438
0.0315309
-0.0350619
-0.700188
0.703719
0.0394584
-0.0437771
-0.82721
0.831528
0.0486836
-0.0531969
-0.974905
0.979419
0.0580722
-0.0623329
-1.15105
1.15531
0.0666377
-0.0700685
-1.35965
1.36308
0.073074
-0.0749281
-1.60658
1.60844
0.0757146
-0.0755277
-1.58677
1.58658
0.0747236
-0.0734138
-1.31402
1.31271
0.0720092
-0.070275
-1.09505
1.09332
0.0685769
-0.0668522
-0.918975
0.91725
0.0649274
-0.0621274
-0.769868
0.767068
0.0578903
-0.0510394
-0.613594
0.606743
0.0429785
-0.0330632
-0.420231
0.410316
0.0241196
-0.0153581
-0.228446
0.219685
0.00891409
-0.0038124
-0.0899404
0.0848387
0.00105008
-0.0121506
0.0111005
-0.0369871
0.0389187
-0.00193164
0.0118989
-0.0179506
-0.246723
0.252775
0.0244301
-0.0297069
-0.413978
0.419255
0.0346987
-0.0388542
-0.575037
0.579193
0.0432391
-0.0475931
-0.708036
0.71239
0.0528621
-0.0579198
-0.835886
0.840944
0.0635685
-0.0686803
-0.983883
0.988995
0.0740958
-0.0787115
-1.15947
1.16409
0.0832237
-0.086656
-1.36631
1.36974
0.0894369
-0.0908681
-1.60995
1.61138
0.0910742
-0.0901872
-1.58596
1.58508
0.0887371
-0.0867422
-1.31083
1.30883
0.0847709
-0.0825019
-1.09107
1.0888
0.0803488
-0.0780222
-0.915046
0.912719
0.0755159
-0.0717692
-0.763521
0.759774
0.0663039
-0.0578496
-0.5998
0.591346
0.0482504
-0.03677
-0.400172
0.388692
0.0266212
-0.016819
-0.210649
0.200847
0.00968997
-0.00410759
-0.0795953
0.0740129
0.00111959
-0.0100487
0.00892906
-0.0408387
0.0436372
-0.0027985
0.0168273
-0.0251329
-0.259096
0.267402
0.033854
-0.0408847
-0.426071
0.433102
0.0475216
-0.0529402
-0.585293
0.590712
0.0585505
-0.0639738
-0.717673
0.723097
0.070332
-0.0762566
-0.846029
0.851954
0.0827076
-0.0884004
-0.99404
0.999733
0.0942629
-0.0990897
-1.16852
1.17335
0.103597
-0.106803
-1.37284
1.37605
0.109082
-0.109825
-1.61232
1.61307
0.109208
-0.107405
-1.58364
1.58183
0.105144
-0.102325
-1.30618
1.30336
0.0996716
-0.0967794
-1.08582
1.08293
0.0941172
-0.0911106
-0.90972
0.906714
0.0879353
-0.0829911
-0.755132
0.750188
0.0759925
-0.0655791
-0.582752
0.572338
0.0541252
-0.0407801
-0.376994
0.363649
0.029222
-0.0182488
-0.190782
0.179809
0.010396
-0.00434939
-0.0683159
0.0622693
0.0011674
-0.00782035
0.00665295
-0.046342
0.0506029
-0.00426088
0.0244802
-0.0358526
-0.275977
0.28735
0.0474768
-0.0568297
-0.442639
0.451992
0.0654774
-0.0723611
-0.598699
0.605583
0.0794939
-0.0863912
-0.729497
0.736395
0.0939022
-0.100608
-0.857843
0.864548
0.107684
-0.11373
-1.00525
1.01129
0.119719
-0.12442
-1.17782
1.18252
0.128517
-0.131102
-1.37872
1.3813
0.132436
-0.132091
-1.61311
1.61276
0.130303
-0.127295
-1.57932
1.57632
0.124031
-0.120224
-1.2998
1.29599
0.116797
-0.113208
-1.07913
1.07554
0.110009
-0.106216
-0.902793
0.899
0.102184
-0.0956788
-0.744149
0.737644
0.0867712
-0.0739827
-0.56167
0.548882
0.0603415
-0.0448445
-0.350139
0.334642
0.0316978
-0.0194736
-0.168668
0.156444
0.0109146
-0.00448174
-0.0561851
0.0497522
0.00117602
-0.00551531
0.00433929
-0.0545595
0.0618875
-0.00732793
0.0379288
-0.0537663
-0.299505
0.315342
0.0694445
-0.0819819
-0.465319
0.477857
0.0927888
-0.101022
-0.615703
0.623936
0.109656
-0.117792
-0.7439
0.752036
0.126175
-0.133252
-0.871032
0.878109
0.140388
-0.146204
-1.0169
1.02271
0.151663
-0.155615
-1.18656
1.19051
0.158637
-0.159991
-1.38304
1.38439
0.159794
-0.15789
-1.61144
1.60953
0.154558
-0.150047
-1.57245
1.56794
0.145547
-0.14056
-1.29134
1.28635
0.136223
-0.131857
-1.07083
1.06647
0.128006
-0.123387
-0.894028
0.889408
0.118091
-0.109562
-0.729767
0.721238
0.0982544
-0.0825732
-0.535585
0.519904
0.0664226
-0.0486037
-0.319071
0.301252
0.0338001
-0.020359
-0.144319
0.130878
0.0111739
-0.00447702
-0.043459
0.0367621
0.00113239
-0.00322022
0.00208782
-0.0687302
0.0728436
-0.00411345
0.0290849
-0.0428022
-0.333671
0.347388
0.0566751
-0.0681297
-0.495544
0.506999
0.0783282
-0.0878086
-0.635852
0.645332
0.0983216
-0.107868
-0.759772
0.769318
0.118425
-0.127796
-0.884326
0.893697
0.137723
-0.14648
-1.02758
1.03634
0.1555
-0.16308
-1.19335
1.20093
0.170376
-0.175907
-1.38455
1.39008
0.180364
-0.182617
-1.60637
1.60862
0.182621
-0.180927
-1.56234
1.56065
0.178198
-0.174479
-1.28043
1.27671
0.171109
-0.167185
-1.06068
1.05676
0.163785
-0.159121
-0.883004
0.878339
0.152018
-0.139674
-0.710897
0.698553
0.123041
-0.100837
-0.503397
0.481193
0.0790203
-0.0558097
-0.283322
0.260112
0.0375407
-0.0217985
-0.118066
0.102324
0.0115608
-0.00448673
-0.030638
0.0235639
0.00111771
-0.00105392
-6.37929e-05
-0.0799697
0.0781518
0.00181793
0.00748631
-0.0165205
-0.363932
0.372966
0.0270426
-0.035127
-0.523159
0.531244
0.0432733
-0.0512965
-0.657245
0.665268
0.0609838
-0.069934
-0.778543
0.787493
0.079402
-0.0880197
-0.902527
0.911145
0.0971066
-0.104774
-1.04479
1.05246
0.112835
-0.119225
-1.20828
1.21467
0.125278
-0.129517
-1.39524
1.39948
0.132242
-0.132922
-1.60993
1.61061
0.131339
-0.128019
-1.55804
1.55472
0.123672
-0.118236
-1.27227
1.26684
0.113201
-0.107633
-1.05099
1.04542
0.102487
-0.0962735
-0.868876
0.862662
0.0889759
-0.0782205
-0.682268
0.671512
0.0658028
-0.0508808
-0.457489
0.442567
0.0376312
-0.0250969
-0.237189
0.224654
0.0161759
-0.00907849
-0.0875121
0.0804147
0.00473062
-0.00182449
-0.0169488
0.0140426
0.000405388
0.0011363
-0.00154169
-0.0814288
0.078562
0.00286683
-0.00165897
-0.00359526
-0.384362
0.389616
0.0107672
-0.0166225
-0.543521
0.549376
0.0226803
-0.029679
-0.675342
0.682341
0.0380517
-0.0458219
-0.795586
0.803357
0.0542658
-0.0617802
-0.919026
0.926541
0.0694434
-0.0762521
-1.05993
1.06674
0.0831855
-0.0887405
-1.22059
1.22615
0.0935076
-0.0965507
-1.40298
1.40602
0.0982705
-0.0978046
-1.61048
1.61001
0.0950975
-0.0906606
-1.55067
1.54623
0.0854267
-0.079238
-1.26105
1.25486
0.0730994
-0.0664907
-1.03844
1.03183
0.0603314
-0.0532608
-0.853138
0.846068
0.0464126
-0.0375111
-0.657254
0.648352
0.0285856
-0.0192452
-0.425783
0.416443
0.0124992
-0.0073792
-0.211455
0.206335
0.00444431
-0.00254072
-0.0732283
0.0713248
0.00146313
-0.000681647
-0.0111065
0.0103251
0.00010237
0.00210341
-0.00220578
-0.0801999
0.0774926
0.00270727
-0.00525366
0.00271581
-0.397995
0.400533
0.00191845
-0.00635264
-0.558578
0.563012
0.0114741
-0.0173382
-0.690289
0.696153
0.0244955
-0.0311534
-0.810513
0.817171
0.0383696
-0.0448104
-0.933531
0.939972
0.0517516
-0.0575082
-1.07311
1.07886
0.0635413
-0.0678932
-1.23127
1.23562
0.0718605
-0.0742085
-1.4088
1.41115
0.075026
-0.0735591
-1.60902
1.60755
0.070291
-0.0653325
-1.54113
1.53617
0.0596523
-0.0526551
-1.24829
1.2413
0.0461138
-0.0390062
-1.02423
1.01712
0.0322506
-0.0251502
-0.83646
0.82936
0.0186205
-0.0115168
-0.636391
0.629287
0.00540094
-0.000602851
-0.405799
0.401001
-0.00164889
0.00238949
-0.199381
0.198641
-0.00217779
0.0013936
-0.0683426
0.0691268
-0.000742313
0.000246446
-0.00919276
0.00968863
-0.000137019
0.00258711
-0.00245009
-0.0787269
0.0763301
0.00239685
-0.00637178
0.00542684
-0.407096
0.408041
-0.00202022
-0.00120534
-0.570646
0.573871
0.00537084
-0.0106892
-0.702826
0.708145
0.0167052
-0.0225512
-0.823142
0.828988
0.0288009
-0.0343916
-0.945965
0.951556
0.040338
-0.045454
-1.08448
1.0896
0.0505346
-0.0544977
-1.23981
1.24378
0.0578058
-0.0596107
-1.4131
1.41491
0.0599035
-0.058025
-1.60586
1.60398
0.0544496
-0.0490636
-1.53049
1.5251
0.0432317
-0.0362338
-1.2342
1.2272
0.0295269
-0.0219979
-1.00926
1.00173
0.0151106
-0.00785059
-0.820043
0.812783
0.00182952
0.00378605
-0.619484
0.613868
-0.0077913
0.00990589
-0.3938
0.391685
-0.00982097
0.00833586
-0.19547
0.196955
-0.00641996
0.00418184
-0.0689875
0.0712257
-0.00239285
0.000934185
-0.00994461
0.0114033
-0.00031738
0.002564
-0.00224662
-0.0773616
0.0753098
0.00205179
-0.00624605
0.00580286
-0.41335
0.413794
-0.00377735
0.00118821
-0.57995
0.582539
0.00288603
-0.00743205
-0.713453
0.717999
0.0126061
-0.0176857
-0.834054
0.839133
0.0232517
-0.0282562
-0.956803
0.961808
0.0337041
-0.0381841
-1.09443
1.09891
0.042744
-0.0462848
-1.24744
1.25099
0.0491386
-0.0505975
-1.41643
1.41789
0.0505817
-0.0488943
-1.602
1.60031
0.0452205
-0.0399985
-1.51931
1.51409
0.0342042
-0.0272418
-1.22002
1.21305
0.0207866
-0.0131776
-0.99381
0.986201
0.00630765
0.000655917
-0.804097
0.797133
-0.00617756
0.0108265
-0.605526
0.600877
-0.0137995
0.0149656
-0.386616
0.38545
-0.0137651
0.0112891
-0.196042
0.198518
-0.00875603
0.00583313
-0.0726042
0.0755271
-0.00344013
0.00144957
-0.0125973
0.0145878
-0.000423883
0.00208227
-0.00165839
-0.0763308
0.0747342
0.00159654
-0.00536617
0.00524974
-0.418008
0.418125
-0.00362337
0.00167366
-0.588058
0.590007
0.00214621
-0.00625532
-0.722648
0.726757
0.0111665
-0.0155461
-0.84382
0.848199
0.020446
-0.0248935
-0.966785
0.971233
0.0300745
-0.03415
-1.10343
1.1075
0.0381964
-0.0415427
-1.25434
1.25768
0.0445447
-0.0458524
-1.41936
1.42067
0.0458954
-0.0441594
-1.59824
1.59651
0.0408785
-0.0355592
-1.50867
1.50335
0.0301072
-0.0235594
-1.20596
1.19941
0.0172752
-0.0102732
-0.978584
0.971582
0.00377573
0.0028991
-0.788998
0.782323
-0.00791243
0.0121862
-0.593278
0.589004
-0.014795
0.0156462
-0.381544
0.380693
-0.014593
0.0121618
-0.198494
0.200925
-0.00951744
0.00644038
-0.0775836
0.0806607
-0.0038754
0.0016936
-0.0161802
0.018362
-0.000480039
0.00134029
-0.000860246
-0.0758023
0.0745516
0.00125076
-0.00429374
0.00429867
-0.421721
0.421716
-0.00286547
0.00100705
-0.595115
0.596974
0.00267167
-0.00634476
-0.730906
0.734579
0.0105564
-0.0147856
-0.852521
0.85675
0.0193187
-0.0239081
-0.975489
0.980079
0.0283695
-0.0322668
-1.11167
1.11557
0.0364458
-0.0395573
-1.26091
1.26402
0.0421
-0.0438362
-1.42189
1.42363
0.0440747
-0.0426251
-1.59483
1.59338
0.0395058
-0.0347795
-1.49825
1.49352
0.0297103
-0.0236261
-1.19265
1.18657
0.0179029
-0.0114284
-0.964509
0.958034
0.0054085
0.000765294
-0.774997
0.768824
-0.00576121
0.00984057
-0.581928
0.577849
-0.0121057
0.013254
-0.377384
0.376236
-0.0127477
0.0107512
-0.200876
0.202873
-0.00853138
0.00585283
-0.0825536
0.0852321
-0.00357731
0.00158851
-0.0199378
0.0219266
-0.000439598
0.000481084
-4.14856e-05
-0.0758001
0.0747612
0.00103883
-0.00302651
0.00279358
-0.42506
0.425293
-0.00158836
-0.000276829
-0.601587
0.603452
0.0037372
-0.00728817
-0.738586
0.742137
0.0113335
-0.0151629
-0.860757
0.864587
0.0198139
-0.0236202
-0.984092
0.987898
0.028051
-0.0317711
-1.11961
1.12333
0.0358441
-0.0391633
-1.26711
1.27043
0.0420101
-0.0435528
-1.42513
1.42667
0.044156
-0.0431362
-1.59187
1.59085
0.0407123
-0.0364203
-1.48875
1.48446
0.0319465
-0.0264637
-1.18073
1.17525
0.0213019
-0.0152995
-0.951427
0.945425
0.0098305
-0.00393328
-0.761984
0.756086
-0.00100324
0.00517534
-0.571465
0.567293
-0.00761804
0.00884321
-0.372801
0.371576
-0.00900849
0.00787984
-0.202395
0.203524
-0.00642089
0.00449517
-0.086586
0.0885117
-0.00279765
0.00128928
-0.0231385
0.0246468
-0.000376728
-0.000302578
0.000679306
-0.0760791
0.07536
0.000719081
-0.00188504
0.00122814
-0.428501
0.429157
-0.000216081
-0.00193892
-0.607257
0.609412
0.00501032
-0.00841747
-0.74575
0.749157
0.012299
-0.0162583
-0.868269
0.872228
0.0202958
-0.0242612
-0.991905
0.99587
0.0286565
-0.0321763
-1.12747
1.13099
0.0363515
-0.0396427
-1.27356
1.27685
0.0425734
-0.0446703
-1.42863
1.43073
0.0458011
-0.0451334
-1.5899
1.58923
0.0430745
-0.0396617
-1.48045
1.47704
0.0358869
-0.0309134
-1.16978
1.16481
0.0260927
-0.0207092
-0.939389
0.934006
0.0152525
-0.00987013
-0.749607
0.744224
0.00516243
-0.000672106
-0.561532
0.557041
-0.00206395
0.00386911
-0.367589
0.365784
-0.00456345
0.00441214
-0.202593
0.202744
-0.00371392
0.00268288
-0.0890593
0.0900903
-0.00175237
0.000849835
-0.0253489
0.0262514
-0.000267148
-0.000891243
0.00115839
-0.076779
0.0762155
0.000563534
-0.000919725
0.000372027
-0.432171
0.432719
0.00134717
-0.00332265
-0.613166
0.615141
0.00654254
-0.00982413
-0.752409
0.755691
0.0135604
-0.0171217
-0.875846
0.879407
0.021283
-0.0249366
-0.999834
1.00349
0.0292872
-0.0332493
-1.13496
1.13892
0.0370835
-0.0407225
-1.28018
1.28382
0.0440985
-0.0463197
-1.43273
1.43495
0.0478762
-0.0480716
-1.58882
1.58902
0.0465668
-0.0438864
-1.47359
1.47091
0.0403921
-0.0359197
-1.15995
1.15548
0.0315481
-0.0264172
-0.928247
0.923117
0.0214768
-0.0163335
-0.738093
0.73295
0.0117363
-0.00702173
-0.551314
0.546599
0.00364877
-0.00125767
-0.361528
0.359137
-0.000130936
0.000819557
-0.201132
0.200443
-0.000989996
0.000871029
-0.0897791
0.089898
-0.000650924
0.000367618
-0.0263681
0.0266514
-0.000134827
-0.00124504
0.00137987
-0.0777492
0.0773717
0.000377582
0.000113995
-0.000926959
-0.435944
0.436757
0.00249856
-0.00479517
-0.618647
0.620944
0.00794206
-0.0110666
-0.758845
0.76197
0.0148911
-0.0183036
-0.882934
0.886347
0.0223111
-0.0260913
-1.00761
1.01139
0.0303536
-0.0342938
-1.14273
1.14667
0.038367
-0.0420521
-1.28738
1.29107
0.0456402
-0.0486366
-1.43747
1.44046
0.0506867
-0.0512407
-1.58919
1.58974
0.0504778
-0.0481339
-1.46816
1.46582
0.0451793
-0.0412406
-1.15098
1.14704
0.037003
-0.0322728
-0.917782
0.913052
0.0277151
-0.0226787
-0.727244
0.722208
0.0181646
-0.0131255
-0.541014
0.535974
0.00928034
-0.00605392
-0.35451
0.351284
0.00399873
-0.00246788
-0.197972
0.196441
0.00140151
-0.000642615
-0.0887577
0.0879988
0.000204085
2.73781e-05
-0.0262253
0.0259939
-5.19951e-05
-0.00133536
0.00138735