/*--------------------------------*- C++ -*----------------------------------*\
  =========                 |
  \\      /  F ield         | OpenFOAM: The Open Source CFD Toolbox
   \\    /   O peration     | Website:  https://openfoam.org
    \\  /    A nd           | Version:  10
     \\/     M anipulation  |
\*---------------------------------------------------------------------------*/
FoamFile
{
    format      ascii;
    class       volVectorField;
    location    "54";
    object      U;
}
// * * * * * * * * * * * * * * * * * * * * * * * * * * * * * * * * * * * * * //

dimensions      [0 1 -1 0 0 0 0];

internalField   nonuniform List<vector> 
8800
(
(0.98014 -0.0915213 0)
(1.00234 -0.0587311 0)
(0.999575 -0.0321316 0)
(0.999968 -0.016527 0)
(1.00006 -0.00884785 0)
(1.00007 -0.00510229 0)
(1.00005 -0.00299779 0)
(1.00002 -0.0016861 0)
(0.999997 -0.000784551 0)
(1.00006 -8.64128e-05 0)
(0.999987 0.000621339 0)
(0.999995 0.0013748 0)
(1.00001 0.00240005 0)
(1.00003 0.00400375 0)
(1.00004 0.00674986 0)
(0.999994 0.0120513 0)
(0.999789 0.0230954 0)
(0.999028 0.0431575 0)
(1.00723 0.0790262 0)
(0.775024 0.0478395 0)
(0.358985 -0.0147487 0)
(1.0465 -0.0724851 0)
(1.08846 -0.0660237 0)
(1.04942 -0.0509202 0)
(1.02552 -0.0377029 0)
(1.01272 -0.0258977 0)
(1.00656 -0.0167011 0)
(1.00363 -0.0102097 0)
(1.00218 -0.00557812 0)
(1.00151 -0.00198423 0)
(1.00138 0.00122867 0)
(1.00173 0.00453713 0)
(1.0027 0.00842647 0)
(1.00474 0.0137401 0)
(1.00897 0.0214163 0)
(1.01795 0.0319069 0)
(1.03578 0.0446784 0)
(1.0674 0.0581189 0)
(1.09469 0.0699592 0)
(0.845621 0.0555081 0)
(0.217791 -0.00138086 0)
(1.07567 -0.0506515 0)
(1.0994 -0.0489349 0)
(1.06437 -0.0400205 0)
(1.03988 -0.0325624 0)
(1.02379 -0.0253474 0)
(1.01402 -0.018125 0)
(1.00851 -0.0115011 0)
(1.00565 -0.0057431 0)
(1.00448 -0.000450768 0)
(1.00479 0.00466081 0)
(1.00663 0.00994674 0)
(1.01056 0.0159158 0)
(1.01788 0.0226714 0)
(1.03049 0.0297716 0)
(1.05047 0.0368564 0)
(1.08002 0.044629 0)
(1.10563 0.0519504 0)
(0.943243 0.0410162 0)
(0.217178 0.00140579 0)
(0.176649 -0.000628599 0)
(1.0194 -0.0354602 0)
(1.10571 -0.0414059 0)
(1.07797 -0.0363914 0)
(1.05244 -0.0303466 0)
(1.03522 -0.0244676 0)
(1.02337 -0.0186678 0)
(1.01556 -0.0126661 0)
(1.01095 -0.006568 0)
(1.00891 -0.000328323 0)
(1.00943 0.00582958 0)
(1.0125 0.011743 0)
(1.01846 0.0175104 0)
(1.02805 0.0230812 0)
(1.04225 0.0286238 0)
(1.06306 0.0344011 0)
(1.09383 0.0402827 0)
(1.09439 0.0418014 0)
(0.830141 0.0227859 0)
(0.175601 0.000648587 0)
(0.154744 -0.000462366 0)
(0.958195 -0.0256865 0)
(1.10441 -0.0351097 0)
(1.08808 -0.0326616 0)
(1.06125 -0.0281553 0)
(1.04321 -0.0231917 0)
(1.03084 -0.0178851 0)
(1.02224 -0.0123384 0)
(1.01669 -0.00642464 0)
(1.01403 3.1808e-05 0)
(1.01466 0.00649269 0)
(1.01844 0.012362 0)
(1.02521 0.0176749 0)
(1.03535 0.022678 0)
(1.05008 0.0274929 0)
(1.07201 0.0319268 0)
(1.10096 0.0357998 0)
(1.06962 0.0339995 0)
(0.74244 0.0144636 0)
(0.153175 0.000484795 0)
(0.140064 -0.00033423 0)
(0.901197 -0.0193218 0)
(1.09682 -0.0302154 0)
(1.09622 -0.0293375 0)
(1.06896 -0.0255562 0)
(1.05014 -0.0214717 0)
(1.03718 -0.0167698 0)
(1.0282 -0.0115163 0)
(1.02225 -0.00578963 0)
(1.01926 0.000568079 0)
(1.01987 0.00694113 0)
(1.02385 0.0125881 0)
(1.03087 0.0175657 0)
(1.04137 0.022029 0)
(1.05673 0.0259621 0)
(1.07952 0.0294708 0)
(1.10325 0.0321828 0)
(1.03781 0.0281664 0)
(0.675583 0.0103191 0)
(0.137854 0.000360943 0)
(0.12933 -0.000252823 0)
(0.851333 -0.0149259 0)
(1.08448 -0.0261176 0)
(1.1019 -0.0264648 0)
(1.07579 -0.0231485 0)
(1.05646 -0.0194985 0)
(1.04308 -0.0153014 0)
(1.03372 -0.010436 0)
(1.0275 -0.00493387 0)
(1.02428 0.00123765 0)
(1.02478 0.00739495 0)
(1.02877 0.0127582 0)
(1.03594 0.0173123 0)
(1.04673 0.021173 0)
(1.06246 0.0245069 0)
(1.08569 0.0275363 0)
(1.10246 0.0293504 0)
(1.00309 0.02363 0)
(0.623493 0.00791853 0)
(0.126338 0.00028531 0)
(0.121148 -0.000194102 0)
(0.808839 -0.0117426 0)
(1.06916 -0.0225278 0)
(1.10542 -0.0238431 0)
(1.08204 -0.0209828 0)
(1.06225 -0.017562 0)
(1.0486 -0.0136508 0)
(1.03898 -0.0091119 0)
(1.03249 -0.003888 0)
(1.02905 0.00204598 0)
(1.02938 0.00792973 0)
(1.03333 0.0129397 0)
(1.04056 0.0170373 0)
(1.05145 0.0204255 0)
(1.06742 0.0233622 0)
(1.09104 0.0260754 0)
(1.0988 0.0269837 0)
(0.967968 0.0200602 0)
(0.581682 0.00635255 0)
(0.117204 0.000233511 0)
(0.114802 -0.000149571 0)
(0.772995 -0.00936102 0)
(1.05228 -0.0193691 0)
(1.10776 -0.0214254 0)
(1.0879 -0.0189516 0)
(1.0677 -0.0156963 0)
(1.05378 -0.0119584 0)
(1.04399 -0.00762585 0)
(1.03727 -0.00264743 0)
(1.03357 0.00302046 0)
(1.0337 0.00859184 0)
(1.03752 0.0132216 0)
(1.04469 0.0169174 0)
(1.0556 0.0199311 0)
(1.07182 0.0225378 0)
(1.09513 0.0249057 0)
(1.09234 0.0250169 0)
(0.933788 0.0172936 0)
(0.547147 0.00527756 0)
(0.109702 0.000197478 0)
(0.109844 -0.000114398 0)
(0.742875 -0.00751636 0)
(1.03492 -0.0165683 0)
(1.10912 -0.0191534 0)
(1.09346 -0.0169995 0)
(1.07296 -0.0138481 0)
(1.05876 -0.0102134 0)
(1.04877 -0.00601401 0)
(1.04184 -0.00121583 0)
(1.03787 0.00419472 0)
(1.03773 0.00943879 0)
(1.04135 0.0137023 0)
(1.04838 0.0170337 0)
(1.05929 0.0197036 0)
(1.07572 0.0220223 0)
(1.09794 0.0240244 0)
(1.08346 0.0233864 0)
(0.901155 0.0151771 0)
(0.517829 0.00452346 0)
(0.103339 0.000172469 0)
(0.105982 -8.54455e-05 0)
(0.717659 -0.00603275 0)
(1.0179 -0.0140565 0)
(1.10964 -0.0169603 0)
(1.0989 -0.0150952 0)
(1.07812 -0.0119674 0)
(1.06362 -0.00837876 0)
(1.05341 -0.0042556 0)
(1.04624 0.000418364 0)
(1.04196 0.00560511 0)
(1.04148 0.0105349 0)
(1.04481 0.0144567 0)
(1.05166 0.0174499 0)
(1.06256 0.0197862 0)
(1.07919 0.0218363 0)
(1.09941 0.0234463 0)
(1.07256 0.022088 0)
(0.870213 0.0135976 0)
(0.492273 0.00399894 0)
(0.0977697 0.000156023 0)
(0.103023 -6.04685e-05 0)
(0.696701 -0.00479143 0)
(1.00184 -0.0117652 0)
(1.10945 -0.0148081 0)
(1.10416 -0.0131605 0)
(1.08326 -0.0100169 0)
(1.06844 -0.00641544 0)
(1.05797 -0.00230834 0)
(1.0505 0.00228877 0)
(1.04585 0.00730153 0)
(1.04495 0.0119514 0)
(1.04793 0.0155378 0)
(1.05457 0.018187 0)
(1.06543 0.0201968 0)
(1.08221 0.0219918 0)
(1.09991 0.0231919 0)
(1.05993 0.0211216 0)
(0.840828 0.0124612 0)
(0.469393 0.00364616 0)
(0.0927345 0.000146241 0)
(0.100845 -3.75196e-05 0)
(0.679527 -0.00370403 0)
(0.987189 -0.00962485 0)
(1.10876 -0.0126095 0)
(1.10921 -0.0110917 0)
(1.08846 -0.00790532 0)
(1.07328 -0.00423697 0)
(1.0625 -9.13474e-05 0)
(1.05468 0.00447415 0)
(1.04956 0.00935434 0)
(1.04816 0.0137415 0)
(1.05071 0.0170032 0)
(1.0571 0.0193144 0)
(1.0679 0.0209795 0)
(1.08475 0.0225007 0)
(1.09942 0.0233176 0)
(1.04576 0.0205064 0)
(0.812702 0.0116978 0)
(0.448349 0.00342747 0)
(0.0880329 0.000141804 0)
(0.0993849 -1.49439e-05 0)
(0.665832 -0.00270068 0)
(0.974314 -0.00756081 0)
(1.10788 -0.010311 0)
(1.11419 -0.00884965 0)
(1.09379 -0.0055936 0)
(1.07822 -0.00179979 0)
(1.06707 0.00244922 0)
(1.05881 0.00704624 0)
(1.05312 0.0118404 0)
(1.0511 0.0159863 0)
(1.05315 0.0189181 0)
(1.05923 0.0208798 0)
(1.06995 0.0221894 0)
(1.08684 0.023442 0)
(1.09774 0.023809 0)
(1.03014 0.02022 0)
(0.785444 0.0112494 0)
(0.428461 0.00331593 0)
(0.0835044 0.00014161 0)
(0.0986242 9.12828e-06 0)
(0.655459 -0.0017265 0)
(0.963528 -0.00549932 0)
(1.10712 -0.00783806 0)
(1.11921 -0.00634236 0)
(1.09933 -0.00296913 0)
(1.08334 0.00101336 0)
(1.07175 0.00541996 0)
(1.06294 0.0101083 0)
(1.05656 0.0148608 0)
(1.0538 0.0187818 0)
(1.05525 0.0213778 0)
(1.06095 0.0229609 0)
(1.07156 0.0238737 0)
(1.0884 0.0248341 0)
(1.09481 0.0247079 0)
(1.01308 0.0202911 0)
(0.758634 0.0110835 0)
(0.409175 0.00329645 0)
(0.0790197 0.000145167 0)
(0.0985832 3.06301e-05 0)
(0.648381 -0.000735865 0)
(0.955135 -0.00336982 0)
(1.10684 -0.00512531 0)
(1.12443 -0.00348461 0)
(1.10517 7.28872e-05 0)
(1.08872 0.00430911 0)
(1.07659 0.00894272 0)
(1.06711 0.0137851 0)
(1.05989 0.0185279 0)
(1.05624 0.0222191 0)
(1.05696 0.0244518 0)
(1.06222 0.0256354 0)
(1.07269 0.0261328 0)
(1.08923 0.0267297 0)
(1.0904 0.0260593 0)
(0.994481 0.0207461 0)
(0.731793 0.0111844 0)
(0.389987 0.00336148 0)
(0.0744588 0.000152158 0)
(0.0992975 6.93292e-05 0)
(0.644681 0.000286373 0)
(0.949452 -0.00109309 0)
(1.10738 -0.00208588 0)
(1.13005 -0.000196353 0)
(1.11142 0.00360504 0)
(1.09445 0.00817818 0)
(1.08168 0.0131287 0)
(1.0714 0.0181958 0)
(1.06314 0.0229772 0)
(1.05841 0.0264522 0)
(1.05828 0.028297 0)
(1.06299 0.0290361 0)
(1.07329 0.0290955 0)
(1.08918 0.0292634 0)
(1.08439 0.0279032 0)
(0.974127 0.0216019 0)
(0.704401 0.0115394 0)
(0.370425 0.00350307 0)
(0.0697137 0.000162081 0)
(0.100973 9.6347e-05 0)
(0.644737 0.00144653 0)
(0.946826 0.00141084 0)
(1.10915 0.00139063 0)
(1.13625 0.00364554 0)
(1.1182 0.00782083 0)
(1.10065 0.0128299 0)
(1.0871 0.018178 0)
(1.07581 0.0235345 0)
(1.0663 0.0283815 0)
(1.06027 0.0316174 0)
(1.05911 0.0330154 0)
(1.06319 0.0332697 0)
(1.07328 0.0328501 0)
(1.08804 0.0325261 0)
(1.07652 0.0303094 0)
(0.951723 0.0228976 0)
(0.675908 0.0121481 0)
(0.350046 0.00371826 0)
(0.0646874 0.000174699 0)
(0.103668 0.000143446 0)
(0.648905 0.00286978 0)
(0.947759 0.004292 0)
(1.11268 0.00541384 0)
(1.14327 0.00820686 0)
(1.12567 0.0129088 0)
(1.10743 0.018456 0)
(1.09293 0.0242976 0)
(1.08041 0.0300162 0)
(1.06937 0.0349432 0)
(1.06178 0.0378921 0)
(1.05942 0.0387689 0)
(1.06273 0.0384788 0)
(1.07256 0.0375125 0)
(1.08562 0.0366313 0)
(1.06648 0.0333871 0)
(0.926848 0.0246737 0)
(0.64571 0.013013 0)
(0.328414 0.00400365 0)
(0.0592893 0.000189561 0)
(0.107662 0.000204662 0)
(0.657769 0.00454626 0)
(0.952702 0.00770051 0)
(1.11845 0.0101563 0)
(1.1514 0.0136717 0)
(1.13403 0.0190466 0)
(1.11495 0.0252718 0)
(1.09928 0.0317383 0)
(1.08524 0.0378931 0)
(1.07235 0.042909 0)
(1.06291 0.0455022 0)
(1.05916 0.0457746 0)
(1.06151 0.0448446 0)
(1.07104 0.0432428 0)
(1.08189 0.0417425 0)
(1.05388 0.0372248 0)
(0.898974 0.0269644 0)
(0.613159 0.0141293 0)
(0.3051 0.00435185 0)
(0.0534412 0.000205681 0)
(0.113286 0.00028809 0)
(0.672026 0.00663482 0)
(0.96233 0.0118402 0)
(1.127 0.015874 0)
(1.16092 0.0203303 0)
(1.14352 0.0266063 0)
(1.12341 0.0336721 0)
(1.10625 0.0408723 0)
(1.0903 0.0475034 0)
(1.07514 0.0525553 0)
(1.06353 0.0546655 0)
(1.05816 0.054201 0)
(1.05947 0.052538 0)
(1.0686 0.0502268 0)
(1.07668 0.0479725 0)
(1.03822 0.0419314 0)
(0.867448 0.029802 0)
(0.577563 0.0154862 0)
(0.279705 0.00475117 0)
(0.0470866 0.000221929 0)
(0.12104 0.00040554 0)
(0.692605 0.00936043 0)
(0.977513 0.0170119 0)
(1.13904 0.022901 0)
(1.17237 0.0285885 0)
(1.15444 0.03606 0)
(1.13294 0.0441386 0)
(1.11386 0.0521676 0)
(1.09555 0.0592579 0)
(1.07766 0.0641994 0)
(1.06351 0.0656183 0)
(1.05624 0.0642147 0)
(1.05641 0.0617114 0)
(1.06511 0.0586016 0)
(1.06968 0.0554405 0)
(1.01885 0.04758 0)
(0.831489 0.0331844 0)
(0.53821 0.0170467 0)
(0.251889 0.00517865 0)
(0.0402018 0.000236432 0)
(0.131657 0.000576179 0)
(0.720834 0.0131027 0)
(0.999399 0.0236919 0)
(1.15532 0.0317804 0)
(1.18634 0.0389945 0)
(1.16713 0.0479959 0)
(1.14372 0.0572819 0)
(1.12215 0.0662055 0)
(1.10085 0.0736461 0)
(1.07971 0.0782248 0)
(1.06267 0.0786573 0)
(1.0533 0.0760814 0)
(1.0522 0.0725578 0)
(1.06033 0.0684739 0)
(1.06038 0.064211 0)
(0.994975 0.0542154 0)
(0.790231 0.0370794 0)
(0.494431 0.0187411 0)
(0.221445 0.00559841 0)
(0.0328186 0.000246687 0)
(0.146411 0.000851836 0)
(0.758738 0.0184639 0)
(1.02962 0.0326649 0)
(1.17677 0.043458 0)
(1.20351 0.0526297 0)
(1.1819 0.0635046 0)
(1.15581 0.0741072 0)
(1.13095 0.0837857 0)
(1.10598 0.0912352 0)
(1.08105 0.0950009 0)
(1.06076 0.0940241 0)
(1.04915 0.0899935 0)
(1.04673 0.085224 0)
(1.05386 0.0800115 0)
(1.04811 0.0744847 0)
(0.96561 0.0618115 0)
(0.742772 0.0413746 0)
(0.445721 0.0204467 0)
(0.1884 0.00595425 0)
(0.0250463 0.000249257 0)
(0.167468 0.00132583 0)
(0.80954 0.0266186 0)
(1.07075 0.0454861 0)
(1.20451 0.0597613 0)
(1.22459 0.0716542 0)
(1.19886 0.0842231 0)
(1.16895 0.0959246 0)
(1.13981 0.105841 0)
(1.11041 0.112634 0)
(1.08115 0.114863 0)
(1.0574 0.111874 0)
(1.04351 0.105992 0)
(1.0398 0.0997861 0)
(1.04554 0.0935725 0)
(1.03208 0.0862191 0)
(0.929491 0.0701738 0)
(0.688312 0.0458493 0)
(0.392004 0.0219834 0)
(0.153227 0.00617109 0)
(0.0171164 0.000239432 0)
(0.198203 0.00237826 0)
(0.878907 0.040264 0)
(1.12636 0.0659746 0)
(1.23901 0.0842238 0)
(1.24932 0.0987183 0)
(1.21738 0.112413 0)
(1.18231 0.124284 0)
(1.14796 0.133348 0)
(1.11351 0.138391 0)
(1.07963 0.138098 0)
(1.05234 0.132352 0)
(1.03618 0.124176 0)
(1.03124 0.116284 0)
(1.03515 0.108951 0)
(1.01124 0.0992278 0)
(0.885152 0.0789276 0)
(0.626496 0.0501337 0)
(0.334316 0.0231874 0)
(0.117369 0.00620896 0)
(0.0095261 0.000211757 0)
(0.240117 0.00857811 4.62552e-20)
(0.970918 0.0674785 4.03826e-20)
(1.19427 0.100277 -1.41097e-20)
(1.27715 0.12046 0)
(1.27493 0.137362 -3.5979e-34)
(1.23542 0.150379 5.25929e-21)
(1.19442 0.160705 -9.4706e-21)
(1.1543 0.167538 0)
(1.1144 0.169771 1.94252e-34)
(1.07556 0.166177 -1.16923e-20)
(1.04446 0.157208 0)
(1.02585 0.146527 -1.38628e-20)
(1.01959 0.136996 -4.08764e-20)
(1.02134 0.128925 -1.93121e-20)
(0.982604 0.116433 -5.80825e-21)
(0.827509 0.0902319 -3.45098e-21)
(0.551701 0.0550973 0)
(0.270601 0.0245037 2.41463e-21)
(0.0811795 0.00648462 2.85107e-21)
(0.00247033 0.000239395 5.13514e-20)
(0.269538 0.0239493 3.37534e-20)
(1.04685 0.109975 5.27792e-22)
(1.25022 0.149166 3.76144e-21)
(1.31112 0.169511 0)
(1.29732 0.186272 -1.82825e-20)
(1.25077 0.19712 -2.07698e-20)
(1.20384 0.205129 -9.56479e-21)
(1.15781 0.209449 -3.4044e-20)
(1.11217 0.208839 0)
(1.06782 0.201987 4.98483e-20)
(1.03219 0.189861 4.94094e-20)
(1.01057 0.176694 1.46824e-20)
(1.00216 0.165162 5.34906e-20)
(0.997306 0.154676 7.51448e-20)
(0.938721 0.138064 0)
(0.75117 0.10395 1.05896e-19)
(0.464596 0.0611102 1.5193e-19)
(0.203909 0.0258186 1.68757e-19)
(0.0459705 0.00590746 -1.92945e-19)
(-0.00434202 -0.000327967 -3.629e-21)
(0.27066 0.0396644 0)
(1.09481 0.165085 5.9256e-21)
(1.28775 0.209312 0)
(1.33744 0.229158 -2.37388e-20)
(1.31477 0.242898 0)
(1.26231 0.249921 -4.08336e-20)
(1.20982 0.254214 1.95586e-20)
(1.15819 0.254961 -6.85739e-20)
(1.10706 0.250717 -1.56988e-21)
(1.05741 0.240094 2.58305e-20)
(1.01742 0.224532 1.08818e-19)
(0.99279 0.20875 -2.65842e-22)
(0.981837 0.195203 -3.89143e-20)
(0.970976 0.182397 -7.09429e-20)
(0.899064 0.160883 8.39656e-20)
(0.698075 0.118272 -1.48697e-19)
(0.416553 0.0675979 -1.96594e-20)
(0.173592 0.0276935 0)
(0.0316036 0.00532457 -4.87112e-24)
(-0.0071222 -0.00104673 0)
(0.264463 0.0532933 7.62821e-20)
(1.1207 0.223528 -3.74294e-20)
(1.31084 0.273958 -2.90369e-20)
(1.35479 0.293971 1.11918e-20)
(1.32591 0.303859 -1.8863e-20)
(1.26897 0.306412 8.5678e-20)
(1.21187 0.306348 4.08762e-20)
(1.1554 0.302929 0)
(1.09933 0.294554 -1.29625e-19)
(1.04479 0.279746 0)
(1.00066 0.260433 -5.72064e-20)
(0.973127 0.241867 -7.06078e-20)
(0.959793 0.226303 -4.24573e-20)
(0.94422 0.211055 -5.1601e-20)
(0.865626 0.1848 0)
(0.663707 0.134961 0)
(0.393469 0.0773099 -1.2808e-19)
(0.16382 0.0316421 2.53504e-20)
(0.0275652 0.00526925 -1.48299e-20)
(-0.00842813 -0.0017122 -1.73521e-20)
(0.25711 0.0653716 -2.93739e-20)
(1.13216 0.281861 0)
(1.3235 0.339574 5.87496e-20)
(1.3641 0.360216 3.14109e-20)
(1.33082 0.366308 4.37987e-20)
(1.27061 0.364384 0)
(1.2099 0.359889 4.00082e-20)
(1.14942 0.352146 7.60479e-20)
(1.08908 0.33945 6.64515e-20)
(1.03013 0.320289 1.22055e-19)
(0.982156 0.297174 0)
(0.951835 0.275835 -1.52537e-19)
(0.936122 0.258125 -9.19074e-20)
(0.916924 0.240309 -5.43433e-20)
(0.836623 0.209811 3.33394e-19)
(0.641108 0.153869 3.96709e-20)
(0.385073 0.0901348 1.86212e-19)
(0.166728 0.0380056 -8.82352e-19)
(0.0311913 0.00674167 5.22309e-19)
(-0.00796514 -0.00203272 -6.2949e-19)
(0.250092 0.0763053 -1.26109e-20)
(1.13441 0.338256 5.29658e-21)
(1.32858 0.404253 -6.17573e-21)
(1.36696 0.426 -3.12856e-20)
(1.33047 0.428518 -3.66937e-20)
(1.26782 0.422315 1.7963e-21)
(1.20426 0.413566 -4.33969e-20)
(1.14045 0.401585 7.87395e-20)
(1.07644 0.384618 -1.4319e-19)
(1.01358 0.361154 0)
(0.962113 0.334283 -6.91177e-20)
(0.929095 0.310109 -1.62017e-21)
(0.910969 0.290197 -1.00695e-19)
(0.889034 0.270047 0)
(0.80992 0.235755 -7.24185e-20)
(0.624192 0.174859 -1.71965e-19)
(0.384016 0.105277 4.58719e-19)
(0.175051 0.0467443 -4.51639e-19)
(0.0394908 0.0100645 6.41934e-19)
(-0.00598596 -0.00183436 -6.67013e-19)
(0.244238 0.0864408 -4.10379e-22)
(1.13098 0.392062 -1.29771e-21)
(1.32821 0.467002 -1.60215e-20)
(1.36478 0.49012 1.22457e-20)
(1.32591 0.489458 -1.84452e-20)
(1.26143 0.479276 0)
(1.19555 0.466531 -4.03154e-20)
(1.12895 0.450513 -8.24932e-20)
(1.06177 0.429451 -7.44572e-20)
(0.995456 0.401808 0)
(0.940784 0.37113 -7.18142e-20)
(0.905221 0.344026 -8.90146e-20)
(0.884877 0.322068 1.09379e-19)
(0.860865 0.299915 -6.64648e-20)
(0.783606 0.26227 -3.1703e-19)
(0.609032 0.197126 1.8852e-19)
(0.384624 0.121666 5.62112e-20)
(0.18483 0.0571062 0)
(0.0492416 0.0148487 -6.22277e-19)
(-0.0033434 -0.00122275 -2.28348e-20)
(0.23964 0.0960891 1.39946e-21)
(1.12416 0.443085 -1.36867e-21)
(1.32388 0.527343 7.2629e-21)
(1.35879 0.551868 4.43434e-20)
(1.31808 0.548462 -6.74672e-20)
(1.2522 0.534673 8.09748e-20)
(1.18445 0.518226 8.69195e-20)
(1.11548 0.498438 -1.31872e-19)
(1.04552 0.47352 4.60513e-20)
(0.976062 0.441837 -3.00784e-19)
(0.918414 0.407391 -8.12921e-20)
(0.880557 0.377547 0)
(0.858329 0.35376 1.18749e-19)
(0.832664 0.329673 1.42451e-19)
(0.757084 0.2889 1.70739e-19)
(0.593379 0.219984 -2.05184e-19)
(0.383247 0.138974 -6.08012e-20)
(0.192707 0.0687309 7.13906e-20)
(0.058264 0.0205781 0)
(-0.000578019 -0.00028425 -4.96549e-20)
(0.236199 0.105409 -3.75827e-20)
(1.11552 0.491424 1.73322e-20)
(1.31689 0.585335 -6.10626e-21)
(1.35001 0.610899 2.63745e-20)
(1.30777 0.605127 -2.99841e-20)
(1.24083 0.588093 -4.06398e-21)
(1.17153 0.568284 -9.50786e-20)
(1.10054 0.545043 -4.77433e-20)
(1.02809 0.516532 -1.29513e-19)
(0.95573 0.481004 2.96251e-22)
(0.895329 0.44302 -2.5465e-19)
(0.85542 0.410708 2.15063e-19)
(0.831474 0.385094 -1.30599e-19)
(0.804193 0.358784 1.57201e-19)
(0.730235 0.314845 0)
(0.576168 0.242167 -1.11538e-19)
(0.378707 0.156103 -5.30245e-23)
(0.197172 0.0802731 -3.11764e-19)
(0.0649687 0.0263391 -4.57791e-20)
(0.001747 0.000698118 0)
(0.233774 0.114536 0)
(1.106 0.537295 2.20095e-20)
(1.30799 0.640714 -1.61796e-21)
(1.33921 0.667091 -2.34766e-20)
(1.29567 0.659233 -3.86376e-20)
(1.22788 0.639298 0)
(1.15731 0.616469 -4.2989e-20)
(1.08457 0.59011 -1.07759e-21)
(1.00987 0.558306 2.77634e-19)
(0.934797 0.519191 -4.13147e-20)
(0.871838 0.477943 -1.83915e-19)
(0.830022 0.443165 1.11815e-19)
(0.804411 0.415391 -2.19638e-21)
(0.775706 0.386617 1.67133e-19)
(0.703025 0.339484 1.03302e-19)
(0.557055 0.262498 -2.4102e-19)
(0.370755 0.171895 2.85446e-19)
(0.197302 0.0906817 8.44735e-20)
(0.0685116 0.0313529 3.48547e-19)
(0.00335866 0.00155953 -9.30903e-19)
(0.232318 0.123599 -1.64301e-20)
(1.09623 0.580885 1.97579e-20)
(1.29794 0.693187 -1.13392e-20)
(1.327 0.720409 1.69816e-20)
(1.28231 0.710664 0)
(1.21386 0.68815 -3.67013e-20)
(1.14223 0.662647 1.44692e-19)
(1.06795 0.63351 1.04599e-19)
(0.991173 0.598721 0)
(0.913537 0.556319 -5.95187e-19)
(0.848138 0.511945 4.97446e-19)
(0.804463 0.474427 0)
(0.777264 0.444163 1.52607e-19)
(0.747302 0.412968 -2.20793e-21)
(0.67529 0.362087 -3.30057e-19)
(0.535933 0.280552 1.29224e-19)
(0.359611 0.185631 0)
(0.193528 0.0991096 4.55732e-19)
(0.068722 0.0349946 0)
(0.0041699 0.00214025 -4.40457e-19)
(0.231642 0.132679 2.08979e-20)
(1.08669 0.622325 2.9025e-20)
(1.28699 0.742845 -1.03551e-20)
(1.31387 0.770848 0)
(1.26815 0.759397 -3.18771e-20)
(1.19916 0.734605 0)
(1.12665 0.706749 -1.42407e-19)
(1.05099 0.675163 -4.8423e-20)
(0.972286 0.637711 4.89104e-20)
(0.892191 0.592323 -2.94401e-19)
(0.824355 0.544825 5.13418e-20)
(0.778808 0.50428 0)
(0.75018 0.471498 -3.25768e-19)
(0.718956 0.437854 2.19715e-21)
(0.646884 0.382618 0)
(0.512967 0.296194 1.58236e-21)
(0.345282 0.196743 4.16545e-19)
(0.186193 0.105077 -3.93678e-19)
(0.0663014 0.0369664 1.16085e-19)
(0.00422958 0.00234781 0)
(0.231432 0.141632 0)
(1.07762 0.661716 3.71899e-20)
(1.2755 0.78983 2.03417e-20)
(1.30021 0.818461 -2.47548e-21)
(1.25355 0.80546 -9.88186e-21)
(1.18413 0.778663 -8.24097e-20)
(1.11088 0.74876 5.34838e-20)
(1.03397 0.715034 -5.72734e-20)
(0.953455 0.675234 2.18413e-19)
(0.870946 0.627156 -4.70362e-19)
(0.800574 0.576513 -3.77589e-21)
(0.753111 0.53287 -1.42529e-19)
(0.723185 0.497736 5.2851e-19)
(0.690492 0.46124 -2.57595e-21)
(0.617716 0.400738 -2.55934e-19)
(0.488079 0.309091 -4.56628e-19)
(0.328217 0.204921 0)
(0.175723 0.108359 0)
(0.061738 0.0373841 1.25104e-19)
(0.00376822 0.00223637 -7.34615e-20)
(0.231814 0.150607 3.19311e-20)
(1.06902 0.698906 -8.70042e-20)
(1.26377 0.834208 -2.19826e-20)
(1.2863 0.863337 0)
(1.23878 0.84891 -1.53679e-21)
(1.16903 0.820354 -7.45753e-20)
(1.09516 0.788687 1.28619e-19)
(1.01713 0.75311 2.25029e-19)
(0.934887 0.711283 2.83657e-19)
(0.849968 0.6608 -3.84023e-19)
(0.776908 0.607099 -4.27102e-19)
(0.727429 0.56054 3.8109e-19)
(0.69618 0.523087 0)
(0.661663 0.482783 -1.1618e-19)
(0.587832 0.416077 -2.76766e-19)
(0.461914 0.319047 -3.27887e-19)
(0.308746 0.209949 -3.88158e-19)
(0.162532 0.108909 1.1469e-19)
(0.0552809 0.0362355 -6.74325e-20)
(0.00295093 0.00188337 2.72738e-22)
(0.232326 0.159501 0)
(1.06106 0.734457 0)
(1.252 0.876089 2.53591e-21)
(1.27235 0.905576 0)
(1.22406 0.889839 1.94395e-20)
(1.15407 0.859741 4.98306e-20)
(1.07969 0.826558 0)
(1.00063 0.789399 2.66187e-20)
(0.91676 0.745855 4.72958e-19)
(0.829414 0.693269 -8.82707e-19)
(0.753493 0.636767 0)
(0.701824 0.587599 -2.45097e-19)
(0.668984 0.547488 -3.05332e-21)
(0.632229 0.502058 -2.43178e-21)
(0.557374 0.4285 2.95694e-19)
(0.434831 0.326041 -2.33632e-22)
(0.287176 0.211715 -8.35406e-19)
(0.147287 0.106705 2.46589e-19)
(0.0476752 0.0336679 7.28659e-20)
(0.00191384 0.00131583 0)
(0.232895 0.168242 -1.34112e-19)
(1.05348 0.768328 -6.2577e-20)
(1.24028 0.915539 -7.50194e-20)
(1.25853 0.945265 5.282e-20)
(1.20957 0.928322 1.89266e-20)
(1.13942 0.896891 0)
(1.0646 0.862414 7.72823e-20)
(0.984625 0.823922 -5.93501e-20)
(0.899216 0.778965 3.87353e-21)
(0.809441 0.724606 6.50231e-20)
(0.730484 0.665718 5.52495e-19)
(0.676336 0.61423 -8.59463e-20)
(0.641416 0.570743 -3.25367e-19)
(0.60204 0.51881 -1.35214e-19)
(0.52651 0.437987 1.60633e-19)
(0.407177 0.329861 -4.68983e-23)
(0.2643 0.210055 2.24912e-19)
(0.13098 0.101971 -5.30208e-19)
(0.0397017 0.0300437 6.26646e-19)
(0.000805234 0.000620652 9.13747e-20)
(0.233343 0.176711 5.19466e-20)
(1.04628 0.800632 -3.59603e-20)
(1.22874 0.952657 6.23148e-21)
(1.24497 0.982529 4.01519e-20)
(1.19542 0.964474 2.7405e-21)
(1.12518 0.931878 -8.59322e-20)
(1.05003 0.896302 2.21293e-20)
(0.969231 0.856697 -2.4713e-19)
(0.88238 0.810612 -5.20473e-19)
(0.790182 0.754837 -5.25561e-19)
(0.708049 0.694104 0)
(0.65101 0.640483 -3.77166e-19)
(0.613355 0.592708 4.68732e-19)
(0.570981 0.53304 0)
(0.495201 0.444455 -3.43806e-19)
(0.379184 0.329986 2.04966e-19)
(0.24118 0.204733 -2.41604e-19)
(0.114947 0.0951123 -2.85107e-19)
(0.0321354 0.025838 -5.04443e-19)
(-0.000243188 -0.000102181 -3.93277e-19)
(0.234114 0.185042 -5.97176e-20)
(1.03932 0.831346 3.84964e-20)
(1.21742 0.987516 8.60429e-20)
(1.23174 1.01745 6.25465e-20)
(1.18171 0.998389 -1.88185e-21)
(1.11145 0.964786 -4.49403e-20)
(1.03605 0.928271 7.40281e-20)
(0.954531 0.887768 -2.53436e-19)
(0.866334 0.840822 -3.07975e-19)
(0.771764 0.784005 5.49493e-19)
(0.686331 0.722008 1.21222e-18)
(0.625925 0.666346 0)
(0.584755 0.613413 0)
(0.538882 0.545036 -1.55604e-19)
(0.463053 0.447712 0)
(0.350841 0.325504 4.40569e-19)
(0.218997 0.195025 5.19324e-19)
(0.101132 0.0862181 0)
(0.0262435 0.0215227 0)
(-0.00104475 -0.000731992 4.22345e-19)
(0.234529 0.192931 6.90401e-20)
(1.03263 0.860459 5.55183e-20)
(1.20641 1.02024 6.30832e-20)
(1.21892 1.05016 -6.49612e-20)
(1.1685 1.03017 -9.34973e-21)
(1.09828 0.995693 4.39718e-20)
(1.02272 0.958382 -1.01218e-19)
(0.940585 0.917163 -2.38766e-22)
(0.851152 0.869602 -5.02662e-21)
(0.754288 0.812125 -5.03443e-21)
(0.665482 0.74944 6.24031e-19)
(0.6012 0.69179 0)
(0.555676 0.633084 4.73998e-19)
(0.505545 0.555309 3.31679e-19)
(0.429239 0.447731 8.01129e-19)
(0.321488 0.315233 2.37057e-19)
(0.198889 0.178668 -2.79458e-19)
(0.0933876 0.0729293 -1.64125e-19)
(0.0272342 0.0161872 0)
(0.000121561 -0.000562215 4.53528e-19)
(0.235241 0.200823 -1.58011e-19)
(1.02618 0.888071 0)
(1.19568 1.05087 7.68045e-20)
(1.20652 1.08074 -5.69461e-20)
(1.15585 1.05992 2.13496e-20)
(1.08571 1.02468 -4.28588e-20)
(1.01008 0.986689 1.94538e-19)
(0.927427 0.944918 -2.0887e-20)
(0.836875 0.896962 0)
(0.737836 0.839183 -6.05308e-19)
(0.645637 0.776352 -1.3552e-18)
(0.576999 0.716819 5.55222e-20)
(0.526307 0.652091 6.53035e-19)
(0.470841 0.56455 0)
(0.392587 0.445077 5.40156e-19)
(0.2889 0.298359 0)
(0.179215 0.150725 0)
(0.095707 0.0423746 -1.77428e-19)
(0.0553553 -0.0010285 0)
(0.0284402 0.0118385 1.21473e-19)
(0.235571 0.208111 -1.78615e-19)
(1.01992 0.914509 0)
(1.18524 1.07964 1.29981e-19)
(1.19451 1.10944 0)
(1.1437 1.0879 -1.57727e-20)
(1.07369 1.05204 0)
(0.998066 1.01351 9.26635e-21)
(0.914962 0.971376 3.46937e-20)
(0.823384 0.923268 3.85155e-20)
(0.722247 0.86557 -6.63256e-19)
(0.626614 0.803126 4.06216e-20)
(0.553117 0.742004 4.4673e-19)
(0.496346 0.671301 6.3671e-19)
(0.433978 0.573611 8.59286e-20)
(0.351145 0.441271 4.22987e-19)
(0.248357 0.275979 0)
(0.148526 0.107716 5.88798e-19)
(0.0793138 -0.0080049 -3.44851e-19)
(0.0435072 0.0457201 3.99812e-19)
(-0.0689717 0.435242 -4.71455e-19)
(0.235879 0.215199 1.49121e-19)
(1.01361 0.939554 2.27041e-19)
(1.175 1.10684 0)
(1.18273 1.1367 5.0728e-21)
(1.13188 1.11468 5.18697e-20)
(1.06195 1.07844 3.74046e-20)
(0.986372 1.03963 6.61075e-20)
(0.902785 0.997473 0)
(0.810154 0.949613 2.54633e-19)
(0.706863 0.892597 -3.45468e-20)
(0.607498 0.831198 0)
(0.528332 0.769 0)
(0.464012 0.692383 5.69581e-19)
(0.39282 0.583427 -2.65431e-19)
(0.301748 0.438417 -4.27979e-19)
(0.195033 0.25198 0)
(0.0865615 0.108654 2.9645e-19)
(0.00486018 0.439875 -3.43063e-19)
(0.034015 1.88741 -1.8796e-19)
(0.0634153 2.81023 -2.40291e-19)
(0.235998 0.221443 -1.13459e-19)
(1.00743 0.963389 -2.93958e-19)
(1.16497 1.13246 7.8749e-20)
(1.17119 1.16239 6.10839e-20)
(1.1204 1.14004 0)
(1.05055 1.1036 1.46409e-20)
(0.975187 1.06475 8.80524e-20)
(0.891081 1.02278 -1.66809e-20)
(0.79745 0.975481 3.79802e-20)
(0.692064 0.919647 6.30994e-19)
(0.588873 0.859829 6.83365e-19)
(0.503585 0.797367 4.99025e-19)
(0.430257 0.715528 5.72065e-19)
(0.349072 0.593037 -6.22193e-19)
(0.250128 0.439908 -6.45349e-19)
(0.129854 0.288917 0)
(0.0457052 0.82923 0)
(0.102675 2.54934 1.63724e-19)
(0.103622 3.20037 0)
(0.106647 3.38782 3.90874e-19)
(0.238679 0.227131 0)
(1.00199 0.986208 0)
(1.15494 1.15636 0)
(1.15966 1.18631 1.92236e-20)
(1.10894 1.16373 4.94426e-20)
(1.03928 1.12739 -2.85914e-21)
(0.964409 1.08876 5.56588e-20)
(0.87981 1.04719 -1.62062e-20)
(0.785239 1.00074 3.16586e-19)
(0.677877 0.946576 -9.40051e-21)
(0.570877 0.888855 1.34816e-18)
(0.479212 0.826964 -5.75044e-20)
(0.39534 0.741959 6.91788e-20)
(0.305377 0.600136 8.98727e-20)
(0.187387 0.453659 -4.47052e-21)
(0.102728 0.960784 1.8335e-21)
(0.142268 2.717 -8.60201e-19)
(0.150635 3.29203 -3.2333e-19)
(0.139146 3.42613 1.67291e-19)
(0.126154 3.44845 -1.8604e-19)
(0.156504 0.183633 6.82101e-20)
(0.99129 1.01078 0)
(1.14457 1.17876 -1.6254e-19)
(1.14867 1.20896 -1.69991e-19)
(1.09835 1.18656 1.29271e-19)
(1.02906 1.15049 8.42053e-21)
(0.954009 1.11171 -5.60146e-20)
(0.869097 1.07083 1.77413e-19)
(0.773692 1.02555 -2.58475e-19)
(0.664578 0.973542 0)
(0.553886 0.918422 6.61199e-19)
(0.455787 0.857693 -4.0666e-19)
(0.359992 0.774777 0)
(0.256059 0.606955 8.35693e-20)
(0.149732 0.766496 2.00836e-19)
(0.158014 2.48726 -2.34644e-19)
(0.215627 3.32324 2.6345e-19)
(0.195141 3.43974 1.41749e-19)
(0.162157 3.46135 1.59656e-19)
(0.14009 3.47164 2.53299e-19)
(0.282112 0.266027 -1.23623e-19)
(0.976353 1.02096 0)
(1.12663 1.20429 1.79188e-19)
(1.13423 1.24034 1.92379e-19)
(1.08137 1.21973 -1.51343e-19)
(1.01143 1.18409 -3.26332e-20)
(0.935455 1.1469 4.67011e-20)
(0.850068 1.10729 1.39162e-20)
(0.753409 1.06424 2.45274e-19)
(0.641736 1.01636 5.42285e-19)
(0.525974 0.966847 3.72213e-20)
(0.417036 0.909264 3.60414e-19)
(0.297569 0.818499 6.45024e-20)
(0.215355 0.94132 -8.19707e-20)
(0.231833 2.33689 -1.86875e-19)
(0.293184 3.32643 1.78811e-19)
(0.27625 3.4697 -1.97398e-19)
(0.240532 3.49145 -1.14086e-19)
(0.203104 3.51907 -9.52467e-20)
(0.15147 3.51293 -1.12151e-20)
(0.270086 0.26295 0)
(0.974214 1.04386 5.36089e-20)
(1.11856 1.22788 -3.75394e-20)
(1.12392 1.26401 -2.35728e-20)
(1.07083 1.24302 -1.08324e-19)
(1.00092 1.2076 3.72089e-20)
(0.924636 1.17057 -2.17612e-20)
(0.839094 1.13179 1.23811e-20)
(0.741981 1.09025 -2.54644e-19)
(0.629176 1.04532 -1.39817e-20)
(0.51074 0.999795 -1.19269e-18)
(0.39708 0.94575 5.13533e-20)
(0.284361 0.885111 -6.07958e-20)
(0.256746 1.48238 -7.57142e-20)
(0.332052 3.0973 1.79849e-20)
(0.352117 3.46778 5.62617e-22)
(0.311534 3.52422 2.82267e-19)
(0.273983 3.55054 1.36637e-19)
(0.225074 3.57399 -3.12946e-20)
(0.165925 3.56993 -5.13064e-20)
(0.253752 0.261363 1.37566e-19)
(0.970498 1.06944 3.67821e-19)
(1.11007 1.25359 -1.08024e-19)
(1.11304 1.28908 -8.90992e-20)
(1.05972 1.26766 0)
(0.989979 1.23229 8.43806e-20)
(0.913693 1.1955 -1.62826e-20)
(0.828268 1.15753 1.07345e-20)
(0.731016 1.11758 -2.83697e-20)
(0.617584 1.07577 -4.88067e-19)
(0.497237 1.03436 -5.49145e-19)
(0.380888 0.984101 -4.19987e-19)
(0.282227 1.01433 -4.59341e-19)
(0.325536 2.19309 4.74375e-19)
(0.418619 3.37637 3.95454e-19)
(0.396385 3.52594 0)
(0.350525 3.57084 0)
(0.31229 3.61167 -2.38111e-20)
(0.261061 3.67205 0)
(0.178111 3.64815 -2.22918e-20)
(0.242944 0.263244 -2.081e-19)
(0.964804 1.09612 -3.14836e-19)
(1.10016 1.28053 0)
(1.10082 1.31493 6.08158e-21)
(1.04735 1.29292 -1.23781e-19)
(0.977928 1.25747 1.46826e-19)
(0.901973 1.22096 -1.47683e-21)
(0.81687 1.1837 5.73014e-21)
(0.71972 1.14528 -1.7803e-19)
(0.606056 1.10648 2.42928e-20)
(0.484625 1.06913 0)
(0.364564 1.02532 0)
(0.306262 1.2678 -4.18626e-19)
(0.408591 2.87269 1.70034e-19)
(0.490502 3.48529 2.15707e-19)
(0.442742 3.55885 0)
(0.402085 3.62239 -3.13324e-21)