/*--------------------------------*- C++ -*----------------------------------*\
  =========                 |
  \\      /  F ield         | OpenFOAM: The Open Source CFD Toolbox
   \\    /   O peration     | Website:  https://openfoam.org
    \\  /    A nd           | Version:  10
     \\/     M anipulation  |
\*---------------------------------------------------------------------------*/
FoamFile
{
    format      ascii;
    class       volScalarField;
    location    "70";
    object      p;
}
// * * * * * * * * * * * * * * * * * * * * * * * * * * * * * * * * * * * * * //

dimensions      [0 2 -2 0 0 0 0];

internalField   nonuniform List<scalar> 
918
(
0.557165
1.18109
0.000711424
0.556617
-0.00952562
1.1481
-0.511515
0.657823
0.537368
-0.107606
-0.0523174
0.539756
1.00867
0.774148
-1.12398
-0.0113695
0.651602
-0.381681
0.536483
-0.0604176
0.687249
0.543905
0.546929
0.537507
0.597767
0.748963
0.889513
0.0245444
0.0124214
0.00554159
-0.0144994
-0.0360615
-0.0308096
1.03176
1.08282
1.10551
0.505107
0.33364
-0.3769
-0.449895
-0.43709
-0.545119
0.65665
0.656093
-0.213235
0.660735
0.662031
0.524385
0.536737
0.537649
0.538666
0.537652
0.539032
0.403786
-0.108003
-0.139289
-0.0884711
-0.0821904
0.0519345
-0.0535279
-0.0561107
-0.0506327
-0.0498506
0.454201
0.533955
0.530406
0.543945
0.55332
1.12064
1.09258
1.11872
1.03228
1.04883
0.986683
0.959301
0.7953
0.816843
0.758394
0.746588
-1.55485
-2.505
-0.534884
-0.284685
-0.0153753
-0.00938568
-0.00337919
0.648793
0.650176
0.651035
0.652991
1.07939
-0.379247
-0.479838
0.536625
0.535437
0.543752
0.544454
0.540474
0.539563
-0.0515229
-0.0482092
-0.0512212
-0.0563852
-0.0546976
0.672974
0.674201
0.538035
0.535037
0.560994
0.581262
0.571331
0.277468
0.6085
0.624337
0.580996
0.743397
0.735788
0.745384
0.863104
0.826129
0.926782
0.950043
0.0179145
-0.00140749
-0.0159064
-0.0195357
-0.0183368
0.500934
0.493468
0.521004
0.508547
0.511057
0.25044
0.117159
0.418572
0.443368
-0.296102
-0.362944
-0.42958
-0.46029
-0.568801
0.612407
0.655617
0.654262
-0.223144
-0.151363
-0.284882
-0.078276
-0.141335
0.51464
0.521661
0.516655
0.532221
0.526684
0.528649
0.541009
0.538078
0.539639
0.465907
0.589406
0.330021
0.294564
-0.242742
-0.154655
-0.24225
-0.0719194
-0.0696747
0.0661049
0.0917891
0.0386557
0.0267925
-0.0653453
-0.0591951
-0.0619242
-0.048043
-0.0473664
0.446934
0.435698
0.466904
0.474474
0.520299
0.521807
0.526314
0.524128
0.910207
0.932504
0.940017
0.913878
-3.49319
-6.27251
0.0395832
0.175816
-0.00664886
-0.0109981
0.00443792
-0.0105679
-0.00336241
-0.00449505
-0.00882262
-0.0100115
-0.00457792
-0.00362451
0.643471
0.644441
1.00166
1.00863
0.977181
0.930091
0.524848
0.526919
0.532413
0.528298
-0.0470155
-0.0470834
-0.0467173
0.66515
0.670488
0.668002
0.238891
0.148969
0.32863
0.357832
0.636828
0.625425
0.635028
0.640864
0.676309
0.95741
0.975552
0.973895
0.982223
1.02633
1.0428
1.00801
0.480326
0.490338
0.485268
0.524042
0.521834
0.522722
0.519042
0.520009
0.518216
-0.0331825
-0.412783
0.490652
0.507457
0.492949
0.495254
0.692514
0.771101
0.652554
0.653947
0.653559
-0.00891543
-0.0674258
0.249696
0.215564
0.386358
0.42285
0.401782
0.881271
0.841847
0.891862
0.865312
0.826717
0.85255
-0.364328
-1.86244
-0.982333
0.524105
0.33916
0.425776
0.00861331
-0.00816335
-0.00358124
1.00133
1.07358
0.645179
0.820024
0.822649
0.71374
0.744331
0.799097
0.724705
0.759514
0.794472
0.776383
0.568343
0.503742
0.519738
0.840148
0.895842
0.118659
0.0567705
0.0129756
0.110772
0.168325
0.142284
1.03356
0.949542
1.0197
0.534799
0.535521
-0.00471054
-0.0177877
0.539771
0.539827
-0.0168912
-0.00421363
0.409313
-0.831582
0.0975063
0.528358
0.518241
0.535385
-0.0931486
0.35537
-0.0521122
0.0476352
-0.00889779
0.52994
0.465348
0.424377
-0.000863374
-0.0203377
-0.0513204
-0.213176
0.532469
0.530773
0.534852
0.535792
0.536474
-0.0191441
-0.0144959
-0.0104034
-0.0481217
-0.0411261
-0.0535628
0.499268
0.51871
-0.170867
0.534999
0.537134
0.536952
0.530219
0.535847
0.534101
-0.0117109
-0.0174746
-0.0187361
0.219002
0.351391
0.648226
0.734392
0.620485
0.396774
0.162306
0.551954
0.615062
0.521042
0.674233
0.65115
0.657586
0.16302
0.0126626
0.171865
0.113625
0.52622
0.524942
0.516493
0.513451
0.530252
0.528366
0.532924
0.529948
0.532899
0.534279
-0.0494152
-0.0760657
-0.0851775
-0.152183
0.31007
0.571098
0.254572
0.283972
0.141711
-0.0466265
-0.0482601
-0.050029
-0.0588004
0.000724795
-0.0245981
0.0423359
0.0424868
0.0143243
-0.0112725
-0.00897104
-0.0199443
-0.0143434
0.523201
0.523261
0.527658
0.536375
0.475023
0.478809
0.443604
0.464374
0.449615
0.388241
0.423613
0.398804
-0.00876667
0.000895296
-0.00578513
-0.0182123
-0.0141763
-0.0342323
-0.0308415
-0.0262813
-0.0222118
-0.0290708
-0.0458044
-0.0481253
-0.171267
-0.287206
0.98802
0.90896
0.136802
0.521613
0.528073
0.524831
0.529764
0.532892
0.533689
0.531395
0.527941
0.518936
0.520358
0.51723
0.518312
-0.102154
-0.24372
-0.0720729
-0.146818
0.145485
0.628122
0.363287
0.298552
0.293916
0.52281
0.91659
0.699367
0.668158
0.66691
-0.343664
0.0449099
-0.28031
0.334717
0.161903
0.647978
0.697131
0.7192
0.666867
0.619931
-0.1005
0.555899
-0.0744788
-0.0221012
0.179578
0.0551865
0.65973
0.639062
0.646446
0.651107
0.664381
0.642277
0.624993
0.624946
0.645853
0.649745
0.482638
0.249668
0.20023
0.161773
0.64254
0.516309
0.566117
0.489619
0.521526
0.524048
0.5227
0.504107
0.511707
0.507219
0.513799
0.517442
0.525972
0.526452
0.521708
0.523836
-0.0565104
-0.0630176
-0.0252998
-0.135459
-0.128287
-0.190414
-0.0592806
0.0740234
0.0355667
0.236914
0.341018
0.0517004
-0.0569939
-0.0294874
0.0121969
0.179397
0.207854
0.0738722
0.161795
0.153061
0.134007
0.237038
0.240343
-0.0297089
-0.0313005
-0.0361819
-0.0382376
0.0185971
0.0901042
0.0992804
-0.00757104
-0.0132129
-0.0448752
-0.0448144
-0.0225052
-0.0277918
-0.0226952
0.00442404
-0.0533154
-0.0208746
-0.00695111
-0.0049653
-0.00601359
-0.0113949
0.518185
0.519781
0.520154
0.527567
0.540153
0.554752
0.520999
0.497269
0.488041
0.491059
0.463944
0.474238
0.470061
0.48364
0.504796
0.51352
0.511845
0.514687
0.49688
0.49866
0.485197
0.488847
0.463937
0.444532
0.432579
-0.0432823
-0.00534085
-0.0129472
-0.0390117
-0.0101791
-0.0218247
-0.0110168
0.00742673
-0.0088909
-0.0098713
-0.019616
-0.0266648
-0.0264204
-0.0732575
0.0134431
-0.184706
-0.220143
-0.293233
0.890256
1.01447
0.809585
0.582563
0.602869
0.846203
0.93066
0.542745
0.735105
0.758245
0.587166
0.854404
0.526463
0.526058
0.523658
0.523138
0.524358
-0.00721864
0.09916
0.0970969
0.160666
0.277197
0.388817
0.319749
0.194462
0.324479
0.326953
0.621103
0.633309
0.588358
0.612411
0.612764
0.424904
0.500564
0.552194
0.513386
0.565198
0.586787
0.540857
0.573781
0.523265
0.478827
0.475005
0.424532
0.444204
0.419782
0.402903
0.516023
0.493246
0.504027
0.494447
0.515247
0.54327
0.539959
0.561779
0.576935
0.497846
0.45273
0.462117
0.492299
0.453771
0.469363
0.485396
0.23295
0.135039
0.217937
-0.0669916
0.00360251
-0.00888805
-0.0576075
-0.00619068
0.277991
-0.412779
-0.389517
-1.01639
0.504195
0.954043
0.590848
0.566705
0.665383
0.650914
0.657161
0.674183
0.67236
0.631163
0.640285
0.645099
0.595903
0.616625
0.636172
0.632172
0.524457
0.381784
0.381167
0.328858
0.198961
0.238899
0.434844
0.359141
0.284239
0.284349
0.456288
0.342786
0.41284
0.446227
0.377477
0.332158
0.534838
0.600861
0.5945
0.567785
0.478528
0.490597
0.515124
0.548558
0.572303
0.605045
0.513216
0.519162
0.520394
0.517862
0.515132
0.518235
0.518526
0.521099
0.52168
0.524702
0.52377
-0.0528541
-0.0384003
-0.0511944
-0.0633544
-0.018492
-0.0206805
0.0228701
0.011247
-0.0156592
-0.0115832
-0.0332582
-0.0372821
-0.033872
-0.0259571
0.102454
0.115237
0.100549
0.0607185
0.250375
0.380324
0.454726
0.329872
0.223694
0.248237
0.266628
-0.012343
0.013222
0.000476127
0.0402272
0.0320675
-0.0391673
-0.0429536
-0.0389982
-0.0311768
-0.0229019
-0.0382914
-0.0437656
-0.0348377
-0.0392929
-0.041957
-0.0455778
0.499542
0.493001
0.494574
0.488494
0.487224
0.501545
0.505876
0.507817
0.51332
0.515756
0.505658
0.511094
0.515096
-0.0123554
-0.0355336
-0.0389573
-0.0299914
-0.0320325
-0.0293969
-0.0309533
0.123319
0.0542049
0.0579758
0.0108258
-0.121413
-0.0634481
0.491826
0.490632
0.480002
0.721027
0.570263
0.49113
0.588236
0.693882
0.276027
0.472739
0.30787
0.888226
0.784879
0.931178
0.542113
0.245858
0.410124
0.45255
0.266218
0.342061
0.324275
0.213359
0.244064
0.282439
0.381269
0.265989
0.242832
-0.000695758
0.190116
0.301992
0.283844
0.408354
0.46896
0.266951
0.186673
0.141656
0.605706
0.625297
0.638284
0.611007
0.632561
0.581152
0.573429
0.588563
0.596555
0.590877
-0.744725
-0.451108
-1.39794
-0.720822
-0.265292
0.534779
0.506965
0.769561
0.645582
0.680348
0.665025
0.624149
0.593984
0.618679
0.641064
0.339876
0.450419
0.425637
0.4314
0.33416
0.264371
0.562701
0.559741
0.592985
0.616264
0.58793
0.618185
0.511031
0.510757
0.510216
0.50645
0.504711
0.507073
0.058772
0.0263321
0.0674139
0.0501104
0.0276184
0.0151801
-0.011015
-0.0209752
-0.0281233
-0.027687
-0.0133557
-0.00926231
0.171907
0.10922
0.0297287
0.058557
-0.00217386
-0.0705326
-0.0897085
0.0157408
0.111837
0.10203
0.405173
0.654681
0.474726
0.642149
0.484715
0.540496
0.468464
0.45979
0.484709
0.37993
0.46031
0.250802
-0.257449
-0.166606
0.794926
0.805601
0.581337
0.406584
0.174269
0.351487
0.540925
0.470713
0.506093
0.575168
0.562199
0.0301107
0.0875448
0.375059
0.601831
0.241181
0.23225
0.225614
0.410195
0.328237
)
;

boundaryField
{
    wall-4
    {
        type            zeroGradient;
    }
    velocity-inlet-5
    {
        type            zeroGradient;
    }
    velocity-inlet-6
    {
        type            zeroGradient;
    }
    pressure-outlet-7
    {
        type            fixedValue;
        value           uniform 0;
    }
    wall-8
    {
        type            zeroGradient;
    }
    frontAndBackPlanes
    {
        type            empty;
    }
}


// ************************************************************************* //
