/*--------------------------------*- C++ -*----------------------------------*\
  =========                 |
  \\      /  F ield         | OpenFOAM: The Open Source CFD Toolbox
   \\    /   O peration     | Website:  https://openfoam.org
    \\  /    A nd           | Version:  10
     \\/     M anipulation  |
\*---------------------------------------------------------------------------*/
FoamFile
{
    format      ascii;
    class       volScalarField;
    location    "54";
    object      p;
}
// * * * * * * * * * * * * * * * * * * * * * * * * * * * * * * * * * * * * * //

dimensions      [0 2 -2 0 0 0 0];

internalField   nonuniform List<scalar> 
2200
(
0.775071
0.753572
0.737664
0.721997
0.707389
0.694868
0.684514
0.676411
0.670706
0.667764
0.668228
0.672027
0.678377
0.686938
0.69762
0.710388
0.725172
0.741088
0.757126
0.778626
0.707495
0.704237
0.701314
0.697196
0.69173
0.685256
0.67864
0.672686
0.668181
0.665789
0.666281
0.669575
0.674753
0.681208
0.688185
0.694936
0.700599
0.7047
0.707556
0.710914
0.667586
0.667806
0.669857
0.671196
0.671587
0.670733
0.668746
0.66607
0.663531
0.662044
0.662609
0.665065
0.668335
0.671548
0.673885
0.67488
0.674608
0.673604
0.671953
0.671705
0.645066
0.646513
0.649119
0.651587
0.654033
0.656052
0.657209
0.657439
0.657065
0.656771
0.657403
0.658782
0.65998
0.66037
0.659688
0.658016
0.655852
0.653646
0.651031
0.649626
0.630746
0.632721
0.63554
0.638371
0.641223
0.644053
0.646514
0.648378
0.649607
0.650405
0.651131
0.651608
0.651364
0.650252
0.648384
0.64601
0.643462
0.640739
0.63794
0.636016
0.623409
0.625008
0.627206
0.62973
0.632394
0.63506
0.637647
0.640064
0.642077
0.643588
0.644447
0.644466
0.643641
0.642127
0.640233
0.63809
0.635759
0.633415
0.631319
0.629744
0.619979
0.621001
0.622267
0.62413
0.626275
0.628446
0.630638
0.632924
0.635143
0.636988
0.638013
0.638015
0.637237
0.63603
0.634633
0.633076
0.631389
0.629818
0.628699
0.627682
0.617338
0.618009
0.61864
0.619942
0.621555
0.623237
0.624989
0.626918
0.628983
0.630939
0.632189
0.632503
0.632168
0.631546
0.630761
0.629802
0.628739
0.627807
0.627358
0.626682
0.614099
0.614546
0.61494
0.615934
0.617195
0.618578
0.620073
0.621732
0.623579
0.625541
0.627043
0.627822
0.628082
0.628023
0.627739
0.627264
0.626677
0.626136
0.625945
0.625481
0.610045
0.610341
0.610699
0.611568
0.612679
0.613949
0.615381
0.616988
0.618785
0.620785
0.622646
0.623958
0.624723
0.625095
0.625167
0.625019
0.624714
0.624381
0.624249
0.623926
0.605359
0.60556
0.605931
0.60676
0.607849
0.609152
0.610671
0.612406
0.614372
0.616613
0.618872
0.620676
0.621866
0.622553
0.622867
0.622937
0.622799
0.622608
0.622497
0.622262
0.600191
0.600337
0.600708
0.601518
0.602667
0.604105
0.605819
0.607807
0.610099
0.61276
0.615533
0.617804
0.619352
0.620309
0.620839
0.621066
0.621128
0.621082
0.621002
0.620815
0.594607
0.594717
0.595096
0.595913
0.597127
0.598716
0.600672
0.603002
0.605742
0.608952
0.612341
0.615167
0.617126
0.618402
0.619184
0.619636
0.619891
0.619967
0.61993
0.619765
0.588615
0.588685
0.589063
0.589908
0.591243
0.593015
0.595236
0.597958
0.601285
0.60524
0.609372
0.612807
0.615235
0.616885
0.618025
0.618773
0.619231
0.619444
0.619446
0.619294
0.582125
0.582163
0.582583
0.583491
0.584965
0.586951
0.589485
0.592664
0.596631
0.60142
0.606473
0.610633
0.613686
0.615892
0.617455
0.618538
0.619247
0.619609
0.619656
0.619504
0.575047
0.575021
0.575441
0.576435
0.578122
0.580372
0.583244
0.586921
0.591603
0.597352
0.603479
0.608693
0.612559
0.615406
0.617514
0.619002
0.619984
0.620498
0.620599
0.620447
0.567045
0.567021
0.567475
0.568592
0.570508
0.573058
0.576384
0.580695
0.586226
0.593128
0.600588
0.607031
0.611935
0.615587
0.618308
0.620264
0.62157
0.622249
0.622404
0.622243
0.558053
0.558076
0.558502
0.559725
0.561948
0.564936
0.568885
0.57402
0.580643
0.588977
0.598054
0.605894
0.611937
0.616529
0.619958
0.622421
0.624078
0.624934
0.625142
0.624969
0.547607
0.547585
0.548127
0.549573
0.552189
0.555784
0.560572
0.566797
0.574805
0.58486
0.59584
0.6054
0.612752
0.618334
0.622504
0.625588
0.627635
0.628668
0.628927
0.628735
0.53524
0.535173
0.535848
0.537669
0.540808
0.545176
0.55105
0.558691
0.568504
0.580762
0.594053
0.605563
0.614383
0.621087
0.626149
0.629857
0.632325
0.633543
0.633845
0.633628
0.520601
0.520495
0.521266
0.523472
0.527363
0.5328
0.54011
0.549656
0.561865
0.576872
0.592803
0.606408
0.616862
0.624839
0.630876
0.635322
0.638251
0.639635
0.639971
0.639725
0.502713
0.502628
0.503624
0.506377
0.511267
0.518182
0.527493
0.539549
0.554748
0.573021
0.592051
0.608067
0.620292
0.629671
0.636791
0.642046
0.645447
0.647006
0.64736
0.647081
0.480598
0.48045
0.481758
0.48536
0.491767
0.500833
0.51286
0.528176
0.546989
0.569086
0.591636
0.610472
0.624783
0.635686
0.643978
0.650088
0.653943
0.655644
0.655997
0.65568
0.452076
0.45208
0.454151
0.45919
0.467867
0.480021
0.495793
0.515236
0.538359
0.564872
0.59152
0.613538
0.630147
0.64278
0.652396
0.659374
0.66366
0.665488
0.665806
0.66545
0.414401
0.414639
0.418137
0.425991
0.43859
0.455586
0.476582
0.501423
0.529918
0.561598
0.592603
0.617793
0.63671
0.651114
0.662059
0.66996
0.674598
0.676432
0.676673
0.676281
0.364132
0.364502
0.371435
0.384597
0.403644
0.427814
0.455848
0.487389
0.522152
0.559542
0.595078
0.623507
0.644702
0.660812
0.673069
0.68165
0.686331
0.687903
0.687978
0.687631
0.297829
0.300643
0.315655
0.336943
0.364883
0.397999
0.434208
0.473229
0.514931
0.558711
0.599539
0.631665
0.655698
0.674031
0.687757
0.697277
0.702044
0.703296
0.703251
0.703079
0.222447
0.231824
0.25684
0.287961
0.326002
0.368159
0.412551
0.45929
0.508303
0.558902
0.605418
0.642288
0.669941
0.690829
0.706716
0.71727
0.722045
0.722875
0.722802
0.722761
0.154975
0.169632
0.200919
0.240854
0.2884
0.339326
0.391703
0.446035
0.502075
0.559197
0.611499
0.652944
0.683742
0.707241
0.724645
0.736137
0.741079
0.741782
0.742004
0.741965
0.103464
0.116605
0.153206
0.199237
0.254089
0.312479
0.37219
0.43376
0.496818
0.560649
0.618878
0.66394
0.697563
0.72302
0.741824
0.754203
0.759465
0.760696
0.760834
0.760876
0.0609628
0.0733587
0.113665
0.163633
0.223963
0.288362
0.354566
0.422745
0.492344
0.562246
0.62517
0.67408
0.710512
0.73785
0.758206
0.77118
0.777131
0.778683
0.778774
0.778859
0.0245679
0.0372311
0.0802026
0.133054
0.197766
0.267035
0.338729
0.412554
0.487696
0.563005
0.630882
0.683657
0.722226
0.751283
0.773037
0.786729
0.793025
0.794795
0.794935
0.795016
-0.00718207
0.00569102
0.0508309
0.106276
0.174616
0.24788
0.324162
0.402795
0.48294
0.563672
0.636457
0.69205
0.732898
0.763497
0.786
0.800336
0.80708
0.809017
0.809237
0.809311
-0.0354928
-0.022576
0.0242696
0.0821778
0.153613
0.230268
0.310512
0.393454
0.478321
0.563873
0.640444
0.699226
0.742173
0.77382
0.797086
0.812102
0.819061
0.821205
0.821483
0.821528
-0.061324
-0.0483825
-0.000320063
0.0599661
0.13416
0.213811
0.297556
0.384348
0.473403
0.563224
0.643986
0.705852
0.750193
0.783086
0.806658
0.822022
0.829345
0.83166
0.831995
0.832012
-0.0854558
-0.0721875
-0.0233289
0.0391394
0.115779
0.19814
0.285011
0.375173
0.467949
0.561912
0.6468
0.711108
0.757278
0.79109
0.815217
0.830801
0.838238
0.84069
0.841012
0.840996
-0.108135
-0.0946638
-0.0449657
0.0193922
0.0981436
0.182938
0.27256
0.365693
0.461904
0.559832
0.648558
0.715774
0.763814
0.798522
0.823061
0.838434
0.846012
0.848407
0.848677
0.848575
-0.129507
-0.115991
-0.0655108
0.000463193
0.0809953
0.16792
0.259991
0.355853
0.455269
0.556839
0.649315
0.719902
0.769919
0.805487
0.830241
0.845427
0.852675
0.855067
0.85536
0.855246
-0.14997
-0.1363
-0.0851774
-0.0178645
0.0641841
0.152998
0.24727
0.345623
0.447911
0.552838
0.649279
0.723386
0.775563
0.812445
0.837096
0.851793
0.858862
0.861021
0.861319
0.861217
-0.169936
-0.155754
-0.10418
-0.0357162
0.0476532
0.138135
0.23437
0.334951
0.439821
0.548058
0.648578
0.726284
0.781331
0.819465
0.844111
0.85824
0.864657
0.866525
0.866744
0.866646
-0.189593
-0.174643
-0.122647
-0.0531537
0.0313735
0.123335
0.221309
0.323879
0.431152
0.54254
0.646892
0.728485
0.786847
0.82697
0.851873
0.864972
0.870491
0.871598
0.871709
0.871645
-0.208795
-0.193104
-0.140663
-0.0701936
0.0153589
0.108607
0.208094
0.312451
0.421934
0.536133
0.644142
0.730032
0.792153
0.834964
0.860718
0.872857
0.876472
0.876345
0.876216
0.876089
-0.227477
-0.211183
-0.158222
-0.0868274
-0.000378885
0.0939728
0.194768
0.300726
0.41222
0.528929
0.640346
0.730563
0.79697
0.843505
0.871271
0.882393
0.883555
0.880962
0.880589
0.881444
-0.245531
-0.228789
-0.175294
-0.103039
-0.0158004
0.0794894
0.181399
0.288766
0.402049
0.520941
0.635344
0.72984
0.801163
0.852281
0.883565
0.895176
0.893411
0.886824
0.881806
0.880496
-0.262981
-0.245859
-0.191817
-0.118784
-0.0308583
0.0652232
0.16807
0.276633
0.391435
0.512197
0.629136
0.727618
0.804028
0.861016
0.897498
0.912065
0.911013
0.899501
0.898714
0.902889
-0.279786
-0.262305
-0.207743
-0.134021
-0.0454912
0.0512545
0.154863
0.26439
0.380436
0.502797
0.621884
0.723796
0.805297
0.868605
0.912145
0.932956
0.934751
0.905858
0.866097
0.830951
-0.295922
-0.27816
-0.223101
-0.148803
-0.0597875
0.0374638
0.141626
0.251857
0.368846
0.49251
0.613319
0.717847
0.803771
0.874048
0.926632
0.956905
0.973685
0.95352
0.970548
1.02983
-0.311321
-0.29344
-0.237986
-0.163274
-0.0739271
0.0236282
0.128089
0.238711
0.356267
0.480805
0.60281
0.709103
0.798464
0.874388
0.9327
0.967474
0.976895
0.954099
0.912323
0.927592
-0.325976
-0.308145
-0.252347
-0.177374
-0.0878353
0.00983734
0.114374
0.225108
0.342849
0.467736
0.590294
0.697294
0.787356
0.865098
0.924238
0.958666
0.945092
0.890432
0.826097
0.813689
-0.339853
-0.322233
-0.266186
-0.191115
-0.101519
-0.00390398
0.100507
0.211085
0.328627
0.453321
0.57572
0.682124
0.770342
0.843578
0.897232
0.904716
0.869028
0.79152
0.716694
0.693933
-0.353007
-0.335725
-0.27951
-0.204508
-0.114995
-0.0176087
0.0864902
0.196656
0.313621
0.437557
0.55895
0.663324
0.745969
0.807728
0.836662
0.823376
0.764626
0.662666
0.575091
0.552661
-0.36588
-0.348992
-0.292712
-0.217927
-0.12862
-0.0315835
0.0720583
0.181593
0.297644
0.420288
0.539764
0.640359
0.715684
0.761572
0.756517
0.721443
0.609982
0.487276
0.379679
0.352321
-0.379367
-0.362874
-0.306486
-0.231977
-0.142954
-0.0463113
0.056794
0.165549
0.280431
0.401292
0.51789
0.612827
0.680974
0.702637
0.669168
0.581115
0.424975
0.272179
0.142723
0.114957
-0.39398
-0.377708
-0.321157
-0.246913
-0.158182
-0.0619222
0.0406076
0.148481
0.261988
0.380573
0.493254
0.581631
0.639351
0.63285
0.580516
0.430732
0.231112
0.0186792
-0.161335
-0.209891
-0.409858
-0.393678
-0.33678
-0.262733
-0.174276
-0.0783936
0.0235202
0.130419
0.242368
0.358231
0.465877
0.54832
0.591315
0.553096
0.46602
0.278434
0.0476596
-0.240582
-0.561376
-0.70941
-0.42705
-0.41078
-0.353489
-0.279566
-0.191312
-0.0957909
0.00547013
0.111309
0.22153
0.334284
0.436101
0.512209
0.537514
0.468881
0.332768
0.127815
-0.105627
-0.448708
-1.03458
-1.60606
-0.445669
-0.429228
-0.37134
-0.297433
-0.209297
-0.114109
-0.0135124
0.091217
0.19962
0.309163
0.405095
0.47335
0.479954
0.394795
0.204064
-0.0287801
-0.230878
-0.464709
-1.01882
-2.5313
-0.465702
-0.448949
-0.390461
-0.316517
-0.228419
-0.133551
-0.0336637
0.0698707
0.176313
0.282471
0.372452
0.431262
0.417479
0.336861
0.111281
-0.126251
-0.273401
-0.310028
-0.299114
-0.686265
-0.487116
-0.470286
-0.410995
-0.337054
-0.24905
-0.154613
-0.0556137
0.0464899
0.150668
0.252884
0.337342
0.385862
0.356312
0.287706
0.0615629
-0.139976
-0.25014
-0.257632
-0.204239
-0.244348
-0.509715
-0.492848
-0.432977
-0.359186
-0.271316
-0.177436
-0.0795182
0.020917
0.122486
0.220203
0.299829
0.338562
0.302507
0.234656
0.0299531
-0.130114
-0.211748
-0.219465
-0.267451
-0.271514
-0.533664
-0.516769
-0.456277
-0.382809
-0.295155
-0.202027
-0.105425
-0.00692321
0.0917196
0.184805
0.259792
0.289065
0.255941
0.174361
0.00209482
-0.120076
-0.189928
-0.166911
-0.187344
-0.188926
-0.558456
-0.541418
-0.480854
-0.407953
-0.320498
-0.228334
-0.133254
-0.0368968
0.0585107
0.147079
0.21747
0.236117
0.215382
0.107028
-0.0324923
-0.115073
-0.153722
-0.201255
-0.176081
-0.184538
-0.583967
-0.566565
-0.506464
-0.434285
-0.347022
-0.256172
-0.162824
-0.0688157
0.0229985
0.107341
0.173782
0.182267
0.173142
0.0467479
-0.0694311
-0.133555
-0.1107
-0.170398
-0.151209
-0.156037
-0.609184
-0.591611
-0.53301
-0.461617
-0.374516
-0.28533
-0.19385
-0.102318
-0.0145586
0.0660032
0.129683
0.130821
0.12187
-0.00472382
-0.0961219
-0.147734
-0.136223
-0.151122
-0.15659
-0.154744
-0.633835
-0.616385
-0.559702
-0.489011
-0.402454
-0.315412
-0.225926
-0.137033
-0.053644
0.0233653
0.0856548
0.0831733
0.0654931
-0.0475652
-0.110249
-0.140904
-0.179809
-0.151855
-0.157701
-0.152202
-0.656791
-0.640082
-0.585408
-0.515847
-0.430704
-0.345912
-0.258525
-0.172384
-0.0934126
-0.0202839
0.0413342
0.0392461
0.0104181
-0.0843134
-0.124912
-0.114023
-0.186583
-0.132332
-0.147681
-0.140038
-0.677486
-0.6619
-0.609173
-0.540808
-0.458553
-0.375993
-0.290963
-0.207798
-0.132897
-0.0644556
-0.00354701
-0.00175289
-0.0364241
-0.102774
-0.135336
-0.0944464
-0.139368
-0.120857
-0.127318
-0.124468
-0.694222
-0.680296
-0.630165
-0.56381
-0.485269
-0.40474
-0.322418
-0.242427
-0.171129
-0.108267
-0.0487031
-0.0413511
-0.0708222
-0.106054
-0.128704
-0.106996
-0.119528
-0.12037
-0.121173
-0.121477
-0.706229
-0.69443
-0.647524
-0.583601
-0.508811
-0.431105
-0.351912
-0.275405
-0.207291
-0.150538
-0.0928433
-0.0789975
-0.0992666
-0.103166
-0.120085
-0.133288
-0.123223
-0.129651
-0.124951
-0.125818
-0.712038
-0.702663
-0.659988
-0.599414
-0.528402
-0.454058
-0.378403
-0.305486
-0.240368
-0.189303
-0.133344
-0.116337
-0.135687
-0.109374
-0.10119
-0.13164
-0.113858
-0.138772
-0.134073
-0.137355
-0.711663
-0.704416
-0.666014
-0.609182
-0.542268
-0.472112
-0.400556
-0.331459
-0.269474
-0.222605
-0.16897
-0.152537
-0.177228
-0.138551
-0.0473073
-0.0853993
-0.0757752
-0.0959789
-0.102425
-0.111784
-0.704024
-0.696696
-0.663518
-0.612142
-0.55017
-0.484416
-0.417078
-0.351599
-0.292591
-0.248202
-0.198642
-0.188594
-0.212221
-0.231809
-0.190917
-0.245274
-0.254728
-0.248357
-0.243711
-0.240251
-0.684164
-0.675894
-0.650541
-0.606296
-0.550201
-0.489639
-0.426931
-0.364618
-0.307396
-0.263557
-0.21744
-0.208907
-0.274521
-0.434041
-0.716998
-0.853981
-0.892291
-0.862631
-0.790164
-0.731097
-0.64312
-0.635342
-0.625205
-0.592539
-0.543707
-0.488103
-0.429604
-0.369198
-0.311335
-0.26496
-0.220044
-0.194681
-0.301073
-0.50736
-0.762859
-0.861214
-0.848163
-0.773371
-0.711164
-0.677952
-0.600771
-0.597698
-0.596635
-0.571026
-0.530615
-0.481032
-0.425748
-0.365566
-0.303382
-0.249113
-0.196784
-0.126087
-0.0780678
-0.0179626
0.0136219
0.102905
0.209106
0.281126
0.345622
0.397822
-0.577353
-0.578589
-0.569814
-0.552529
-0.518714
-0.471734
-0.416266
-0.354884
-0.285407
-0.212676
-0.139826
0.000424448
0.186544
0.494026
0.795137
1.04542
1.22301
1.32412
1.36762
1.38679
-0.546043
-0.546395
-0.54218
-0.536925
-0.5081
-0.463352
-0.406539
-0.341748
-0.264481
-0.172935
-0.0743536
0.0749183
0.318348
0.666871
1.00915
1.29245
1.49126
1.6082
1.66264
1.6825
-0.525547
-0.524075
-0.526204
-0.520442
-0.497375
-0.455035
-0.397373
-0.328419
-0.246345
-0.144687
-0.0334795
0.0923006
0.338148
0.651198
0.961283
1.22778
1.43014
1.55381
1.60939
1.62561
-0.509544
-0.507912
-0.511471
-0.504341
-0.490729
-0.451132
-0.391668
-0.318825
-0.234014
-0.13047
-0.0201618
0.0723039
0.281721
0.549566
0.809244
1.03426
1.21456
1.32368
1.37207
1.38481
-0.489552
-0.488235
-0.487771
-0.481449
-0.482161
-0.447317
-0.388767
-0.3144
-0.229926
-0.131593
-0.0275317
0.0406942
0.203973
0.428492
0.638357
0.815161
0.958028
1.04545
1.0832
1.09259
-0.489366
-0.487539
-0.483204
-0.482777
-0.482957
-0.446716
-0.387369
-0.312558
-0.230145
-0.141735
-0.0438932
0.0118176
0.130587
0.313918
0.479848
0.613499
0.719665
0.786165
0.814951
0.822321
-0.505378
-0.504467
-0.503678
-0.514425
-0.503943
-0.45673
-0.38811
-0.310122
-0.229704
-0.152392
-0.0608728
-0.0108284
0.0707167
0.215952
0.344494
0.443136
0.519226
0.568122
0.588348
0.592729
-0.52259
-0.524662
-0.5303
-0.537726
-0.522258
-0.465221
-0.385046
-0.303289
-0.224807
-0.15793
-0.0742468
-0.0278281
0.0248753
0.137407
0.234314
0.30548
0.360369
0.396351
0.410304
0.415013
-0.493805
-0.497556
-0.506642
-0.514789
-0.496784
-0.437042
-0.362519
-0.285815
-0.212331
-0.155044
-0.0825932
-0.039527
-0.00641713
0.0793589
0.150781
0.201664
0.242459
0.271105
0.28136
0.284004
-0.384087
-0.389695
-0.398554
-0.404006
-0.392644
-0.354724
-0.30413
-0.248461
-0.188813
-0.142129
-0.0846096
-0.0474658
-0.0249776
0.0413072
0.0925097
0.127966
0.157749
0.176022
0.184362
0.186831
-0.240407
-0.243631
-0.247664
-0.251876
-0.248007
-0.235203
-0.215393
-0.188594
-0.152102
-0.119318
-0.0798148
-0.0503586
-0.0339696
0.0171459
0.0523551
0.0767623
0.0955879
0.106103
0.110335
0.111139
-0.113464
-0.115025
-0.117984
-0.123229
-0.126908
-0.129752
-0.129795
-0.123803
-0.108569
-0.0915506
-0.0688191
-0.0482819
-0.0341667
0.000913819
0.0242556
0.0397463
0.0500328
0.0549065
0.0558066
0.0550995
-0.0239602
-0.0248692
-0.0269238
-0.0332061
-0.0440312
-0.0559034
-0.0652332
-0.0701422
-0.0687695
-0.0646271
-0.0538924
-0.0417921
-0.0307795
-0.00917275
0.00462812
0.0128549
0.017128
0.0177351
0.0165841
0.0153121
0.0268267
0.0260634
0.0242271
0.017865
0.00541107
-0.00979892
-0.0232862
-0.0334553
-0.0388656
-0.0422857
-0.0386262
-0.0327944
-0.026813
-0.0154661
-0.00908993
-0.00615831
-0.00542681
-0.00685222
-0.00897868
-0.0104127
0.0502394
0.0496687
0.0480282
0.042288
0.0309231
0.0160524
0.00176631
-0.0105604
-0.0189953
-0.0258034
-0.0253087
-0.0240291
-0.0229522
-0.0186454
-0.017312
-0.0175074
-0.0189149
-0.0212956
-0.0234548
-0.0248177
0.0573009
0.0568618
0.0555397
0.0508629
0.0414827
0.0287469
0.0156105
0.00312941
-0.00622103
-0.0143912
-0.0152723
-0.0163204
-0.0184761
-0.0181935
-0.0197008
-0.0218298
-0.0244211
-0.0272409
-0.0292809
-0.0305451
0.0557938
0.0554699
0.0544412
0.0508691
0.0436806
0.0336172
0.0225527
0.0111663
0.00213412
-0.00643489
-0.0083456
-0.0102565
-0.0138577
-0.0154142
-0.0182379
-0.0214234
-0.0244994
-0.027226
-0.0290341
-0.0301668
0.0504476
0.0502257
0.0494631
0.0468399
0.0415582
0.0340088
0.0252217
0.0156655
0.00784926
-0.000559866
-0.00325538
-0.00582603
-0.00933099
-0.0112061
-0.0145165
-0.018045
-0.0211716
-0.0235435
-0.0249424
-0.0259286
0.043699
0.0435673
0.0430374
0.0412134
0.0374925
0.0320492
0.0254109
0.0178207
0.0115452
0.0036875
0.000721763
-0.00190977
-0.00482674
-0.00674563
-0.0100019
-0.0132223
-0.0158792
-0.0178004
-0.0187701
-0.0196088
0.0366846
0.0366018
0.0362201
0.0349352
0.0323213
0.0284555
0.0236188
0.0178127
0.0132468
0.00654657
0.00392407
0.0018909
-0.000656142
-0.00291538
-0.00586291
-0.0084237
-0.0104365
-0.0117349
-0.0122517
-0.0129906
0.0301352
0.0300923
0.029856
0.0289912
0.0271536
0.024311
0.0206783
0.016137
0.0130678
0.0078673
0.00605774
0.00465053
0.00240686
0.000270794
-0.00231155
-0.00440657
-0.00586362
-0.00671204
-0.00698564
-0.00763607
0.0240135
0.0239949
0.023838
0.0232821
0.0220872
0.0201352
0.0175141
0.013993
0.0118989
0.00801059
0.00682938
0.00584447
0.00396322
0.00231361
0.000269157
-0.00133561
-0.00240398
-0.00311352
-0.00325697
-0.00379541
0.0183503
0.0183214
0.0182099
0.0178476
0.0170795
0.0158525
0.0141983
0.0117004
0.0103562
0.00737113
0.00652675
0.00580384
0.00418271
0.00283306
0.00128775
0.000537411
-7.21769e-05
-0.000543797
-0.000653747
-0.00114361
0.0134606
0.0134192
0.0133469
0.0131616
0.0127394
0.0119907
0.0109797
0.00922059
0.00848387
0.00605419
0.00550113
0.00483531
0.00337346
0.00263913
0.00172458
0.0014323
0.00125727
0.0010365
0.0010145
0.000565485
0.00917162
0.00913913
0.00909461
0.00898179
0.00877266
0.00838297
0.00784564
0.00656941
0.00636084
0.0043887
0.00413746
0.00353248
0.00214477
0.00192085
0.00138502
0.00136885
0.00148349
0.00143981
0.00142256
0.000984904
0.00533095
0.00529597
0.00528313
0.00524494
0.00514055
0.00488938
0.0047455
0.00388888
0.00413255
0.00249104
0.00264663
0.00230434
0.00122295
0.00122214
0.00072401
0.000573588
0.000561495
0.000532192
0.000627206
0.000324954
0.0020147
0.00200317
0.00202165
0.00204622
0.00202321
0.00183377
0.00187952
0.00130459
0.00172736
0.000631602
0.00122405
0.00143211
0.000874214
0.00115024
-5.38095e-05
-0.0011416
-0.00205792
-0.00269573
-0.00246268
-0.00248699
-1.0737
-0.234499
0.0355383
0.311584
0.492928
0.648622
0.774476
0.902802
1.04406
1.12678
-0.0939892
0.312461
0.328722
0.51683
0.640446
0.751377
0.846813
0.931877
0.959228
0.917259
0.282451
0.496067
0.530945
0.667241
0.752915
0.832529
0.898214
0.947523
0.94957
0.963684
0.51158
0.65431
0.689299
0.790887
0.847714
0.905249
0.949984
0.982289
0.991321
1.01501
0.689274
0.790508
0.820255
0.88773
0.932154
0.97308
1.00516
1.0294
1.03916
1.07075
0.832389
0.901109
0.931414
0.974236
1.01028
1.04037
1.06463
1.08535
1.09946
1.12776
0.951451
1.00197
1.02751
1.05545
1.08308
1.10684
1.12678
1.14601
1.16089
1.18741
1.05517
1.09215
1.11321
1.13384
1.15461
1.17399
1.19138
1.20949
1.22437
1.24803
1.14911
1.17821
1.19454
1.2098
1.2259
1.24195
1.2575
1.27441
1.28803
1.31035
1.23736
1.25781
1.27266
1.28582
1.29938
1.31315
1.32665
1.34124
1.35279
1.37243
1.32278
1.33857
1.35239
1.3642
1.37612
1.38775
1.39889
1.41057
1.41825
1.43505
1.40801
1.42055
1.43426
1.44601
1.45665
1.46645
1.47527
1.48354
1.4871
1.49835
1.49676
1.50757
1.52105
1.53058
1.53815
1.54544
1.55263
1.55912
1.56021
1.56758
1.59517
1.59977
1.60797
1.61272
1.61611
1.6206
1.62659
1.63427
1.63816
1.64804
1.70848
1.69537
1.68809
1.68236
1.67963
1.68098
1.68733
1.69969
1.71451
1.74417
1.83047
1.77443
1.74341
1.72622
1.71799
1.71793
1.72676
1.74636
1.77818
1.84744
)
;

boundaryField
{
    wall-4
    {
        type            zeroGradient;
    }
    pressure-outlet-7
    {
        type            fixedValue;
        value           uniform 0;
    }
    velocity-inlet-6
    {
        type            zeroGradient;
    }
    velocity-inlet-5
    {
        type            zeroGradient;
    }
    frontAndBackPlanes
    {
        type            empty;
    }
}


// ************************************************************************* //
