/*--------------------------------*- C++ -*----------------------------------*\
  =========                 |
  \\      /  F ield         | OpenFOAM: The Open Source CFD Toolbox
   \\    /   O peration     | Website:  https://openfoam.org
    \\  /    A nd           | Version:  10
     \\/     M anipulation  |
\*---------------------------------------------------------------------------*/
FoamFile
{
    format      ascii;
    class       surfaceScalarField;
    location    "54";
    object      phi;
}
// * * * * * * * * * * * * * * * * * * * * * * * * * * * * * * * * * * * * * //

dimensions      [0 3 -1 0 0 0 0];

internalField   nonuniform List<scalar> 
4262
(
0.107141
0.470848
0.0955754
0.705151
0.0694013
0.858477
0.0474232
1.02074
0.031064
1.21488
0.01984
1.44944
0.0124201
1.73328
0.00721268
2.07624
0.00329262
2.48916
-0.000408824
2.98599
-0.00407428
2.98596
-0.00788583
2.48906
-0.0129139
2.07606
-0.0200999
1.73305
-0.031107
1.44923
-0.0472001
1.21461
-0.068954
1.02052
-0.0952145
0.858564
-0.107073
0.705444
0.470915
0.112878
0.35797
0.135302
0.682727
0.1204
0.873379
0.0978065
1.04334
0.0745444
1.23814
0.0528468
1.47114
0.0344596
1.75167
0.0202458
2.09046
0.00892696
2.50048
-0.00122097
2.99614
-0.0113334
2.99607
-0.0225337
2.50026
-0.0366059
2.09014
-0.0548636
1.75131
-0.0765859
1.47095
-0.100248
1.23827
-0.123387
1.04366
-0.136958
0.872135
-0.113542
0.682028
0.357373
0.0920454
0.265924
0.124975
0.649797
0.121117
0.877237
0.104907
1.05955
0.086261
1.25678
0.0671315
1.49027
0.0481881
1.77061
0.0301278
2.10852
0.0135887
2.51702
-0.00228662
3.01202
-0.0179038
3.01169
-0.0339698
2.51632
-0.0515144
2.10768
-0.0699945
1.76979
-0.0883819
1.48934
-0.10567
1.25556
-0.119851
1.05784
-0.125207
0.877491
-0.0923258
0.649147
0.265047
0.0640527
0.201872
0.104946
0.608904
0.106731
0.875452
0.0953327
1.07094
0.0814098
1.27071
0.0666596
1.50502
0.0505395
1.78673
0.0334061
2.12565
0.0157429
2.53468
-0.00295637
3.03072
-0.021545
3.03028
-0.0388214
2.5336
-0.0552884
2.12415
-0.0705936
1.78509
-0.0844884
1.50323
-0.0981991
1.26927
-0.109953
1.06959
-0.107004
0.874543
-0.0648952
0.607038
0.200152
0.0374624
0.164409
0.0806794
0.565687
0.0909866
0.865145
0.0837552
1.07818
0.0711494
1.28331
0.0593186
1.51685
0.0463467
1.79971
0.0314241
2.14057
0.0144443
2.55166
-0.00466849
3.04983
-0.0232165
3.04882
-0.0391353
2.54952
-0.053095
2.13811
-0.0652525
1.79725
-0.0765453
1.51452
-0.0884975
1.28122
-0.0948987
1.07599
-0.0830985
0.862742
-0.0383557
0.562295
0.161796
0.0194831
0.144926
0.0572839
0.527886
0.0727603
0.849669
0.0707222
1.08021
0.0619492
1.29209
0.0510675
1.52773
0.0398564
1.81092
0.0272346
2.1532
0.0122943
2.5666
-0.00525471
3.06738
-0.0226987
3.06627
-0.0370948
2.56391
-0.0486186
2.14963
-0.0586085
1.80724
-0.0684801
1.5244
-0.0761876
1.28893
-0.0770515
1.07686
-0.0599493
0.84564
-0.0203582
0.522704
0.141438
0.0106523
0.134274
0.0424174
0.496121
0.0585377
0.833548
0.0588409
1.07991
0.0527542
1.29817
0.0434601
1.53703
0.033129
1.82125
0.0217542
2.16457
0.00837602
2.57998
-0.0077092
3.08346
-0.0230794
3.08164
-0.0349986
2.57583
-0.0449262
2.15956
-0.053713
1.81603
-0.0615399
1.53222
-0.0660598
1.29345
-0.0641455
1.07494
-0.0458204
0.827315
-0.0116779
0.488562
0.12976
0.00659018
0.127683
0.0330399
0.469672
0.0493661
0.817222
0.0509
1.07838
0.0458158
1.30326
0.0374854
1.54536
0.0278977
1.83084
0.0170386
2.17543
0.00504656
2.59197
-0.00866683
3.09718
-0.022127
3.0951
-0.0330551
2.58676
-0.0422446
2.16875
-0.05003
1.82381
-0.0566534
1.53885
-0.0599007
1.2967
-0.0562665
1.07131
-0.0371659
0.808215
-0.00785883
0.459255
0.121901
0.00475787
0.122926
0.026686
0.447743
0.0425697
0.801338
0.0447391
1.07621
0.0401337
1.30786
0.0324803
1.55301
0.0234051
1.83991
0.0129773
2.18586
0.00129585
2.60366
-0.0118668
3.11034
-0.0238332
3.10706
-0.033516
2.59644
-0.0417126
2.17695
-0.0485037
1.8306
-0.0538977
1.54424
-0.0562459
1.29905
-0.0513548
1.06642
-0.0318231
0.788683
-0.006314
0.433746
0.115587
0.00379747
0.119128
0.021856
0.429685
0.0371141
0.78608
0.0399067
1.07341
0.0355443
1.31222
0.0281963
1.56036
0.0194306
1.84868
0.00937128
2.19592
-0.0018295
2.61486
-0.0137434
3.12225
-0.0250928
3.11841
-0.0344374
2.60579
-0.0419523
2.18446
-0.0481563
1.83681
-0.0530204
1.5491
-0.0542992
1.30032
-0.0479351
1.06005
-0.0280879
0.768836
-0.00570573
0.411363
0.109881
0.00306605
0.116062
0.017615
0.415136
0.0316581
0.772037
0.0347909
1.07028
0.0308094
1.31621
0.0237823
1.56739
0.0153342
1.85712
0.00554647
2.2057
-0.00565082
2.62605
-0.0180347
3.13464
-0.028938
3.12932
-0.0370477
2.6139
-0.0436268
2.19104
-0.0488774
1.84206
-0.0526162
1.55284
-0.0528099
1.30052
-0.0451925
1.05244
-0.0253113
0.748955
-0.00543656
0.391489
0.104445
0.00242201
0.11364
0.0139997
0.403558
0.0267268
0.75931
0.029963
1.06705
0.0260903
1.32008
0.0191654
1.57431
0.0107318
1.86556
0.00101124
2.21542
-0.00973998
2.63681
-0.0212939
3.14619
-0.0317838
3.13981
-0.0399179
2.62203
-0.0457202
2.19684
-0.0500397
1.84638
-0.052791
1.55559
-0.052201
1.29993
-0.0431425
1.04338
-0.0232273
0.729039
-0.0052441
0.373506
0.0992008
0.00172734
0.111913
0.0106347
0.394651
0.0215257
0.748419
0.0242535
1.06432
0.0203416
1.32399
0.0135089
1.58114
0.0051705
1.8739
-0.00438098
2.22498
-0.0152743
2.6477
-0.0271511
3.15807
-0.0371054
3.14976
-0.0436341
2.62856
-0.0483696
2.20158
-0.0519403
1.84995
-0.0537222
1.55738
-0.0523218
1.29853
-0.0420779
1.03313
-0.0219794
0.708941
-0.0051917
0.356718
0.0940091
0.000902603
0.11101
0.00729508
0.388259
0.0166477
0.739066
0.0190393
1.06193
0.0146941
1.32833
0.00737234
1.58847
-0.00118869
1.88246
-0.0108016
2.23459
-0.0212318
2.65813
-0.0322469
3.16908
-0.0413728
3.15889
-0.0475746
2.63476
-0.0515435
2.20555
-0.0542812
1.85269
-0.0551877
1.55828
-0.0527308
1.29607
-0.0413131
1.02172
-0.0210159
0.688644
-0.00509662
0.340799
0.0889125
0.000178884
0.110831
0.004346
0.384091
0.011239
0.732173
0.0123783
1.06079
0.0076946
1.33302
0.000192866
1.59597
-0.00891521
1.89157
-0.0189742
2.24465
-0.0297907
2.66895
-0.0407312
3.18002
-0.0491169
3.16727
-0.0536977
2.63934
-0.0564311
2.20828
-0.0584385
1.85469
-0.0585032
1.55835
-0.0546379
1.2922
-0.041597
1.00867
-0.0207124
0.667759
-0.00513483
0.325221
0.0837776
-0.0007614
0.111593
0.000691188
0.382639
0.0056513
0.727213
0.00622218
1.06022
0.000799659
1.33844
-0.00770366
1.60447
-0.0173844
1.90125
-0.0276597
2.25492
-0.0382378
2.67952
-0.0484436
3.19023
-0.0557885
3.17462
-0.0599884
2.64354
-0.062172
2.21046
-0.063218
1.85574
-0.0623142
1.55744
-0.0570053
1.2869
-0.0423355
0.994004
-0.0208002
0.646224
-0.00526091
0.309682
0.0785167
-0.00159115
0.113184
-0.00235091
0.383399
-0.000251987
0.725114
-0.00181731
1.06178
-0.00798466
1.34461
-0.0167781
1.61326
-0.0271844
1.91165
-0.0386581
2.2664
-0.0503818
2.69125
-0.0607325
3.20058
-0.0674099
3.1813
-0.0704423
2.64657
-0.0711989
2.21122
-0.0707664
1.85531
-0.0681208
1.5548
-0.0607844
1.27956
-0.0440943
0.977314
-0.0214533
0.623583
-0.00549879
0.293727
0.0730179
-0.00296564
0.116149
-0.00609788
0.386531
-0.00755224
0.726568
-0.0103403
1.06457
-0.0175203
1.35179
-0.0276214
1.62337
-0.0389778
1.92301
-0.0509041
2.27832
-0.0625384
2.70288
-0.0724933
3.21053
-0.078322
3.18712
-0.0802326
2.64849
-0.079719
2.21071
-0.0783721
1.85396
-0.0748517
1.55128
-0.0656178
1.27033
-0.0467201
0.958417
-0.0226137
0.599476
-0.00586598
0.276979
0.0671519
-0.00426153
0.120411
-0.010341
0.39261
-0.0152273
0.731455
-0.0211509
1.07049
-0.029655
1.36029
-0.0407408
1.63445
-0.0532732
1.93554
-0.0667667
2.29182
-0.0799065
2.71602
-0.0901561
3.22078
-0.0945001
3.19147
-0.0949026
2.64889
-0.0936779
2.20948
-0.0900821
1.85036
-0.0839103
1.54511
-0.0720468
1.25846
-0.0503464
0.936716
-0.0242514
0.573381
-0.00632125
0.259049
0.0608307
-0.00572793
0.126139
-0.015381
0.402264
-0.0242195
0.740293
-0.0329919
1.07927
-0.0436211
1.37092
-0.0567574
1.64759
-0.0709179
1.9497
-0.0851407
2.30604
-0.0980397
2.72892
-0.107508
3.23025
-0.111135
3.1951
-0.110146
2.6479
-0.106046
2.20538
-0.101538
1.84586
-0.0944967
1.53806
-0.0798934
1.24386
-0.0548517
0.911674
-0.0263231
0.544853
-0.00686123
0.239587
0.0539695
-0.0080008
0.13414
-0.0221303
0.416393
-0.0363185
0.754481
-0.0485206
1.09147
-0.0611791
1.38358
-0.0763603
1.66277
-0.0925277
1.96587
-0.108744
2.32226
-0.123145
2.74332
-0.133108
3.24022
-0.134509
3.1965
-0.130734
2.64412
-0.125383
2.20003
-0.117973
1.83845
-0.107369
1.52746
-0.0892509
1.22574
-0.0603661
0.88279
-0.0287542
0.513241
-0.00744162
0.218275
0.0465278
-0.0104432
0.144583
-0.0293822
0.435332
-0.0496363
0.774735
-0.0666201
1.10845
-0.0824293
1.39939
-0.100332
1.68067
-0.118962
1.9845
-0.136598
2.33989
-0.150784
2.75751
-0.158405
3.24784
-0.158083
3.19618
-0.152399
2.63844
-0.14409
2.19172
-0.134946
1.8293
-0.122457
1.51497
-0.100155
1.20344
-0.0665046
0.84914
-0.0313326
0.478069
-0.0079936
0.194936
0.0385342
-0.0151012
0.159684
-0.0414992
0.46173
-0.0685594
0.801796
-0.0906567
1.13055
-0.110427
1.41916
-0.132237
1.70248
-0.153612
2.00587
-0.172955
2.35924
-0.187303
2.77186
-0.193682
3.25421
-0.189693
3.19219
-0.180552
2.6293
-0.170041
2.18121
-0.157429
1.81669
-0.140082
1.49762
-0.112855
1.17621
-0.0737181
0.810003
-0.0341777
0.438528
-0.00851598
0.169274
0.0300183
-0.0193866
0.179071
-0.0550462
0.49739
-0.0922058
0.838955
-0.121849
1.16019
-0.146881
1.44419
-0.172275
1.72788
-0.195642
2.02924
-0.214835
2.37843
-0.227283
2.7843
-0.229919
3.25685
-0.222668
3.18493
-0.210275
2.61691
-0.195595
2.16653
-0.180211
1.80131
-0.159761
1.47717
-0.126283
1.14273
-0.0805989
0.764319
-0.0365815
0.394511
-0.00871626
0.141409
0.021302
-0.0325028
0.211574
-0.0816193
0.546506
-0.128995
0.886331
-0.165115
1.19631
-0.195671
1.47475
-0.225277
1.75748
-0.249832
2.0538
-0.268833
2.39743
-0.279407
2.79488
-0.277274
3.25472
-0.26337
3.17103
-0.246148
2.59968
-0.229258
2.14964
-0.209746
1.78179
-0.182254
1.44968
-0.141758
1.10224
-0.0887449
0.711305
-0.0390616
0.344828
-0.00871969
0.111067
0.0125823
-0.0469194
0.258493
-0.120337
0.619924
-0.183304
0.949298
-0.227927
1.24093
-0.264415
1.51124
-0.294697
1.78777
-0.316954
2.07605
-0.331143
2.41162
-0.3344
2.79813
-0.325536
3.24585
-0.307565
3.15306
-0.286525
2.57864
-0.263319
2.12643
-0.238898
1.75737
-0.206802
1.41759
-0.156911
1.05235
-0.0940724
0.648467
-0.0395201
0.290275
-0.00860987
0.0801568
0.00397244
-0.0338984
0.292391
-0.0972109
0.683236
-0.155617
1.0077
-0.202716
1.28803
-0.245197
1.55372
-0.283011
1.82558
-0.318074
2.11112
-0.349491
2.44304
-0.373822
2.82247
-0.38514
3.25717
-0.376764
3.14468
-0.357822
2.5597
-0.337203
2.10582
-0.307525
1.72769
-0.258118
1.36818
-0.186568
0.980796
-0.104471
0.566369
-0.0408295
0.226634
-0.0091829
0.0485102
-0.00521046
-0.0128571
0.305249
-0.047906
0.718285
-0.0893574
1.04916
-0.12852
1.3272
-0.167355
1.59255
-0.201599
1.85982
-0.233151
2.14267
-0.259694
2.46958
-0.276477
2.83925
-0.276691
3.25739
-0.263562
3.13155
-0.244722
2.54086
-0.215989
2.07708
-0.18169
1.6934
-0.141526
1.32802
-0.0911314
0.930401
-0.0421268
0.517365
-0.0143941
0.198901
-0.00341756
0.0375336
-0.00862801
7.96683e-05
0.305169
-0.0249133
0.743278
-0.0546067
1.07885
-0.084598
1.35719
-0.115794
1.62375
-0.146068
1.8901
-0.173752
2.17035
-0.196155
2.49198
-0.20964
2.85273
-0.211535
3.25928
-0.197468
3.11749
-0.169908
2.5133
-0.14061
2.04778
-0.107972
1.66076
-0.0690656
1.28911
-0.0306393
0.891974
-0.005391
0.492117
0.000954219
0.192556
9.2731e-05
0.0383951
-0.00853528
0.000728426
0.30444
-0.0125959
0.756602
-0.034073
1.10033
-0.0587451
1.38186
-0.084588
1.64959
-0.109994
1.9155
-0.133182
2.19354
-0.151682
2.51048
-0.16183
2.86288
-0.158445
3.2559
-0.137927
3.09697
-0.111643
2.48702
-0.0824458
2.01859
-0.0495923
1.6279
-0.0202241
1.25974
0.0018797
0.869871
0.0116237
0.482373
0.00823312
0.195947
0.00226381
0.0443644
-0.00627147
0.00394197
0.300498
-0.00554956
0.766094
-0.0235102
1.11829
-0.0440518
1.4024
-0.0655434
1.67108
-0.0869405
1.9369
-0.107076
2.21367
-0.123399
2.52681
-0.132258
2.87174
-0.128279
3.25192
-0.10969
3.07838
-0.0837192
2.46105
-0.052638
1.98751
-0.0247293
1.6
0.00280232
1.23221
0.0217421
0.850931
0.0233272
0.480787
0.0135864
0.205688
0.00385034
0.0541005
-0.00242113
0.00517897
0.295319
-0.000888931
0.772162
-0.0168351
1.13423
-0.0351295
1.42069
-0.054291
1.69024
-0.0732737
1.95588
-0.0910119
2.23141
-0.105167
2.54096
-0.112016
2.87859
-0.106128
3.24603
-0.0878706
3.06012
-0.0629145
2.43609
-0.0364379
1.96103
-0.00739512
1.57095
0.0138834
1.21093
0.0256268
0.839187
0.0252346
0.48118
0.0144983
0.216424
0.00421426
0.0643846
0.00179313
0.00399407
0.291325
-0.000416663
0.776572
-0.0138087
1.14762
-0.030516
1.4374
-0.0477066
1.70743
-0.0648091
1.97299
-0.0809571
2.24756
-0.0939834
2.55399
-0.100872
2.88548
-0.0966216
3.24178
-0.0793996
3.0429
-0.0552773
2.41197
-0.028639
1.93439
-0.00665895
1.54897
0.0140009
1.19027
0.0258178
0.82737
0.0234241
0.483573
0.0136081
0.22624
0.00405367
0.073939
0.0058468
0.00248854
0.288837
-0.00122931
0.78029
-0.013241
1.15964
-0.0281398
1.4523
-0.0442939
1.72359
-0.0603169
1.98901
-0.0755256
2.26277
-0.0883104
2.56677
-0.0955006
2.89267
-0.0916043
3.23788
-0.0750859
3.02638
-0.0531998
2.39008
-0.0316022
1.91279
-0.00749601
1.52487
0.00983705
1.17294
0.0191511
0.818056
0.0189592
0.483765
0.0108598
0.234339
0.00328569
0.0815131
0.00913249
0.000288121
0.288549
-0.00345212
0.78403
-0.0140889
1.17027
-0.0275242
1.46574
-0.0425745
1.73864
-0.0578407
2.00428
-0.0727236
2.27765
-0.0855319
2.57958
-0.0929411
2.90008
-0.0907977
3.23574
-0.0763616
3.01195
-0.0558865
2.36961
-0.0342345
1.89114
-0.016155
1.50679
0.00170463
1.15508
0.0130231
0.806738
0.0126498
0.484139
0.00757962
0.23941
0.00237915
0.0867136
0.0115116
-0.000603314
0.289152
-0.00564361
0.789071
-0.0154384
1.18007
-0.0279085
1.47821
-0.0422907
1.75302
-0.0570948
2.01908
-0.0718204
2.29238
-0.0850005
2.59276
-0.0937767
2.90886
-0.0938637
3.23583
-0.0810358
2.99912
-0.0630255
2.3516
-0.0446733
1.87279
-0.0232991
1.48541
-0.00750819
1.13929
0.00220018
0.79703
0.00558852
0.48075
0.00354886
0.241449
0.00142472
0.0888377
0.0129364
-0.00211175
0.291264
-0.00738303
0.794342
-0.0168809
1.18957
-0.0287526
1.49008
-0.0424165
1.76668
-0.0568336
2.0335
-0.0716027
2.30715
-0.0853147
2.60647
-0.095141
2.91868
-0.0965558
3.23724
-0.0864505
2.98901
-0.0703087
2.33546
-0.0504892
1.85297
-0.0344061
1.46933
-0.0174764
1.12236
-0.00497802
0.784531
-0.00112927
0.476901
-6.5774e-05
0.240386
0.000177513
0.0885944
0.0131139
-0.0035296
0.294793
-0.00921685
0.800029
-0.0183365
1.19869
-0.0297715
1.50151
-0.0430295
1.77994
-0.0571307
2.0476
-0.0719662
2.32198
-0.0864315
2.62094
-0.0979856
2.93024
-0.102202
3.24146
-0.0948596
2.98167
-0.0799935
2.32059
-0.0629983
1.83597
-0.0420806
1.44841
-0.025562
1.10584
-0.0137635
0.772733
-0.00599038
0.469128
-0.00253296
0.236928
-0.000423342
0.0864848
0.0126905
-0.00415567
0.298949
-0.0102871
0.806161
-0.0194643
1.20786
-0.0305427
1.51259
-0.0433121
1.79271
-0.0572237
2.06151
-0.0722889
2.33705
-0.0873934
2.63604
-0.100139
2.94298
-0.106651
3.24797
-0.102515
2.97753
-0.0893164
2.30739
-0.0687276
1.81539
-0.0508872
1.43057
-0.0322886
1.08724
-0.0176858
0.75813
-0.0101185
0.461561
-0.00405397
0.230864
-0.000888277
0.0833191
0.0118023
-0.00440943
0.303359
-0.011266
0.813017
-0.0203445
1.21694
-0.0311557
1.5234
-0.0437044
1.80526
-0.057421
2.07523
-0.0725572
2.35218
-0.0882693
2.65175
-0.102745
2.95746
-0.112462
3.25769
-0.110408
2.97548
-0.0976952
2.29468
-0.0804383
1.79813
-0.0566886
1.40682
-0.0371345
1.06769
-0.0226337
0.743629
-0.011437
0.450364
-0.00481987
0.224247
-0.00103991
0.0795392
0.0107623
-0.00444331
0.307802
-0.0116078
0.820182
-0.0207719
1.22611
-0.0313542
1.53398
-0.0435408
1.81745
-0.0571039
2.08879
-0.0723922
2.36747
-0.0886896
2.66805
-0.10458
2.97335
-0.116803
3.26991
-0.118748
2.97743
-0.107891
2.28382
-0.08543
1.77567
-0.0631335
1.38453
-0.0400957
1.04465
-0.0222983
0.725832
-0.0118326
0.439899
-0.00425447
0.216668
-0.000900517
0.0761852
0.00986182
-0.00456159
0.312363
-0.0120338
0.827654
-0.0209696
1.23504
-0.031334
1.54435
-0.0433587
1.82947
-0.056732
2.10216
-0.0720197
2.38276
-0.0888422
2.68487
-0.106088
2.99059
-0.120906
3.28473
-0.124999
2.98152
-0.115021
2.27384
-0.097354
1.758
-0.0682792
1.35545
-0.0413363
1.01771
-0.0215499
0.706045
-0.00737808
0.425727
-0.00134083
0.210631
0.000442279
0.0744021
0.0103041
-0.00456293
0.316926
-0.0119761
0.835067
-0.0208287
1.24389
-0.0309498
1.55447
-0.0426078
1.84113
-0.0557854
2.11534
-0.0711298
2.3981
-0.08836
2.7021
-0.106723
3.00896
-0.123869
3.30187
-0.132385
2.99003
-0.125564
2.26702
-0.102614
1.73505
-0.0744847
1.32732
-0.0412713
0.984493
-0.0144163
0.67919
0.000211283
0.411099
0.003771
0.207071
-0.00120661
0.0793797
0.00909749
-0.00460161
0.321528
-0.0120414
0.842507
-0.0205539
1.25241
-0.0303825
1.5643
-0.0418229
1.85257
-0.054784
2.1283
-0.0700385
2.41336
-0.0875858
2.71965
-0.106899
3.02827
-0.125924
3.3209
-0.136635
3.00075
-0.132073
2.26246
-0.115531
1.71851
-0.0812769
1.29307
-0.0412866
0.944503
-0.00315841
0.641062
0.0273459
0.380595
0.0384549
0.195962
0.0259181
0.0919165
0.0350156
-0.00447008
0.325998
-0.0116828
0.84972
-0.0200316
1.26076
-0.0295555
1.57382
-0.0405741
1.86359
-0.053269
2.141
-0.0684446
2.42853
-0.086157
2.73736
-0.106205
3.04832
-0.127144
3.34184
-0.141443
3.01504
-0.142079
2.2631
-0.121996
1.69843
-0.0898947
1.26097
-0.0421782
0.896786
0.00641736
0.592466
0.0484848
0.338528
0.047983
0.196464
0.0211345
0.118765
0.05615
-0.00434269
0.330341
-0.0114714
0.856848
-0.0194304
1.26871
-0.0285835
1.58298
-0.0393579
1.87436
-0.0517927
2.15343
-0.0667721
2.44351
-0.0845796
2.75517
-0.105234
3.06897
-0.127577
3.36418
-0.143407
3.03088
-0.147034
2.26672
-0.136552
1.68794
-0.102242
1.22666
-0.0512632
0.845807
0.0213045
0.519899
0.120262
0.23957
0.194274
0.122452
0.182234
0.130806
0.238384
-0.00418559
0.334526
-0.0111168
0.863779
-0.0191031
1.2767
-0.0282816
1.59215
-0.0391693
1.88525
-0.052042
2.1663
-0.0679455
2.45942
-0.0873121
2.77454
-0.110589
3.09225
-0.137366
3.39096
-0.159926
3.05344
-0.17014
2.27694
-0.158768
1.67657
-0.12887
1.19676
-0.070356
0.787293
-0.0135521
0.463095
-0.0665842
0.292603
-0.357117
0.412984
-0.941975
0.715664
0.900352
-1.60394
-0.0040304
0.338557
-0.0108793
0.870628
-0.0185698
1.28439
-0.0275656
1.60115
-0.0384335
1.89612
-0.0514557
2.17933
-0.0677718
2.47573
-0.088109
2.79487
-0.113301
3.11744
-0.143522
3.42118
-0.170232
3.08015
-0.184739
2.29144
-0.191878
1.68371
-0.172298
1.17718
-0.144504
0.759498
-0.237482
0.556073
-0.693268
0.748388
-1.44341
1.16312
-2.05077
1.32303
1.21674
-2.36717
-0.00379275
0.342349
-0.0102916
0.877127
-0.0178385
1.29194
-0.0266794
1.60999
-0.0373636
1.9068
-0.0504402
2.1924
-0.0671518
2.49244
-0.0883553
2.81608
-0.115325
3.14441
-0.149127
3.45498
-0.182693
3.11371
-0.207724
2.31647
-0.215536
1.69152
-0.204025
1.16567
-0.290021
0.845494
-0.753398
1.01945
-1.54586
1.54085
-2.11065
1.7279
-2.34971
1.5621
1.33095
-2.46392
-0.00364558
0.345995
-0.00989388
0.883376
-0.0170649
1.29911
-0.0256525
1.61858
-0.0362391
1.91739
-0.0493985
2.20556
-0.0664225
2.50947
-0.0884757
2.83813
-0.117294
3.17323
-0.154902
3.49259
-0.193945
3.15275
-0.223848
2.34638
-0.250842
1.71852
-0.329964
1.24479
-0.684456
1.19999
-1.43801
1.77301
-2.02736
2.1302
-2.26696
1.96751
-2.38009
1.67523
1.39512
-2.44426
-0.00333594
0.349331
-0.00912706
0.889167
-0.0160652
1.30605
-0.0244309
1.62694
-0.0348362
1.9278
-0.0479621
2.21869
-0.0652336
2.52674
-0.0879801
2.86088
-0.118416
3.20367
-0.159464
3.53364
-0.205931
3.19922
-0.24972
2.39017
-0.29129
1.76009
-0.472022
1.42552
-1.09396
1.82193
-1.7883
2.46734
-2.10854
2.45044
-2.25662
2.11559
-2.33863
1.75723
1.46099
-2.4045
-0.00330455
0.352636
-0.00909758
0.89496
-0.0159131
1.31286
-0.0242839
1.63532
-0.0349893
1.9385
-0.0484735
2.23217
-0.0662794
2.54454
-0.0900266
2.88462
-0.12237
3.23601
-0.167339
3.5786
-0.21998
3.25186
-0.266073
2.43626
-0.355097
1.84911
-0.746657
1.81708
-1.49034
2.56561
-1.96318
2.94018
-2.163
2.65026
-2.26915
2.22175
-2.34622
1.8343
1.52443
-2.40966
-0.00336552
0.356001
-0.00929478
0.900889
-0.0165989
1.32017
-0.0254724
1.64419
-0.0366419
1.94967
-0.0507328
2.24626
-0.0694016
2.56321
-0.0943598
2.90958
-0.128646
3.27029
-0.177277
3.62724
-0.234315
3.3089
-0.296588
2.49853
-0.485448
2.03797
-1.04627
2.3779
-1.67825
3.19759
-1.95352
3.21545
-2.10033
2.79707
-2.21408
2.3355
-2.30758
1.9278
1.58605
-2.3692
-0.0034683
0.359469
-0.00987471
0.907295
-0.0174597
1.32775
-0.0267569
1.65349
-0.038528
1.96144
-0.0533596
2.2611
-0.0729512
2.58281
-0.0992803
2.93591
-0.135668
3.30668
-0.188303
3.67987
-0.251225
3.37182
-0.336819
2.58413
-0.618263
2.31942
-1.26378
3.02342
-1.75267
3.68648
-1.95966
3.42244
-2.09944
2.93685
-2.22309
2.45916
-2.33344
2.03814
1.64461
-2.39199
-0.00339992
0.362869
-0.00988615
0.913782
-0.0181342
1.336
-0.0280831
1.66343
-0.0403699
1.97373
-0.0558419
2.27657
-0.0763446
2.60331
-0.103908
2.96347
-0.142156
3.34493
-0.197601
3.73532
-0.264624
3.43884
-0.389109
2.70861
-0.775527
2.70583
-1.41021
3.6581
-1.76277
4.03905
-1.93557
3.59523
-2.03737
3.03865
-2.12581
2.54759
-2.19294
2.10528
1.63735
-2.18569
-0.00338579
0.366255
-0.0104406
0.920836
-0.0189448
1.3445
-0.0293335
1.67382
-0.0423245
1.98672
-0.0586207
2.29286
-0.0801055
2.62479
-0.10908
2.99245
-0.149324
3.38517
-0.20673
3.79272
-0.285295
3.51741
-0.455245
2.87856
-0.906955
3.15754
-1.46257
4.21372
-1.72424
4.30071
-1.87582
3.74681
-1.96894
3.13178
-1.97025
2.5489
-1.90105
2.03608
1.60169
-1.86539
-0.00315013
0.369405
-0.0100657
0.927752
-0.0193095
1.35375
-0.0303715
1.68489
-0.0437659
2.00011
-0.0604359
2.30953
-0.0823267
2.64668
-0.111614
3.02174
-0.152128
3.42569
-0.208887
3.84948
-0.294205
3.60273
-0.498451
3.08281
-0.988283
3.64738
-1.42952
4.65495
-1.59454
4.46574
-1.66156
3.81383
-1.66596
3.13618
-1.51826
2.4012
-1.01813
1.53596
0.583554
-0.00270676
0.372112
-0.0104278
0.935473
-0.0198477
1.36317
-0.0314286
1.69647
-0.0459296
2.01461
-0.0640528
2.32766
-0.087883
2.67051
-0.12001
3.05386
-0.164656
3.47033
-0.22788
3.91271
-0.330797
3.70564
-0.585148
3.33716
-1.12429
4.18652
-1.48247
5.01313
-1.58159
4.56485
-1.57935
3.81159
-1.47556
3.03239
-1.2365
2.16213
-0.63248
0.931937
-0.0489259
-0.00232807
0.37444
-0.00927609
0.942421
-0.0195658
1.37346
-0.0322021
1.7091
-0.047603
2.03002
-0.0669353
2.34699
-0.092583
2.69616
-0.127262
3.08854
-0.176065
3.51914
-0.245583
3.98222
-0.368133
3.82819
-0.682183
3.65121
-1.24207
4.74641
-1.50296
5.27402
-1.56118
4.62308
-1.53916
3.78957
-1.33715
2.83038
-0.783615
1.6086
-0.109084
0.257406
-0.15801
-0.0016968
0.376137
-0.00920834
0.949933
-0.0193126
1.38356
-0.0322684
1.72206
-0.048696
2.04644
-0.069478
2.36777
-0.0971261
2.72381
-0.134844
3.12626
-0.18752
3.57181
-0.264859
4.05956
-0.413039
3.97637
-0.785694
4.02386
-1.32095
5.28166
-1.49697
5.45004
-1.52827
4.65438
-1.44012
3.70142
-1.10266
2.49293
-0.31373
0.819662
0.0250217
-0.0813459
-0.132988
-0.000449551
0.376586
-0.00656632
0.956049
-0.017537
1.39453
-0.0316746
1.7362
-0.0488843
2.06365
-0.0707583
2.38964
-0.100099
2.75315
-0.140025
3.16619
-0.19546
3.62725
-0.281569
4.14567
-0.456425
4.15123
-0.89447
4.46191
-1.36545
5.75264
-1.48221
5.56679
-1.48482
4.65699
-1.26013
3.47673
-0.687463
1.92026
-0.0625872
0.194786
0.0305458
-0.174479
-0.102442
0.000250966
0.376335
-0.00525343
0.961554
-0.0155573
1.40484
-0.0297003
1.75034
-0.0475845
2.08154
-0.0707974
2.41286
-0.10194
2.78429
-0.144461
3.20871
-0.203027
3.68581
-0.298292
4.24094
-0.499072
4.35201
-0.987083
4.94992
-1.36158
6.12715
-1.42545
5.63066
-1.37915
4.6107
-1.09032
3.1879
-0.32327
1.15321
0.00506305
-0.133547
0.0152948
-0.184711
-0.0871474
0.00332458
0.373011
0.000415568
0.964463
-0.0109954
1.41625
-0.0263938
1.76574
-0.0446641
2.09981
-0.0687383
2.43693
-0.101073
2.81663
-0.14501
3.25264
-0.206125
3.74693
-0.309393
4.3442
-0.536954
4.57957
-1.04967
5.46263
-1.32479
6.40227
-1.36548
5.67134
-1.22582
4.47104
-0.773486
2.73556
-0.0699813
0.449707
0.0451292
-0.248658
0.024705
-0.164287
-0.0624424
0.00473063
0.36828
0.00299196
0.966201
-0.00654061
1.42578
-0.0205158
1.77971
-0.0388168
2.11811
-0.0638857
2.462
-0.0973872
2.85013
-0.143224
3.29848
-0.206896
3.8106
-0.318234
4.45554
-0.575379
4.83672
-1.07019
5.95745
-1.26062
6.5927
-1.27022
5.68093
-1.05097
4.25179
-0.460548
2.14514
-0.0165914
0.00575121
-0.00497447
-0.260274
0.00592186
-0.175183
-0.0565205
0.00866631
0.359614
0.0100271
0.964841
0.00234858
1.43346
-0.0119571
1.79402
-0.0305836
2.13673
-0.055735
2.48715
-0.0893558
2.88375
-0.134985
3.34411
-0.20006
3.87568
-0.317313
4.57279
-0.596111
5.11552
-1.04916
6.4105
-1.17039
6.71393
-1.15602
5.66657
-0.897256
3.99302
-0.264106
1.51199
-0.0703592
-0.187995
-0.0381338
-0.2925
-0.0134307
-0.199886
-0.0699512
0.0117259
0.347888
0.0167833
0.959783
0.012141
1.4381
0.00151478
1.80464
-0.0173496
2.1556
-0.0421361
2.51194
-0.0755213
2.91713
-0.121651
3.39024
-0.187375
3.9414
-0.308721
4.69414
-0.594948
5.40174
-0.980958
6.79651
-1.04995
6.78292
-0.978805
5.59543
-0.680444
3.69466
-0.0764007
0.90795
0.0100988
-0.274495
-0.00484964
-0.277551
-0.00310389
-0.201632
-0.0730551
0.0184708
0.329417
0.0300801
0.948174
0.0282829
1.4399
0.0168995
1.81603
-0.000944646
2.17344
-0.0231911
2.53419
-0.0549302
2.94887
-0.0988184
3.43413
-0.162487
4.00507
-0.282789
4.81444
-0.559798
5.67875
-0.869716
7.10642
-0.904252
6.81745
-0.80747
5.49865
-0.453571
3.34076
0.0569241
0.397455
0.0686318
-0.286203
0.0502332
-0.259153
0.0186832
-0.170082
-0.0543719
0.0244962
0.304921
0.0430977
0.929573
0.0467612
1.43623
0.0401308
1.82266
0.0272348
2.18634
0.00546501
2.55595
-0.0242747
2.97861
-0.0658257
3.47568
-0.126559
4.0658
-0.241313
4.9292
-0.486886
5.92433
-0.709691
7.32923
-0.73888
6.84664
-0.628617
5.38839
-0.305151
3.0173
-0.0056315
0.0979354
0.0160881
-0.307922
0.0315455
-0.27461
0.016335
-0.154871
-0.0380369
0.0349125
0.270008
0.0648958
0.899589
0.0753002
1.42583
0.0714314
1.82653
0.0607954
2.19698
0.0423511
2.5744
0.0162461
3.00472
-0.0206
3.51253
-0.0740098
4.11921
-0.171061
5.02625
-0.369078
6.12234
-0.523395
7.48355
-0.554817
6.87806
-0.457159
5.29073
-0.177276
2.73741
-0.0546612
-0.0246791
-0.0337508
-0.328832
-0.00615833
-0.302203
0.00185994
-0.162889
-0.0361769
0.044418
0.22559
0.0873049
0.856702
0.108214
1.40492
0.113161
1.82158
0.10869
2.20145
0.0945879
2.5885
0.0740887
3.02522
0.043371
3.54324
-0.00597612
4.16856
-0.07796
5.09823
-0.210966
6.25535
-0.294982
7.56756
-0.316261
6.89934
-0.251306
5.22577
-0.0390089
2.52511
-0.06569
0.00200196
-0.0729767
-0.321546
-0.0319024
-0.343277
0.0107682
-0.20556
-0.0254087
0.0571655
0.168425
0.119331
0.794537
0.155064
1.36919
0.166561
1.81008
0.166843
2.20116
0.157865
2.59748
0.144628
3.03845
0.124579
3.56329
0.0935781
4.19956
0.0517259
5.14008
0.00704142
6.30003
-0.0290795
7.60368
-0.0240816
6.89434
-0.054469
5.25616
-0.0570244
2.52767
-0.281375
0.226352
-0.286229
-0.316691
-0.176767
-0.45274
-0.0263562
-0.355971
-0.0517649
0.0598283
0.108597
0.149473
0.704892
0.206437
1.31222
0.234047
1.78247
0.245511
2.1897
0.24466
2.59833
0.239587
3.04353
0.22993
3.57295
0.216766
4.21272
0.20198
5.15487
0.271137
6.23088
0.330532
7.54429
0.28461
6.94027
0.0719978
5.46877
-0.274667
2.87433
-0.642443
0.594128
-0.64043
-0.318704
-0.479835
-0.613335
-0.216761
-0.619044
-0.268526
0.0506501
0.0579466
0.181367
0.574175
0.274508
1.21908
0.31819
1.73879
0.338216
2.16967
0.346668
2.58988
0.349173
3.04102
0.355154
3.56697
0.366588
4.20129
0.395427
5.12603
0.556805
6.0695
0.739801
7.36129
0.763768
6.9163
0.678638
5.5539
0.203725
3.34925
-0.355216
1.15307
-0.66282
-0.0111002
-0.619518
-0.656637
-0.336482
-0.90208
-0.605008
0.035217
0.0227296
0.215511
0.393881
0.340928
1.09366
0.417973
1.66175
0.458198
2.12945
0.481453
2.56662
0.492013
3.03046
0.51057
3.54841
0.545054
4.1668
0.619165
5.05192
0.916507
5.77216
1.37517
6.90263
1.72732
6.56415
1.98115
5.30007
1.67299
3.65741
0.971085
1.85497
0.359243
0.600742
-0.0072637
-0.29013
-0.125775
-0.783568
-0.730783
0.0311499
-0.00842029
0.23468
0.19035
0.435395
0.892951
0.544764
1.55238
0.59657
2.07764
0.630879
2.53232
0.653444
3.0079
0.684475
3.51738
0.746964
4.10432
0.881944
4.91694
1.28391
5.37019
2.01045
6.17609
2.38989
6.18471
2.59545
5.09451
2.43878
3.81408
1.8861
2.40765
1.33315
1.1537
0.764604
0.278415
0.274891
-0.293856
-0.455892
0.0274487
-0.035869
0.170056
0.0477426
0.484826
0.578181
0.672509
1.36469
0.767412
1.98274
0.818058
2.48167
0.856454
2.9695
0.886755
3.48708
0.961881
4.02919
1.10845
4.77037
1.48575
4.99289
2.27256
5.38928
2.64039
5.81688
2.82836
4.90654
2.73168
3.91076
2.25721
2.88212
1.61591
1.795
0.981905
0.912418
0.424375
0.263674
-0.031517
0.00770707
-0.043576
0.0883457
-0.032896
0.410627
0.2559
0.683255
1.09207
0.810078
1.85592
0.847312
2.44443
0.858086
2.95873
0.847975
3.49719
0.847058
4.03011
0.890864
4.72656
1.02248
4.86127
1.42851
4.98326
1.62156
5.62383
1.64412
4.88398
1.56702
3.98786
1.35482
3.09432
1.00101
2.14881
0.634781
1.27864
0.26039
0.638065
0.228873
0.000432946
-0.044009
0.0397033
-0.0721664
0.227573
0.0680302
0.512058
0.807581
0.672951
1.69502
0.726239
2.39115
0.739385
2.94558
0.733878
3.5027
0.71815
4.04584
0.736566
4.70814
0.793817
4.80402
1.0494
4.72768
1.26725
5.40598
1.27406
4.87717
1.21253
4.04939
1.06276
3.24409
0.794883
2.41669
0.496019
1.57751
0.205432
0.928651
0.434306
0.000342755
-0.0443517
0.0228605
-0.0946841
0.105019
-0.014128
0.357272
0.555327
0.51834
1.53396
0.591335
2.31815
0.611384
2.92553
0.612117
3.50197
0.589565
4.06839
0.581097
4.71661
0.606399
4.77872
0.760511
4.57356
0.942702
5.22379
0.940759
4.87911
0.878043
4.11211
0.762093
3.36004
0.578074
2.6007
0.3519
1.80368
0.136821
1.14373
0.571127
-0.00671916
-0.0376326
0.00508122
-0.106484
0.0509161
-0.0599628
0.252517
0.353726
0.394789
1.39168
0.458923
2.25402
0.475732
2.90872
0.480634
3.49707
0.467524
4.0815
0.454677
4.72946
0.455188
4.77821
0.546618
4.48213
0.677376
5.09303
0.674213
4.88227
0.609986
4.17633
0.516362
3.45367
0.386608
2.73046
0.226437
1.96385
0.0785004
1.29167
0.649627
0.0168892
-0.0545218
0.0597433
-0.149339
0.101722
-0.101941
0.197563
0.257885
0.298124
1.29112
0.340634
2.21151
0.350926
2.89843
0.356773
3.49122
0.353516
4.08475
0.344297
4.73868
0.335461
4.78704
0.380543
4.43705
0.46548
5.0081
0.459779
4.88797
0.403578
4.23254
0.332177
3.52507
0.240321