/*--------------------------------*- C++ -*----------------------------------*\
  =========                 |
  \\      /  F ield         | OpenFOAM: The Open Source CFD Toolbox
   \\    /   O peration     | Website:  https://openfoam.org
    \\  /    A nd           | Version:  10
     \\/     M anipulation  |
\*---------------------------------------------------------------------------*/
FoamFile
{
    format      ascii;
    class       volScalarField;
    location    "6.5";
    object      p;
}
// * * * * * * * * * * * * * * * * * * * * * * * * * * * * * * * * * * * * * //

dimensions      [1 -1 -2 0 0 0 0];

internalField   nonuniform List<scalar> 
16128
(
1
1
1
1
1
1
1
1
1
1
1
1
1
1
1
1
1
1
1
1
1
1
1
1
4.96928
10.2934
10.5141
10.609
10.7244
10.8311
10.9343
11.0338
11.1308
11.2238
11.3107
11.3925
11.4714
11.5477
11.619
11.6826
11.7407
11.7972
11.8535
11.904
11.9463
11.9754
11.9939
12.0127
1
1
1
1
1
1
1
1
1
1
1
1
1
1
1
1
1
1
1
1
1
1
1
1
4.88635
10.253
10.5094
10.6056
10.721
10.8275
10.9303
11.0293
11.1255
11.2177
11.3043
11.3862
11.4646
11.5393
11.6088
11.672
11.731
11.7879
11.8427
11.8903
11.9305
11.9589
11.9777
12.0003
1
1
1
1
1
1
1
1
1
1
1
1
1
1
1
1
1
1
1
1
1
1
1
1
4.70928
10.2052
10.4979
10.5942
10.7101
10.8168
10.9199
11.0188
11.1145
11.2063
11.2931
11.3752
11.4528
11.5255
11.5938
11.6578
11.7182
11.7742
11.8252
11.8685
11.9062
11.9347
11.9532
11.9794
1
1
1
1
1
1
1
1
1
1
1
1
1
1
1
1
1
1
1
1
1
1
1
1
4.45144
10.1302
10.4841
10.5801
10.6959
10.8022
10.9047
11.0027
11.0971
11.1877
11.2741
11.356
11.4324
11.5034
11.5707
11.6354
11.6968
11.7519
11.8
11.8396
11.8737
11.9013
11.9178
11.941
1
1
1
1
1
1
1
1
1
1
1
1
1
1
1
1
1
1
1
1
1
1
1
1
4.11948
10.0202
10.4678
10.5626
10.6779
10.7831
10.8844
10.9811
11.0737
11.1626
11.2475
11.3282
11.4034
11.4727
11.5386
11.6025
11.6635
11.7174
11.7634
11.8008
11.8326
11.8602
11.8761
11.8951
1
1
1
1
1
1
1
1
1
1
1
1
1
1
1
1
1
1
1
1
1
1
1
1
3.71744
9.86184
10.4501
10.5435
10.6583
10.7623
10.8625
10.9582
11.0495
11.1365
11.2196
11.2985
11.3721
11.4394
11.5027
11.5639
11.6227
11.6752
11.72
11.7552
11.7813
11.8022
11.809
11.8445
1
1
1
1
1
1
1
1
1
1
1
1
1
1
1
1
1
1
1
1
1
1
1
1
3.26672
9.63056
10.4296
10.519
10.6325
10.7341
10.8325
10.9267
11.0163
11.1012
11.1815
11.2577
11.3294
11.395
11.4561
11.5141
11.5697
11.6199
11.664
11.6994
11.7256
11.7476
11.7265
11.7777
1
1
1
1
1
1
1
1
1
1
1
1
1
1
1
1
1
1
1
1
1
1
1
1
2.78233
9.30937
10.4153
10.4952
10.6051
10.7012
10.7951
10.8856
10.9721
11.0538
11.1311
11.2044
11.2742
11.3384
11.3977
11.4528
11.5053
11.5535
11.5964
11.6299
11.651
11.6688
11.6355
11.6985
1
1
1
1
1
1
1
1
1
1
1
1
1
1
1
1
1
1
1
1
1
1
1
1
2.29003
8.87777
10.4211
10.4736
10.5802
10.6699
10.7603
10.8475
10.9311
11.0094
11.0824
11.1506
11.2157
11.276
11.3313
11.382
11.4296
11.4735
11.5125
11.5427
11.5602
11.575
11.5329
11.6051
1
1
1
1
1
1
1
1
1
1
1
1
1
1
1
1
1
1
1
1
1
1
1
1
1.80038
8.30578
10.4233
10.4477
10.5517
10.6316
10.717
10.801
10.8825
10.9584
11.0282
11.0913
11.1507
11.2054
11.2553
11.3005
11.3423
11.3805
11.4142
11.4402
11.4533
11.4622
11.4126
11.4769
1
1
1
1
1
1
1
1
1
1
1
1
1
1
1
1
1
1
1
1
1
1
1
1
1.34313
7.65496
10.4636
10.4006
10.493
10.5706
10.6589
10.7429
10.8223
10.8966
10.9644
11.0238
11.0775
11.1261
11.1698
11.2087
11.243
11.2726
11.2956
11.3127
11.3182
11.3188
11.2632
11.3322
1
1
1
1
1
1
1
1
1
1
1
1
1
1
1
1
1
1
1
1
1
1
1
1
1.02155
6.86524
10.3134
10.3259
10.4181
10.4991
10.5837
10.6683
10.7504
10.8243
10.89
10.9461
10.9944
11.0363
11.0726
11.1035
11.1279
11.1479
11.1611
11.1707
11.1653
11.15
11.079
11.1318
1
1
1
1
1
1
1
1
1
1
1
1
1
1
1
1
1
1
1
1
1
1
1
1
1.00012
5.84413
10.0997
10.2325
10.3418
10.4381
10.525
10.6015
10.6698
10.7386
10.8019
10.8554
10.8989
10.9341
10.9624
10.984
10.9973
11.0057
11.0023
10.9912
10.9581
10.9202
10.8314
10.8947
1
1
1
1
1
1
1
1
1
1
1
1
1
1
1
1
1
1
1
1
1
1
1
1
0.999999
4.78889
9.82181
10.1416
10.2558
10.3589
10.4403
10.5128
10.5813
10.6431
10.6979
10.7472
10.7865
10.8155
10.8358
10.8475
10.8461
10.8379
10.814
10.7834
10.7303
10.6673
10.5387
10.5171
1
1
1
1
1
1
1
1
1
1
1
1
1
1
1
1
1
1
1
1
1
1
1
1
1
3.69788
9.39771
10.0955
10.2236
10.3137
10.3836
10.4414
10.4927
10.5404
10.5864
10.6284
10.6606
10.683
10.6945
10.6932
10.6762
10.6489
10.5999
10.5365
10.4266
10.2697
10.055
9.99606
1
1
1
1
1
1
1
1
1
1
1
1
1
1
1
1
1
1
1
1
1
1
1
1
1
2.61217
8.73276
10.0889
10.1679
10.2449
10.3129
10.3673
10.4119
10.4485
10.4787
10.5056
10.5277
10.5403
10.5378
10.5222
10.4873
10.4348
10.3496
10.2381
10.0674
9.86569
9.55215
9.50487
1
1
1
1
1
1
1
1
1
1
1
1
1
1
1
1
1
1
1
1
1
1
1
1
1
1.59207
7.93035
10.1723
10.1164
10.1872
10.2445
10.2873
10.3228
10.3523
10.3734
10.3871
10.3946
10.3954
10.3746
10.3414
10.2835
10.2024
10.0785
9.92164
9.66486
9.2956
8.38196
6.35733
1
1
1
1
1
1
1
1
1
1
1
1
1
1
1
1
1
1
1
1
1
1
1
1
1
1.04615
6.75574
10.1154
10.0384
10.0862
10.1456
10.1909
10.2249
10.2491
10.2625
10.2648
10.2576
10.2423
10.205
10.1523
10.069
9.95746
9.79093
9.56785
9.21204
8.59277
7.62094
5.35115
1
1
1
1
1
1
1
1
1
1
1
1
1
1
1
1
1
1
1
1
1
1
1
1
1
1.00011
5.1855
9.64136
9.86404
9.97268
10.0353
10.0828
10.1193
10.1395
10.1475
10.141
10.1195
10.0872
10.0343
9.96212
9.852
9.70871
9.50034
9.21101
8.78528
8.1124
7.0087
5.08441
1
1
1
1
1
1
1
1
1
1
1
1
1
1
1
1
1
1
1
1
1
1
1
1
1
0.999998
3.64734
9.18956
9.85305
9.92494
9.97404
9.99746
10.019
10.0287
10.0288
10.0143
9.97946
9.93072
9.85985
9.7682
9.63504
9.46262
9.21917
8.88371
8.40161
7.71989
6.5949
5.06538
1
1
1
1
1
1
1
1
1
1
1
1
1
1
1
1
1
1
1
1
1
1
1
1
1
1
2.18106
8.37913
9.86476
9.85502
9.8915
9.91465
9.93026
9.9267
9.91448
9.88766
9.84
9.77676
9.68782
9.5759
9.42412
9.22617
8.95668
8.59414
8.09421
7.40817
6.37149
5.17408
1
1
1
1
1
1
1
1
1
1
1
1
1
1
1
1
1
1
1
1
1
1
1
1
1
1
1.14811
7.12384
9.92213
9.82586
9.80692
9.82164
9.826
9.81295
9.79143
9.75518
9.69947
9.62498
9.52081
9.3906
9.22221
9.00278
8.7176
8.34142
7.84869
7.18108
6.27524
5.29523
1
1
1
1
1
1
1
1
1
1
1
1
1
1
1
1
1
1
1
1
1
1
1
1
1
1
1.0019
5.41743
9.40929
9.62418
9.68049
9.70709
9.70902
9.69309
9.66434
9.62021
9.55631
9.47189
9.35691
9.213
9.03116
8.79865
8.50465
8.12532
7.64314
7.02397
6.24566
5.41705
1
1
1
1
1
1
1
1
1
1
1
1
1
1
1
1
1
1
1
1
1
1
1
1
1
1
0.999976
3.44263
8.86042
9.56425
9.61487
9.63151
9.61954
9.59365
9.55386
9.49985
9.42529
9.32975
9.20506
9.0497
8.856
8.61538
8.31838
7.94543
7.47548
6.91409
6.24263
5.52351
1
1
1
1
1
1
1
1
1
1
1
1
1
1
1
1
1
1
1
1
1
1
1
1
1
1
0.999994
1.73773
8.00542
9.62612
9.55404
9.54174
9.51656
9.48232
9.43467
9.37392
9.2921
9.18821
9.05592
8.89305
8.69272
8.44915
8.15486
7.79404
7.34576
6.83414
6.24475
5.62364
1
1
1
1
1
1
1
1
1
1
1
1
1
1
1
1
1
1
1
1
1
1
1
1
1
1
0.999999
1.05474
6.37956
9.39204
9.38173
9.40638
9.3894
9.36345
9.3165
9.25248
9.1662
9.05705
8.91897
8.75077
8.54635
8.30206
8.01222
7.66164
7.24599
6.77671
6.24819
5.70751
1
1
1
1
1
1
1
1
1
1
1
1
1
1
1
1
1
1
1
1
1
1
1
1
1
1
1
1.00008
4.11335
8.86734
9.31053
9.34238
9.31243
9.27499
9.21819
9.14457
9.04992
8.9334
8.79079
8.6191
8.41281
8.17332
7.8869
7.54618
7.16453
6.73583
6.25692
5.78115
1
1
1
1
1
1
1
1
1
1
1
1
1
1
1
1
1
1
1
1
1
1
1
1
1
1
1
0.999998
2.01665
8.11951
9.33654
9.2617
9.21314
9.16926
9.11114
9.03391
8.93489
8.81479
8.66804
8.49799
8.2909
8.05836
7.77315
7.44789
7.09484
6.70211
6.26248
5.83833
1
1
1
1
1
1
1
1
1
1
1
1
1
1
1
1
1
1
1
1
1
1
1
1
1
1
1
1
1.09259
6.3685
9.13861
9.13833
9.10606
9.06738
9.0096
8.92952
8.82712
8.70472
8.55757
8.38534
8.18622
7.95284
7.67822
7.37084
7.04118
6.67515
6.27517
5.8878
1
1
1
1
1
1
1
1
1
1
1
1
1
1
1
1
1
1
1
1
1
1
1
1
1
1
1
1
1.00044
3.81242
8.59734
9.05478
9.02843
9.00026
8.941
8.84931
8.73587
8.60578
8.45512
8.28102
8.08896
7.85479
7.59421
7.30525
6.99592
6.64986
6.28794
5.9252
1
1
1
1
1
1
1
1
1
1
1
1
1
1
1
1
1
1
1
1
1
1
1
1
1
1
1
1
0.999996
1.58936
7.68207
9.18422
9.00377
8.92353
8.8499
8.75014
8.6351
8.50743
8.35925
8.18515
7.99829
7.77313
7.52486
7.25252
6.96042
6.63455
6.30278
5.95914
1
1
1
1
1
1
1
1
1
1
1
1
1
1
1
1
1
1
1
1
1
1
1
1
1
1
1
1
0.999999
1.03055
5.70949
8.75761
8.79185
8.81417
8.74629
8.64712
8.53726
8.41476
8.26927
8.10116
7.91217
7.69999
7.46249
7.20454
6.92642
6.62166
6.31122
5.98606
1
1
1
1
1
1
1
1
1
1
1
1
1
1
1
1
1
1
1
1
1
1
1
1
1
1
1
1
1
0.999943
2.94004
8.09748
8.78634
8.76195
8.67341
8.57797
8.47231
8.34899
8.20095
8.03171
7.8428
7.634
7.4052
7.16101
6.89634
6.6119
6.31851
6.01342
1
1
1
1
1
1
1
1
1
1
1
1
1
1
1
1
1
1
1
1
1
1
1
1
1
1
1
1
1
0.999982
1.26738
6.65003
8.82666
8.68007
8.58613
8.49635
8.39501
8.27336
8.12706
7.96124
7.77819
7.57562
7.35492
7.12047
6.86706
6.59856
6.32008
6.0347
1
1
1
1
1
1
1
1
1
1
1
1
1
1
1
1
1
1
1
1
1
1
1
1
1
1
1
1
1
0.999997
1.00568
4.0555
8.24475
8.51371
8.48617
8.42845
8.33626
8.21537
8.06963
7.90619
7.7262
7.52729
7.31185
7.08293
6.83927
6.58502
6.32186
6.05419
1
1
1
1
1
1
1
1
1
1
1
1
1
1
1
1
1
1
1
1
1
1
1
1
1
1
1
1
1
1
0.999982
1.5824
7.13981
8.64428
8.49323
8.39729
8.28797
8.15693
8.0094
7.84866
7.67298
7.47971
7.27162
7.05022
6.81691
6.57445
6.32473
6.07023
1
1
1
1
1
1
1
1
1
1
1
1
1
1
1
1
1
1
1
1
1
1
1
1
1
1
1
1
1
1
0.999995
1.02795
4.82034
8.24727
8.34185
8.30095
8.20968
8.08879
7.94914
7.79464
7.62398
7.43643
7.23516
7.0209
6.79618
6.56351
6.32534
6.08221
1
1
1
1
1
1
1
1
1
1
1
1
1
1
1
1
1
1
1
1
1
1
1
1
1
1
1
1
1
1
0.999999
1.00002
1.89563
7.36989
8.44944
8.30237
8.18051
8.0506
7.90716
7.75054
7.57934
7.39465
7.19864
6.9921
6.77709
6.55553
6.32876
6.09677
1
1
1
1
1
1
1
1
1
1
1
1
1
1
1
1
1
1
1
1
1
1
1
1
1
1
1
1
1
1
1
1
1.06237
5.2538
8.16981
8.19005
8.10752
7.98933
7.8512
7.69766
7.52989
7.35091
7.16186
6.96486
6.76066
6.54894
6.33199
6.11107
1
1
1
1
1
1
1
1
1
1
1
1
1
1
1
1
1
1
1
1
1
1
1
1
1
1
1
1
1
1
1
1
1.00024
2.14682
7.35461
8.22752
8.08316
7.95345
7.81208
7.65836
7.49251
7.31813
7.13556
6.94582
6.74988
6.54572
6.33661
6.12588
1
1
1
1
1
1
1
1
1
1
1
1
1
1
1
1
1
1
1
1
1
1
1
1
1
1
1
1
1
1
1
1
1
1.097
5.34747
8.04842
8.01229
7.89472
7.7604
7.61091
7.45024
7.28187
7.10609
6.92269
6.73516
6.54067
6.33965
6.13697
1
1
1
1
1
1
1
1
1
1
1
1
1
1
1
1
1
1
1
1
1
1
1
1
1
1
1
1
1
1
1
1
1
1.00071
2.22174
7.18796
8.01975
7.86139
7.72669
7.57649
7.41838
7.25476
7.08574
6.90915
6.72837
6.54195
6.3482
6.15187
1
1
1
1
1
1
1
1
1
1
1
1
1
1
1
1
1
1
1
1
1
1
1
1
1
1
1
1
1
1
1
1
1
1
1.10768
5.15547
7.85627
7.80928
7.67766
7.53286
7.38099
7.22486
7.06378
6.89522
6.71984
6.54008
6.35434
6.16662
1
1
1
1
1
1
1
1
1
1
1
1
1
1
1
1
1
1
1
1
1
1
1
1
1
1
1
1
1
1
1
1
1
1
1.00099
2.13236
6.87225
7.79911
7.63811
7.50305
7.35747
7.20773
7.05169
6.88809
6.71726
6.54272
6.3663
6.18372
1
1
1
1
1
1
1
1
1
1
1
1
1
1
1
1
1
1
1
1
1
1
1
1
1
1
1
1
1
1
1
1
1
1
1
1.09202
4.63292
7.59246
7.59966
7.46861
7.33048
7.18785
7.03615
6.87791
6.71235
6.5465
6.37318
6.19261
1
1
1
1
1
1
1
1
1
1
1
1
1
1
1
1
1
1
1
1
1
1
1
1
1
1
1
1
1
1
1
1
1
1
1
1.00089
1.86964
6.37553
7.59305
7.44728
7.32411
7.18105
7.02768
6.87238
6.71343
6.55287
6.38468
6.19325
1
1
1
1
1
1
1
1
1
1
1
1
1
1
1
1
1
1
1
1
1
1
1
1
1
1
1
1
1
1
1
1
1
1
1
1
1.0558
3.74294
7.23177
7.43475
7.30297
7.16092
7.01212
6.86553
6.71444
6.5543
6.38022
6.22816
1
1
1
1
1
1
1
1
1
1
1
1
1
1
1
1
1
1
1
1
1
1
1
1
1
1
1
1
1
1
1
1
1
1
1
1
1.00051
1.50598
5.69477
7.47776
7.28998
7.15078
7.0097
6.87327
6.72268
6.56321
6.43484
6.5117
1
1
1
1
1
1
1
1
1
1
1
1
1
1
1
1
1
1
1
1
1
1
1
1
1
1
1
1
1
1
1
1
1
1
1
1
1
1.02048
2.78117
6.71389
7.25155
7.1322
7.0165
6.87045
6.72636
6.59877
6.76663
7.44278
1
1
1
1
1
1
1
1
1
1
1
1
1
1
1
1
1
1
1
1
1
1
1
1
1
1
1
1
1
1
1
1
1
1
1
1
1
1.00015
1.21854
4.65773
7.20687
7.17535
7.04154
6.88967
6.79539
7.05654
7.90363
8.64487
1
1
1
1
1
1
1
1
1
1
1
1
1
1
1
1
1
1
1
1
1
1
1
1
1
1
1
1
1
1
1
1
1
1
1
1
1
1
1.00469
1.95856
6.00492
7.17018
7.00268
6.90814
7.29502
8.3225
9.16074
9.30838
1
1
1
1
1
1
1
1
1
1
1
1
1
1
1
1
1
1
1
1
1
1
1
1
1
1
1
1
1
1
1
1
1
1
1
1
1
1
1.00002
1.06751
3.32924
6.75585
6.93234
7.5938
8.85345
9.62674
9.70811
9.43447
1
1
1
1
1
1
1
1
1
1
1
1
1
1
1
1
1
1
1
1
1
1
1
1
1
1
1
1
1
1
1
1
1
1
1
1
1
1
1
1.00084
1.37222
4.79714
7.43127
9.5093
10.2084
10.197
9.85536
9.43666
1
1
1
1
1
1
1
1
1
1
1
1
1
1
1
1
1
1
1
1
1
1
1
1
1
1
1
1
1
1
1
1
1
1
1
1
1
1
1
1
1.01197
2.14647
8.54509
10.9217
10.6226
10.2427
9.83916
9.49756
1
1
1
1
1
1
1
1
1
1
1
1
1
1
1
1
1
1
1
1
1
1
1
1
1
1
1
1
1
1
1
1
1
1
1
1
1
1
1
1
1.00011
1.46367
8.87631
11.1816
10.6029
10.1637
9.82839
9.55291
1
1
1
1
1
1
1
1
1
1
1
1
1
1
1
1
1
1
1
1
1
1
1
1
1
1
1
1
1
1
1
1
1
1
1
1
1
1
1
1
1
1.43448
8.06987
10.7216
10.2449
10.0311
9.83032
9.6405
1
1
1
1
1
1
1
1
1
1
1
1
1
1
1
1
1
1
1
1
1
1
1
1
1
1
1
1
1
1
1
1
1
1
1
1
1
1
1
1
1
1.2542
7.44357
10.5262
10.2096
10.119
9.97082
9.83803
1
1
1
1
1
1
1
1
1
1
1
1
1
1
1
1
1
1
1
1
1
1
1
1
1
1
1
1
1
1
1
1
1
1
1
1
1
1
1
1
1
1.01961
6.67235
10.2886
10.1542
10.0851
9.97499
9.87507
1
1
1
1
1
1
1
1
1
1
1
1
1
1
1
1
1
1
1
1
1
1
1
1
1
1
1
1
1
1
1
1
1
1
1
1
1
1
1
1
1
1.00023
5.71448
10.0718
10.134
10.0879
10.0001
9.91262
1
1
1
1
1
1
1
1
1
1
1
1
1
1
1
1
1
1
1
1
1
1
1
1
1
1
1
1
1
1
1
1
1
1
1
1
1
1
1
1
1
1
4.81986
9.85793
10.1377
10.0676
10.0089
9.93371
1
1
1
1
1
1
1
1
1
1
1
1
1
1
1
1
1
1
1
1
1
1
1
1
1
1
1
1
1
1
1
1
1
1
1
1
1
1
1
1
1
1
3.96346
9.57672
10.1579
10.0874
10.036
9.94725
1
1
1
1
1
1
1
1
1
1
1
1
1
1
1
1
1
1
1
1
1
1
1
1
1
1
1
1
1
1
1
1
1
1
1
1
1
1
1
1
1
1
3.15393
9.24732
10.2269
10.1196
10.0533
9.96525
1
1
1
1
1
1
1
1
1
1
1
1
1
1
1
1
1
1
1
1
1
1
1
1
1
1
1
1
1
1
1
1
1
1
1
1
1
1
1
1
1
1
2.40867
8.85085
10.3402
10.1656
10.0832
9.98887
1
1
1
1
1
1
1
1
1
1
1
1
1
1
1
1
1
1
1
1
1
1
1
1
1
1
1
1
1
1
1
1
1
1
1
1
1
1
1
1
1
1
1.78433
8.401
10.4061
10.2058
10.1096
10.0117
1
1
1
1
1
1
1
1
1
1
1
1
1
1
1
1
1
1
1
1
1
1
1
1
1
1
1
1
1
1
1
1
1
1
1
1
1
1
1
1
1
1
1.40101
7.86138
10.4374
10.2303
10.123
10.0247
1
1
1
1
1
1
1
1
1
1
1
1
1
1
1
1
1
1
1
1
1
1
1
1
1
1
1
1
1
1
1
1
1
1
1
1
1
1
1
1
1
1
1.18949
7.34808
10.3927
10.2247
10.134
10.0481
1
1
1
1
1
1
1
1
1
1
1
1
1
1
1
1
1
1
1
1
1
1
1
1
1
1
1
1
1
1
1
1
1
1
1
1
1
1
1
1
1
1
1.01558
6.80043
10.3479
10.251
10.1604
10.0732
1
1
1
1
1
1
1
1
1
1
1
1
1
1
1
1
1
1
1
1
1
1
1
1
1
1
1
1
1
1
1
1
1
1
1
1
1
1
1
1
1
1
1.00014
6.24232
10.2481
10.2571
10.1546
10.0791
1
1
1
1
1
1
1
1
1
1
1
1
1
1
1
1
1
1
1
1
1
1
1
1
1
1
1
1
1
1
1
1
1
1
1
1
1
1
1
1
1
1
1
5.68478
10.1671
10.2629
10.1579
10.0918
1
1
1
1
1
1
1
1
1
1
1
1
1
1
1
1
1
1
1
1
1
1
1
1
1
1
1
1
1
1
1
1
1
1
1
1
1
1
1
1
1
1
1
5.1552
10.1006
10.2832
10.1701
10.1052
1
1
1
1
1
1
1
1
1
1
1
1
1
1
1
1
1
1
1
1
1
1
1
1
1
1
1
1
1
1
1
1
1
1
1
1
1
1
1
1
1
1
1
4.67542
10.0222
10.3072
10.1844
10.1175
1
1
1
1
1
1
1
1
1
1
1
1
1
1
1
1
1
1
1
1
1
1
1
1
1
1
1
1
1
1
1
1
1
1
1
1
1
1
1
1
1
1
1
4.26025
9.92744
10.3311
10.2005
10.1314
1
1
1
1
1
1
1
1
1
1
1
1
1
1
1
1
1
1
1
1
1
1
1
1
1
1
1
1
1
1
1
1
1
1
1
1
1
1
1
1
1
1
1
3.91307
9.81888
10.3524
10.2165
10.146
1
1
1
1
1
1
1
1
1
1
1
1
1
1
1
1
1
1
1
1
1
1
1
1
1
1
1
1
1
1
1
1
1
1
1
1
1
1
1
1
1
1
1
3.62607
9.70439
10.3707
10.2303
10.1588
1
1
1
1
1
1
1
1
1
1
1
1
1
1
1
1
1
1
1
1
1
1
1
1
1
1
1
1
1
1
1
1
1
1
1
1
1
1
1
1
1
1
1
3.38826
9.59305
10.3865
10.2417
10.1701
1
1
1
1
1
1
1
1
1
1
1
1
1
1
1
1
1
1
1
1
1
1
1
1
1
1
1
1
1
1
1
1
1
1
1
1
1
1
1
1
1
1
1
3.19861
9.49148
10.3983
10.2492
10.1779
1
1
1
1
1
1
1
1
1
1
1
1
1
1
1
1
1
1
1
1
1
1
1
1
1
1
1
1
1
1
1
1
1
1
1
1
1
1
1
1
1
1
1
3.05374
9.40705
10.4076
10.2535
10.1824
1
1
1
1
1
1
1
1
1
1
1
1
1
1
1
1
1
1
1
1
1
1
1
1
1
1
1
1
1
1
1
1
1
1
1
1
1
1
1
1
1
1
1
2.93123
9.34564
10.4213
10.2643
10.1931
1
1
1
1
1
1
1
1
1
1
1
1
1
1
1
1
1
1
1
1
1
1
1
1
1
1
1
1
1
1
1
1
1
1
1
1
1
1
1
1
1
1
1
2.83935
9.30496
10.4303
10.2695
10.1949
1
1
1
1
1
1
1
1
1
1
1
1
1
1
1
1
1
1
1
1
1
1
1
1
1
1
1
1
1
1
1
1
1
1
1
1
1
1
1
1
1
1
1
2.81476
9.27633
10.4343
10.2729
10.1977
1.2611
0.203823
0.0148638
0.0189411
0.0431517
0.0793366
0.11298
0.154491
0.214949
0.276099
0.336247
0.405723
0.449132
0.502378
0.592696
0.68928
0.787669
0.893699
0.940942
0.947561
0.948275
0.956769
0.998403
1.06348
1.08187
1.10239
1.11082
1.07554
1.06017
1.07736
1.14936
1.23642
1.2761
1.28874
1.26107
1.19094
1.16884
1.68069
4.26539
5.21726
5.26998
5.25826
5.28424
5.41115
5.49237
5.50741
5.47506
5.45571
5.46407
5.49287
5.5181
5.5175
5.50698
5.51105
5.54064
5.57689
5.59456
5.58232
5.5534
5.52939
5.52673
5.54524
5.56941
5.58085
5.56902
5.53111
5.48629
5.45166
5.43216
5.4216
5.41268
5.39996
5.38023
5.35372
5.32264
5.2896
5.25729
5.2288
5.20628
5.18874
5.17232
5.1533
5.13051
5.1056
5.08057
5.05559
5.02931
5.00079
4.97085
4.94175
4.91536
4.89151
4.8673
4.83961
4.80713
4.77221
4.7382
4.70767
4.68172
4.65953
4.63809
4.61432
4.58575
4.55215
4.5157
4.48009
4.44854
4.42195
4.39806
4.37233
4.34183
4.3071
4.27059
4.23506
4.20199
4.17109
4.14194
4.11373
4.08485
4.05478
4.02454
3.99417
3.96263
3.92984
3.89599
3.86156
3.82681
3.79159
3.7568
3.72336
3.69209
3.66342
3.63598
3.60757
3.57755
3.54684
3.51635
3.48602
3.45545
3.42457
3.39395
3.36485
3.33771
3.31092
3.28282
3.25368
3.22392
3.19375
3.16402
3.13624
3.11136
3.08871
3.06788
3.04879
3.02996
3.01002
2.98775
2.96232
2.93389
2.90249
2.86866
2.83605
2.8084
2.7864
2.7717
2.75895
2.74348
2.72402
2.70125
2.67456
2.64537
2.61942
2.59792
2.58326
2.57296
2.55953
2.54181
2.52194
2.49994
2.47661
2.45443
2.43486
2.41723
2.40246
2.3908
2.37899
2.36459
2.34739
2.32349
2.29426
2.26904
2.24175
2.0923
0.956131
0.405237
0.252661
0.216336
0.165296
0.139736
0.144636
0.173417
0.202908
0.218783
0.253449
0.344585
0.407475
0.455139
0.497264
0.542444
0.626961
0.72309
0.780383
0.834091
0.897567
0.95857
0.993356
1.01395
1.03701
1.06016
1.0877
1.11148
1.1388
1.164
1.17034
1.17161
1.177
1.18637
1.21976
1.24074
1.38247
3.64893
5.10194
5.25399
5.31099
5.34335
5.41454
5.48681
5.52655
5.51591
5.47036
5.45471
5.45835
5.48872
5.5209
5.53563
5.53511
5.53397
5.54142
5.55477
5.56657
5.57189
5.56974
5.56305
5.5555
5.54898
5.54364
5.53843
5.52835
5.50651
5.47658
5.44801
5.42352
5.40252
5.38476
5.36828
5.34816
5.32135
5.29015
5.25906
5.23179
5.21024
5.19351
5.17806
5.15932
5.13457
5.10515
5.07494
5.04723
5.0226
4.99911
4.97417
4.94651
4.91661
4.88578
4.85599
4.82852
4.8024
4.7755
4.74734
4.71869
4.68969
4.66006
4.63046
4.60141
4.57221
4.54217
4.51108
4.47998
4.45049
4.42298
4.39636
4.36952
4.34086
4.30865
4.27326
4.23648
4.20041
4.16655
4.13495
4.10518
4.07768
4.05119
4.02283
3.99125
3.95673
3.9215
3.88626
3.85195
3.81998
3.79109
3.7622
3.7316
3.69933
3.66435
3.62897
3.59643
3.56549
3.53635
3.50925
3.48396
3.45709
3.42907
3.39998
3.36746
3.3329
3.30205
3.27438
3.24748
3.22086
3.19448
3.16717
3.13757
3.10883
3.08506
3.06368
3.0441
3.02424
3.00315
2.97968
2.9526
2.92306
2.89405
2.86775
2.84355
2.81883
2.79349
2.77177
2.75343
2.73429
2.71235
2.68861
2.66482
2.64261
2.62213
2.60352
2.58731
2.5723
2.55809
2.54218
2.5191
2.49257
2.46942
2.44997
2.43301
2.41903
2.40732
2.39594
2.38424
2.36828
2.33935
2.30807
2.28481
2.26715
2.24557
2.80877
1.73107
1.06135
0.751632
0.61125
0.496073
0.345839
0.280272
0.281686
0.292475
0.299392
0.305618
0.33426
0.369965
0.369378
0.36407
0.37003
0.410389
0.502546
0.611376
0.70072
0.782067
0.852682
0.906976
0.94724
0.992422
1.03828
1.09742
1.14994
1.16468
1.15719
1.14385
1.14488
1.16979
1.22677
1.26715
1.26747
1.28127
2.5825
5.15438
5.62235
5.57301
5.51678
5.47524
5.47705
5.51844
5.5417
5.52175
5.47595
5.45034
5.44681
5.48267
5.53834
5.5741
5.57277
5.55126
5.5287
5.52654
5.54958
5.58309
5.60204
5.58844
5.55371
5.51808
5.49591
5.49616
5.50588
5.49965
5.4696
5.43097
5.39313
5.36276
5.34375
5.33129
5.31521
5.29173
5.26504
5.23923
5.21619
5.19595
5.17691
5.15657
5.13205
5.10288
5.07314
5.04725
5.02599
5.00606
4.98262
4.95313
4.91825
4.88102
4.84564
4.81543
4.79169
4.77029
4.74657
4.71995
4.6914
4.66112
4.62994
4.59815
4.56662
4.53635
4.50783
4.48006
4.45212
4.42408
4.39686
4.37146
4.34503
4.31274
4.27819
4.2421
4.2035
4.16593
4.1318
4.10005
4.07347
4.05064
4.02293
3.98965
3.95426
3.91597
3.87903
3.84678
3.81826
3.79446
3.76969
3.74157
3.7106
3.67348
3.63083
3.5898
3.55712
3.52956
3.50504
3.48264
3.45842
3.43365
3.40632
3.3733
3.33531
3.29884
3.26905
3.24362
3.21964
3.19566
3.16992
3.14158
3.11226
3.08535
3.06232
3.04135
3.02043
2.99808
2.97285
2.94464
2.91653
2.89289
2.87325
2.85327
2.83011
2.80177
2.77085
2.74469
2.72237
2.70082
2.67997
2.66084
2.64452
2.62963
2.61343
2.59498
2.5761
2.55699
2.53445
2.50829
2.48373
2.46404
2.44933
2.43773
2.42659
2.41477
2.40146
2.3836
2.35567
2.32109
2.29515
2.27971
2.26912
2.25219
3.42088
2.48432
1.80947
1.2603
1.01183
0.884099
0.75057
0.619592
0.482294
0.423185
0.425499
0.434914
0.425587
0.42307
0.42164
0.413775
0.399913
0.394037
0.405308
0.440225
0.50026
0.567475
0.640014
0.732041
0.828298
0.889554
0.95068
1.02048
1.08336
1.1102
1.10825
1.10775
1.12902
1.17165
1.22551
1.24422
1.24455
1.24115
1.63953
4.98189
6.15536
5.83894
5.68111
5.58301
5.52984
5.52773
5.54909
5.55595
5.53562
5.50368
5.48148
5.48673
5.5248
5.5744
5.59635
5.57758
5.54934
5.53594
5.54301
5.56577
5.59091
5.5914
5.56003
5.52687
5.50705
5.50136
5.50385
5.497
5.46201
5.41964
5.38426
5.36121
5.34694
5.33589
5.32074
5.2962
5.26638
5.23754
5.21146
5.18852
5.16841
5.15067
5.13319
5.11096
5.08309
5.05324
5.02436
4.99582
4.96434
4.93023
4.89589
4.86345
4.8352
4.81318
4.79497
4.77739
4.75729
4.7316
4.70111
4.66776
4.63178
4.59412
4.55871
4.52647
4.49866
4.4737
4.44846
4.42223
4.39629
4.3701
4.33994
4.30825
4.27606
4.2412
4.20241
4.16259
4.12711
4.09705
4.07077
4.04496
4.01419
3.98122
3.94654
3.91152
3.87957
3.85119
3.82514
3.79881
3.77123
3.74096
3.70609
3.66758
3.62816
3.59034
3.55669
3.52924
3.50507
3.48132
3.45767
3.43305
3.40525
3.37276
3.33603
3.29875
3.26637
3.2399
3.21602
3.19218
3.16742
3.1415
3.11462
3.08776
3.06222
3.03822
3.01463
2.99003
2.96381
2.93706
2.91345
2.89455
2.87695
2.85827
2.83684
2.80892
2.77114
2.73322
2.70779
2.69002
2.67594
2.66437
2.65427
2.64325
2.62891
2.60883
2.5777
2.53988
2.51064
2.49161
2.47828
2.46833
2.46145
2.45394
2.44319
2.42831
2.40291
2.36373
2.3265
2.30461
2.29322
2.2861
2.28058
2.26603
3.94297
3.05644
2.39215
1.91091
1.5273
1.19173
1.04708
0.951425
0.820875
0.665835
0.593714
0.588617
0.586392
0.578636
0.561294
0.531014
0.486965
0.448789
0.445347
0.456769
0.478182
0.494644
0.508798
0.53461
0.588654
0.638068
0.699245
0.78747
0.888945
0.994938
1.04315
1.07964
1.11171
1.14547
1.19302
1.20688
1.21997
1.25345
1.40889
4.27786
6.40695
6.11095
5.82724
5.73677
5.68803
5.6283
5.57533
5.54449
5.53586
5.5304
5.52371
5.52008
5.52662
5.55192
5.57426
5.57771
5.57383
5.5594
5.5457
5.53939
5.55392
5.56841
5.56373
5.54281
5.51589
5.49159
5.47036
5.46139
5.44936
5.42937
5.40893
5.38651
5.35617
5.3237
5.29547
5.27329
5.25217
5.23092
5.21031
5.18848
5.16568
5.14348
5.12271
5.10132
5.07419
5.04285
5.01011
4.97818
4.94579
4.91497
4.88784
4.86854
4.85779
4.84867
4.83121
4.80239
4.76826
4.72899
4.68525
4.64393
4.60857
4.57782
4.55079
4.52656
4.5033
4.47831
4.45091
4.42242
4.3933
4.36322
4.33268
4.30208
4.26955
4.23362
4.19626
4.16125
4.1295
4.09813
4.06639
4.0354
4.00434
3.97344
3.94405
3.91648
3.88942
3.86002
3.82772
3.79324
3.75828
3.72356
3.68996
3.65865
3.62975
3.60079
3.56954
3.53655
3.50492
3.47663
3.45055
3.42477
3.39804
3.36925
3.33712
3.3013
3.26546
3.23498
3.20951
3.18614
3.16352
3.14093
3.11721
3.0912
3.06357
3.03635
3.01025
2.98455
2.95866
2.93337
2.91083
2.89181
2.87413
2.85619
2.8372
2.81254
2.77347
2.72766
2.69923
2.68419
2.67232
2.66289
2.65655
2.64733
2.63432
2.61319
2.57313
2.52603
2.49965
2.4868
2.47717
2.4709
2.46659
2.45706
2.44524
2.42825
2.39406
2.34808
2.31703
2.30268
2.29357
2.28621
2.28076
2.27641
4.32731
3.53057
2.85145
2.39231
2.01705
1.6416
1.34371
1.19826
1.10018
0.981629
0.839108
0.752085
0.736364
0.726487
0.711093
0.683479
0.639767
0.581652
0.53757
0.524596
0.528606
0.54209
0.541614
0.549508
0.551805
0.546639
0.546144
0.56591
0.617362
0.710039
0.831664
0.947513
1.04086
1.08404
1.11424
1.13379
1.19653
1.35895
1.59852
3.07583
6.17844
6.30868
6.02413
5.86053
5.81754
5.73939
5.65125
5.58856
5.58081
5.59182
5.57942
5.54726
5.53233
5.54905
5.58016
5.59493
5.58818
5.56082
5.54376
5.54417
5.56129
5.56882
5.55312
5.51838
5.48209
5.46242
5.45547
5.46304
5.46515
5.44541
5.41235
5.36858
5.32846
5.29931
5.28279
5.2771
5.26739
5.24605
5.21649
5.17993
5.14892
5.12443
5.1055
5.09218
5.07498
5.0493
5.01596
4.97894
4.94753
4.92042
4.90112
4.89375
4.88584
4.86395
4.83207
4.78718
4.73079
4.68293
4.64905
4.62258
4.60577
4.59493
4.57762
4.55008
4.51446
4.47653
4.44139
4.40955
4.38
4.35099
4.32107
4.28866
4.25326
4.21839
4.18836
4.16134
4.13331
4.10147
4.0647
4.028
3.9981
3.97154
3.94661
3.92258
3.89529
3.86413
3.82587
3.78163
3.74124
3.70909
3.6828
3.65916
3.63587
3.61087
3.58228
3.54767
3.50855
3.47156
3.44036
3.41371
3.3889
3.36316
3.33441
3.30131
3.26561
3.23269
3.20567
3.18291
3.16187
3.14078
3.1182
3.09288
3.06478
3.03576
3.00797
2.98189
2.95701
2.93308
2.9107
2.89104
2.87393
2.85764
2.83811
2.8103
2.77246
2.73242
2.70516
2.69045
2.681
2.67549
2.66815
2.65502
2.63628
2.60387
2.55795
2.52124
2.5054
2.49567
2.48877
2.48362
2.47379
2.4615
2.44374
2.41062
2.37035
2.34028
2.32591
2.31562
2.30675
2.2978
2.28975
2.31295
4.61782
3.90137
3.26983
2.79084
2.39081
2.04996
1.73863
1.47088
1.32388
1.24054
1.14554
1.03124
0.902002
0.849187
0.841147
0.82349
0.788958
0.742657
0.686252
0.642806
0.635003
0.638413
0.628546
0.600608
0.590084
0.584446
0.564943
0.557503
0.560876
0.575631
0.609398
0.672759
0.755918
0.849751
0.941934
1.05309
1.24286
1.54084
1.81739
2.22646
4.49726
6.12529
6.26651
6.05238
5.90022
5.77174
5.68098
5.60695
5.58755
5.57695
5.56415
5.55866
5.56701
5.58414
5.59715
5.58937
5.56338
5.5608
5.57
5.57647
5.56709
5.54992
5.52367
5.50225
5.4917
5.48962
5.48918
5.47767
5.45511
5.42759
5.39436
5.35701
5.33088
5.31646
5.31034
5.29577
5.26889
5.23583
5.19575
5.16236
5.14017
5.12674
5.12081
5.10948
5.08545
5.05324
5.01252
4.97082
4.93922
4.91431
4.89879
4.88594
4.86242
4.83237
4.79204
4.74426
4.69949
4.66665
4.64435
4.63447
4.63044
4.61129
4.58012
4.53938
4.49174
4.45066
4.41975
4.39308
4.36795
4.34077
4.31026
4.27404
4.23658
4.20778
4.18404
4.16147
4.13505
4.10388
4.06537
4.02452
3.99188
3.96505
3.93973
3.91448
3.88714
3.8574
3.81917
3.77397
3.7332
3.70186
3.67652
3.65361
3.63096
3.60783
3.58285
3.55232
3.5145
3.47376
3.43533
3.4016
3.37331
3.34908
3.32467
3.29698
3.26643
3.23533
3.2062
3.18044
3.15734
3.13518
3.11287
3.08972
3.06434
3.03604
3.00688
2.9796
2.95507
2.93244
2.91061
2.88915
2.86832
2.84766
2.82459
2.7974
2.76987
2.746
2.72335
2.69974
2.67953
2.66442
2.65094
2.63605
2.61601
2.5861
2.55075
2.52746
2.51213
2.50066
2.49232
2.48541
2.47566
2.45976
2.43135
2.39024
2.35329
2.33788
2.32867
2.3217
2.3135
2.30833
2.30611
2.4083
4.83645
4.18059
3.61624
3.1607
2.71574
2.34937
2.1028
1.85673
1.60334
1.43165
1.36526
1.29035
1.18902
1.08026
0.963158
0.901909
0.885008
0.867554
0.834166
0.786249
0.74151
0.733383
0.725881
0.699046
0.664704
0.650794
0.638814
0.612886
0.595185
0.594284
0.600008
0.609921
0.622832
0.646438
0.707296
0.896678
1.19299
1.53526
1.80559
1.91905
2.56463
5.04911
6.2991
6.21809
6.00877
5.85345
5.76585
5.66637
5.59538
5.57453
5.59631
5.61776
5.61845
5.61281
5.58414
5.56155
5.56964
5.58445
5.58857
5.57992
5.55885
5.53183
5.51745
5.51186
5.51425
5.50606
5.48414
5.45783
5.4298
5.40213
5.38017
5.36622
5.35496
5.33616
5.30908
5.28079
5.24782
5.2096
5.18196
5.16176
5.15177
5.14448
5.12517
5.09836
5.06595
5.02869
4.98993
4.96006
4.93554
4.91857
4.90273
4.87667
4.84784
4.81463
4.77339
4.73458
4.70678
4.68572
4.67222
4.65658
4.63008
4.59748
4.55741
4.51119
4.47112
4.44117
4.41637
4.39627
4.37199
4.34363
4.30972
4.26899
4.23365
4.20738
4.18386
4.15892
4.13188
4.10063
4.06348
4.02549
3.99045
3.95863
3.93086
3.90525
3.87873
3.84757
3.81117
3.77437
3.74109
3.70924
3.67871
3.65199
3.62842
3.60424
3.57731
3.54686
3.51269
3.47721
3.43979
3.4017
3.3671
3.33745
3.31247
3.28964
3.26569
3.23909
3.21029
3.18187
3.15671
3.13496
3.1142
3.09153
3.06548
3.03671
3.00725
2.97958
2.95498
2.93256
2.91052
2.8877
2.864
2.84017
2.81652
2.79322
2.77408
2.75789
2.73884
2.7134
2.68461
2.65958
2.63838
2.61661
2.59304
2.57087
2.5577
2.54614
2.53244
2.51689
2.50095
2.48524
2.46439
2.43901
2.40819
2.3767
2.36083
2.35087
2.34231
2.33417
2.32646
2.33094
2.36602
2.62918
5.0271
4.42221
3.90203
3.47288
3.03813
2.6547
2.39067
2.16764
1.94995
1.74767
1.55509
1.44715
1.39365
1.31703
1.19368
1.04811
0.982512
0.972666
0.963255
0.9345
0.884258
0.837677
0.817647
0.793473
0.750244
0.727689
0.720737
0.705897
0.677416
0.662096
0.653171
0.646757
0.656695
0.702476
0.838745
1.02918
1.16544
1.29414
1.46742
1.55785
1.62773
2.66885
5.54759
6.24667
6.04792
5.90576
5.82174
5.72366
5.63766
5.5997
5.61606
5.64987
5.64653
5.63141
5.59
5.56323
5.56227
5.58134
5.58669
5.57473
5.55146
5.53056
5.51953
5.52142
5.52127
5.50248
5.47517
5.43883
5.40842
5.3859
5.37786
5.38056
5.36158
5.33255
5.29925
5.26132
5.22614
5.20046
5.18131
5.17263
5.16236
5.13945
5.11158
5.07833
5.03889
5.00418
4.97837
4.95826
4.9471
4.93413
4.9084
4.87639
4.83865
4.7985
4.7653
4.74036
4.72087
4.70547
4.68177
4.65044
4.61429
4.57434
4.53242
4.4951
4.46749
4.4466
4.43024
4.40783
4.37986
4.34715
4.30764
4.26982
4.23887
4.20931
4.17943
4.14974
4.12038
4.0895
4.05753
4.02616
3.99374
3.95934
3.92436
3.8896
3.85543
3.82396
3.79773
3.7734
3.74884
3.72081
3.6871
3.6489
3.61031
3.57559
3.54677
3.52217
3.5004
3.47624
3.44654
3.41027
3.36968
3.33287
3.30285
3.27818
3.25649
3.23501
3.21131
3.18505
3.15807
3.1315
3.10617
3.08164
3.05735
3.03277
3.00718
2.98011
2.95292
2.9277
2.90491
2.8836
2.86163
2.83279
2.80306
2.7888
2.77774
2.764
2.74619
2.7229
2.69309
2.6573
2.62223
2.59613
2.57674
2.56469
2.55683
2.55267
2.54266
2.52735
2.50384
2.4715
2.44021
2.41351
2.39001
2.37667
2.36989
2.36422
2.35484
2.34821
2.35015
2.4036
2.56676
2.93823
5.17316
4.62188
4.15274
3.73641
3.31081
2.97525
2.70437
2.41899
2.18737
2.03005
1.85425
1.66284
1.51679
1.45299
1.38038
1.27109
1.14774
1.07972
1.06941
1.06236
1.02841
0.966748
0.910556
0.878253
0.839789
0.799979
0.792427
0.78787
0.76571
0.73985
0.740324
0.755173
0.790722
0.90812
1.10553
1.22963
1.29995
1.32887
1.34348
1.35722
1.37392
1.45381
3.099
5.5293
5.89965
5.92553
5.85322
5.75674
5.67211
5.6279
5.63509
5.66734
5.67128
5.65082
5.60819
5.57667
5.56604
5.57317
5.58031
5.5681
5.54909
5.53277
5.52241
5.52534
5.5216
5.49698
5.46058
5.42124
5.39438
5.37584
5.3739
5.37557
5.3532
5.31933
5.27844
5.24324
5.21691
5.19701
5.18878
5.18054
5.15837
5.13053
5.09674
5.05709
5.02039
4.99292
4.97284
4.96478
4.95902
4.93816
4.90954
4.87286
4.8268
4.78655
4.75924
4.7365
4.72109
4.70248
4.67436