/*--------------------------------*- C++ -*----------------------------------*\
  =========                 |
  \\      /  F ield         | OpenFOAM: The Open Source CFD Toolbox
   \\    /   O peration     | Website:  https://openfoam.org
    \\  /    A nd           | Version:  10
     \\/     M anipulation  |
\*---------------------------------------------------------------------------*/
FoamFile
{
    format      ascii;
    class       volScalarField;
    location    "6.5";
    object      T;
}
// * * * * * * * * * * * * * * * * * * * * * * * * * * * * * * * * * * * * * //

dimensions      [0 0 0 1 0 0 0];

internalField   nonuniform List<scalar> 
16128
(
1
1
1
1
1
1
1
1
1
1
1
1
1
1
1
1
1
1
1
1
1
1
1
1
2.07295
2.68732
2.70338
2.71011
2.71844
2.72633
2.73409
2.74158
2.74871
2.75527
2.76114
2.76654
2.77183
2.77711
2.78216
2.78667
2.79068
2.79446
2.79818
2.80154
2.80446
2.80656
2.80795
2.80926
1
1
1
1
1
1
1
1
1
1
1
1
1
1
1
1
1
1
1
1
1
1
1
1
2.06155
2.68452
2.70317
2.70995
2.71826
2.72611
2.73383
2.74127
2.74833
2.75483
2.76068
2.7661
2.77136
2.77653
2.78146
2.78594
2.79001
2.79381
2.79743
2.80061
2.80338
2.80545
2.80687
2.80844
1
1
1
1
1
1
1
1
1
1
1
1
1
1
1
1
1
1
1
1
1
1
1
1
2.03418
2.68013
2.70235
2.7092
2.71754
2.72538
2.73308
2.74048
2.74749
2.75396
2.75984
2.7653
2.77052
2.77557
2.78043
2.78497
2.78913
2.79287
2.79623
2.79911
2.80171
2.8038
2.80526
2.80709
1
1
1
1
1
1
1
1
1
1
1
1
1
1
1
1
1
1
1
1
1
1
1
1
1.99241
2.6723
2.70078
2.70786
2.71631
2.72416
2.7318
2.73912
2.74603
2.75245
2.75835
2.76385
2.76905
2.77402
2.77883
2.78341
2.78765
2.79134
2.79451
2.79714
2.7995
2.80157
2.80293
2.80459
1
1
1
1
1
1
1
1
1
1
1
1
1
1
1
1
1
1
1
1
1
1
1
1
1.9358
2.6604
2.69793
2.70548
2.71426
2.7222
2.72983
2.73705
2.74385
2.7502
2.7561
2.76165
2.76687
2.7718
2.77654
2.7811
2.78533
2.78895
2.792
2.79452
2.79678
2.79886
2.8002
2.80158
1
1
1
1
1
1
1
1
1
1
1
1
1
1
1
1
1
1
1
1
1
1
1
1
1.86115
2.64263
2.69353
2.70206
2.71143
2.71961
2.7273
2.7345
2.74124
2.74754
2.75347
2.75909
2.76438
2.7693
2.77394
2.77835
2.78245
2.786
2.78902
2.79147
2.79342
2.79505
2.79575
2.79823
1
1
1
1
1
1
1
1
1
1
1
1
1
1
1
1
1
1
1
1
1
1
1
1
1.76807
2.61717
2.68794
2.69751
2.70751
2.71593
2.7237
2.73088
2.73755
2.74382
2.74977
2.75546
2.76088
2.76588
2.77049
2.77474
2.77867
2.78212
2.78514
2.78771
2.7898
2.79155
2.79024
2.79371
1
1
1
1
1
1
1
1
1
1
1
1
1
1
1
1
1
1
1
1
1
1
1
1
1.65702
2.58494
2.68264
2.69236
2.70273
2.71114
2.71883
2.72588
2.73245
2.73866
2.74466
2.7505
2.75615
2.76134
2.76602
2.7702
2.77401
2.7774
2.78042
2.78296
2.7848
2.7863
2.78413
2.78838
1
1
1
1
1
1
1
1
1
1
1
1
1
1
1
1
1
1
1
1
1
1
1
1
1.52421
2.54068
2.67822
2.68645
2.69713
2.70535
2.71307
2.72016
2.72677
2.733
2.73904
2.74494
2.7507
2.756
2.76071
2.7648
2.76842
2.77164
2.77451
2.77693
2.77861
2.77995
2.77718
2.78208
1
1
1
1
1
1
1
1
1
1
1
1
1
1
1
1
1
1
1
1
1
1
1
1
1.35985
2.47289
2.67352
2.67918
2.68976
2.69754
2.7054
2.71281
2.71975
2.72622
2.73242
2.73842
2.74426
2.74963
2.75436
2.75836
2.76182
2.76483
2.76749
2.76977
2.77125
2.77223
2.76896
2.77333
1
1
1
1
1
1
1
1
1
1
1
1
1
1
1
1
1
1
1
1
1
1
1
1
1.16792
2.39243
2.67521
2.67202
2.6801
2.68773
2.69618
2.70413
2.71144
2.71821
2.72465
2.73077
2.73668
2.74212
2.74687
2.75083
2.75409
2.75678
2.75894
2.76075
2.7618
2.76232
2.75871
2.76344
1
1
1
1
1
1
1
1
1
1
1
1
1
1
1
1
1
1
1
1
1
1
1
1
1.0094
2.31287
2.67087
2.66984
2.67526
2.68124
2.68828
2.6957
2.70298
2.70969
2.71603
2.72209
2.72792
2.73331
2.73801
2.7419
2.74492
2.74735
2.74915
2.75056
2.75078
2.75049
2.74604
2.7496
1
1
1
1
1
1
1
1
1
1
1
1
1
1
1
1
1
1
1
1
1
1
1
1
1.00004
2.19994
2.66956
2.67055
2.67496
2.6802
2.68554
2.69074
2.69583
2.7014
2.70705
2.71262
2.71806
2.72318
2.72772
2.73149
2.73434
2.73638
2.73716
2.73735
2.73592
2.73422
2.72853
2.73283
1
1
1
1
1
1
1
1
1
1
1
1
1
1
1
1
1
1
1
1
1
1
1
1
1
2.04951
2.6536
2.66924
2.67372
2.67848
2.68239
2.68627
2.69034
2.69432
2.69834
2.70272
2.70725
2.71175
2.71599
2.71946
2.72167
2.72297
2.72264
2.72183
2.71937
2.71622
2.70699
2.70404
1
1
1
1
1
1
1
1
1
1
1
1
1
1
1
1
1
1
1
1
1
1
1
1
1
1.85282
2.604
2.66136
2.67035
2.67666
2.68093
2.68389
2.68624
2.68841
2.69078
2.69347
2.69639
2.69974
2.70317
2.70572
2.70698
2.70733
2.70589
2.70309
2.6968
2.68688
2.67074
2.66415
1
1
1
1
1
1
1
1
1
1
1
1
1
1
1
1
1
1
1
1
1
1
1
1
1
1.59577
2.50511
2.63922
2.65623
2.66729
2.67465
2.67922
2.68206
2.68371
2.68458
2.68533
2.68641
2.68799
2.68952
2.69062
2.69046
2.68936
2.6858
2.67983
2.66907
2.65594
2.63661
2.64073
1
1
1
1
1
1
1
1
1
1
1
1
1
1
1
1
1
1
1
1
1
1
1
1
1
1.25372
2.37771
2.62217
2.63474
2.6496
2.66091
2.66877
2.67406
2.67717
2.6782
2.67797
2.6775
2.67726
2.67615
2.6751
2.67292
2.66959
2.6633
2.6542
2.637
2.61064
2.54475
2.39924
1
1
1
1
1
1
1
1
1
1
1
1
1
1
1
1
1
1
1
1
1
1
1
1
1
1.01886
2.27152
2.62435
2.6213
2.62866
2.64016
2.65128
2.66021
2.66639
2.66934
2.66937
2.66838
2.66657
2.66337
2.65981
2.65487
2.64866
2.63884
2.6246
2.59949
2.55215
2.47661
2.26967
1
1
1
1
1
1
1
1
1
1
1
1
1
1
1
1
1
1
1
1
1
1
1
1
1
1.00005
2.09704
2.60553
2.6084
2.61421
2.62214
2.63209
2.6423
2.65068
2.65646
2.6585
2.65772
2.65542
2.65106
2.64533
2.63731
2.62765
2.61374
2.59373
2.56238
2.50918
2.41378
2.21093
1
1
1
1
1
1
1
1
1
1
1
1
1
1
1
1
1
1
1
1
1
1
1
1
1
0.999999
1.83315
2.56143
2.60935
2.61175
2.61494
2.61926
2.62583
2.63301
2.63996
2.64422
2.64433
2.64259
2.63798
2.6309
2.62047
2.60742
2.58946
2.56456
2.52734
2.4714
2.36734
2.19687
1
1
1
1
1
1
1
1
1
1
1
1
1
1
1
1
1
1
1
1
1
1
1
1
1
1
1.45517
2.44115
2.60267
2.60503
2.60813
2.61042
2.61395
2.61768
2.62274
2.62719
2.62847
2.62741
2.62328
2.61584
2.60423
2.58851
2.56715
2.53842
2.49791
2.43923
2.33998
2.2071
1
1
1
1
1
1
1
1
1
1
1
1
1
1
1
1
1
1
1
1
1
1
1
1
1
1
1.05931
2.29361
2.601
2.59817
2.59963
2.60189
2.60354
2.60442
2.60648
2.60918
2.61064
2.61001
2.60652
2.59946
2.58775
2.57059
2.54724
2.51586
2.47395
2.41446
2.32604
2.21826
1
1
1
1
1
1
1
1
1
1
1
1
1
1
1
1
1
1
1
1
1
1
1
1
1
1
1.00076
2.11237
2.56451
2.5783
2.58652
2.59119
2.59287
2.59261
2.59237
2.59252
2.59239
2.59129
2.58786
2.58126
2.57013
2.55309
2.52928
2.49688
2.45422
2.39698
2.31951
2.22907
1
1
1
1
1
1
1
1
1
1
1
1
1
1
1
1
1
1
1
1
1
1
1
1
1
1
0.999993
1.77271
2.49694
2.56085
2.57471
2.58076
2.58263
2.58236
2.58107
2.57918
2.57669
2.57366
2.56911
2.56218
2.55138
2.53519
2.51226
2.48071
2.43844
2.38519
2.31708
2.23858
1
1
1
1
1
1
1
1
1
1
1
1
1
1
1
1
1
1
1
1
1
1
1
1
1
1
0.999998
1.29337
2.36283
2.55286
2.55741
2.56442
2.56835
2.56959
2.56863
2.56625
2.56234
2.55736
2.55103
2.54292
2.53186
2.51642
2.49504
2.46562
2.42569
2.37686
2.31673
2.24879
1
1
1
1
1
1
1
1
1
1
1
1
1
1
1
1
1
1
1
1
1
1
1
1
1
1
1
1.02204
2.21372
2.53528
2.5367
2.54401
2.5492
2.55343
2.55408
2.55265
2.54885
2.54298
2.5351
2.52541
2.51326
2.49775
2.47749
2.45012
2.41423
2.37015
2.31661
2.25788
1
1
1
1
1
1
1
1
1
1
1
1
1
1
1
1
1
1
1
1
1
1
1
1
1
1
1
1.00005
1.89469
2.48687
2.52406
2.53304
2.53473
2.53772
2.53896
2.53809
2.5349
2.52907
2.52061
2.50976
2.49636
2.48043
2.46025
2.43423
2.40249
2.36352
2.31609
2.26539
1
1
1
1
1
1
1
1
1
1
1
1
1
1
1
1
1
1
1
1
1
1
1
1
1
1
1
1
1.38275
2.3687
2.51758
2.51711
2.5186
2.52088
2.52234
2.52182
2.51936
2.51433
2.50619
2.49541
2.48127
2.46496
2.44402
2.41901
2.39028
2.3558
2.3137
2.26982
1
1
1
1
1
1
1
1
1
1
1
1
1
1
1
1
1
1
1
1
1
1
1
1
1
1
1
1
1.03677
2.19937
2.49959
2.50097
2.5023
2.50453
2.50585
2.50526
2.50302
2.49867
2.49146
2.48119
2.46781
2.45096
2.43013
2.40595
2.379
2.34724
2.31014
2.27147
1
1
1
1
1
1
1
1
1
1
1
1
1
1
1
1
1
1
1
1
1
1
1
1
1
1
1
1
1.0002
1.82398
2.43932
2.48465
2.48792
2.49123
2.4919
2.49042
2.48735
2.48274
2.47596
2.4664
2.45427
2.43758
2.41772
2.39461
2.36893
2.33869
2.30562
2.27046
1
1
1
1
1
1
1
1
1
1
1
1
1
1
1
1
1
1
1
1
1
1
1
1
1
1
1
1
0.999999
1.22906
2.29905
2.48551
2.47635
2.47714
2.47669
2.47432
2.47084
2.46636
2.46003
2.45104
2.44009
2.42482
2.40638
2.38473
2.36033
2.33175
2.30142
2.26848
1
1
1
1
1
1
1
1
1
1
1
1
1
1
1
1
1
1
1
1
1
1
1
1
1
1
1
1
1
1.01211
2.11272
2.45256
2.45489
2.46176
2.46004
2.45747
2.45438
2.45025
2.44412
2.43581
2.42517
2.41166
2.39482
2.37493
2.35201
2.32536
2.29696
2.26583
1
1
1
1
1
1
1
1
1
1
1
1
1
1
1
1
1
1
1
1
1
1
1
1
1
1
1
1
1
1
1.62659
2.36267
2.4451
2.44933
2.44681
2.44412
2.44091
2.4364
2.42985
2.42136
2.41085
2.39805
2.38259
2.36461
2.34347
2.31911
2.29256
2.26352
1
1
1
1
1
1
1
1
1
1
1
1
1
1
1
1
1
1
1
1
1
1
1
1
1
1
1
1
1
0.999997
1.10464
2.19894
2.44209
2.43305
2.43144
2.42971
2.42682
2.42216
2.41541
2.40692
2.39675
2.38451
2.37005
2.35349
2.33399
2.31178
2.28722
2.26056
1
1
1
1
1
1
1
1
1
1
1
1
1
1
1
1
1
1
1
1
1
1
1
1
1
1
1
1
1
0.999999
1.00225
1.84929
2.38219
2.4092
2.41326
2.41497
2.41344
2.40923
2.40254
2.39404
2.38386
2.37173
2.35771
2.34183
2.32371
2.30348
2.2811
2.25687
1
1
1
1
1
1
1
1
1
1
1
1
1
1
1
1
1
1
1
1
1
1
1
1
1
1
1
1
1
1
0.999997
1.22111
2.22518
2.4105
2.40233
2.40209
2.40003
2.39559
2.38916
2.38106
2.37117
2.35932
2.34574
2.33044
2.31344
2.29471
2.2742
2.25197
1
1
1
1
1
1
1
1
1
1
1
1
1
1
1
1
1
1
1
1
1
1
1
1
1
1
1
1
1
1
0.999999
1.01087
1.96475
2.37282
2.38255
2.38368
2.38255
2.37963
2.3747
2.36778
2.35867
2.3474
2.33431
2.31953
2.30322
2.2855
2.26641
2.24581
1
1
1
1
1
1
1
1
1
1
1
1
1
1
1
1
1
1
1
1
1
1
1
1
1
1
1
1
1
1
1
1.00002
1.32421
2.23205
2.38026
2.37319
2.36988
2.36597
2.36082
2.35414
2.34557
2.33504
2.32269
2.30868
2.29324
2.27655
2.25866
2.23942
1
1
1
1
1
1
1
1
1
1
1
1
1
1
1
1
1
1
1
1
1
1
1
1
1
1
1
1
1
1
1
1
1.02419
2.01703
2.35053
2.35873
2.35537
2.351
2.34575
2.33926
2.33127
2.32168
2.31041
2.29763
2.28341
2.26775
2.25087
2.23285
1
1
1
1
1
1
1
1
1
1
1
1
1
1
1
1
1
1
1
1
1
1
1
1
1
1
1
1
1
1
1
1
1.0001
1.39817
2.21996
2.3501
2.34273
2.33813
2.33253
2.32577
2.31785
2.30889
2.29862
2.2869
2.2738
2.25912
2.24317
2.2263
1
1
1
1
1
1
1
1
1
1
1
1
1
1
1
1
1
1
1
1
1
1
1
1
1
1
1
1
1
1
1
1
1
1.03768
2.0184
2.32881
2.32845
2.3237
2.31828
2.3117
2.30406
2.29552
2.28597
2.27515
2.26323
2.24986
2.23504
2.21924
1
1
1
1
1
1
1
1
1
1
1
1
1
1
1
1
1
1
1
1
1
1
1
1
1
1
1
1
1
1
1
1
1
1.00027
1.41616
2.19829
2.31883
2.31002
2.30511
2.29874
2.29134
2.28312
2.27411
2.26401
2.25296
2.24072
2.227
2.21221
1
1
1
1
1
1
1
1
1
1
1
1
1
1
1
1
1
1
1
1
1
1
1
1
1
1
1
1
1
1
1
1
1
1
1.04178
1.98506
2.29945
2.29805
2.29167
2.28507
2.27802
2.27042
2.26209
2.25272
2.24227
2.23087
2.21824
2.20468
1
1
1
1
1
1
1
1
1
1
1
1
1
1
1
1
1
1
1
1
1
1
1
1
1
1
1
1
1
1
1
1
1
1
1.00037
1.3887
2.1603
2.28768
2.27807
2.27256
2.26611
2.25904
2.25111
2.24214
2.23211
2.22128
2.20975
2.19697
1
1
1
1
1
1
1
1
1
1
1
1
1
1
1
1
1
1
1
1
1
1
1
1
1
1
1
1
1
1
1
1
1
1
1
1.03558
1.89988
2.25929
2.26824
2.26109
2.25435
2.24756
2.2399
2.23137
2.22181
2.21181
2.20065
2.18816
1
1
1
1
1
1
1
1
1
1
1
1
1
1
1
1
1
1
1
1
1
1
1
1
1
1
1
1
1
1
1
1
1
1
1
1.00032
1.30833
2.09724
2.25646
2.24848
2.244
2.23747
2.22963
2.22127
2.21225
2.20276
2.19178
2.17845
1
1
1
1
1
1
1
1
1
1
1
1
1
1
1
1
1
1
1
1
1
1
1
1
1
1
1
1
1
1
1
1
1
1
1
1
1.02138
1.73763
2.19467
2.24105
2.23298
2.22604
2.21867
2.21116
2.20288
2.19337
2.18135
2.17324
1
1
1
1
1
1
1
1
1
1
1
1
1
1
1
1
1
1
1
1
1
1
1
1
1
1
1
1
1
1
1
1
1
1
1
1
1.00017
1.18743
2.00484
2.22916
2.21861
2.2138
2.20813
2.20214
2.19413
2.18394
2.18029
2.19157
1
1
1
1
1
1
1
1
1
1
1
1
1
1
1
1
1
1
1
1
1
1
1
1
1
1
1
1
1
1
1
1
1
1
1
1
1
1.00767
1.53224
2.11235
2.20464
2.19902
2.19627
2.19066
2.18364
2.17961
2.20074
2.26766
1
1
1
1
1
1
1
1
1
1
1
1
1
1
1
1
1
1
1
1
1
1
1
1
1
1
1
1
1
1
1
1
1
1
1
1
1
1.00005
1.08302
1.86346
2.18378
2.19063
2.18609
2.17897
2.18093
2.21108
2.29093
2.3566
1
1
1
1
1
1
1
1
1
1
1
1
1
1
1
1
1
1
1
1
1
1
1
1
1
1
1
1
1
1
1
1
1
1
1
1
1
1
1.00167
1.32446
2.02182
2.17723
2.1669
2.16859
2.21147
2.30682
2.37746
2.39885
1
1
1
1
1
1
1
1
1
1
1
1
1
1
1
1
1
1
1
1
1
1
1
1
1
1
1
1
1
1
1
1
1
1
1
1
1
1
1.00001
1.02553
1.63577
2.11432
2.14096
2.21222
2.32164
2.38417
2.40203
2.38773
1
1
1
1
1
1
1
1
1
1
1
1
1
1
1
1
1
1
1
1
1
1
1
1
1
1
1
1
1
1
1
1
1
1
1
1
1
1
1
1.00027
1.13752
1.87286
2.16767
2.33988
2.39493
2.4023
2.38852
2.36825
1
1
1
1
1
1
1
1
1
1
1
1
1
1
1
1
1
1
1
1
1
1
1
1
1
1
1
1
1
1
1
1
1
1
1
1
1
1
1
1
1.00438
1.37019
2.25905
2.44382
2.42553
2.40319
2.37927
2.36008
1
1
1
1
1
1
1
1
1
1
1
1
1
1
1
1
1
1
1
1
1
1
1
1
1
1
1
1
1
1
1
1
1
1
1
1
1
1
1
1
1.00003
1.22861
2.46125
2.54726
2.4872
2.43183
2.39458
2.36958
1
1
1
1
1
1
1
1
1
1
1
1
1
1
1
1
1
1
1
1
1
1
1
1
1
1
1
1
1
1
1
1
1
1
1
1
1
1
1
1
1
1.22994
2.46769
2.61289
2.55566
2.49911
2.45008
2.41163
1
1
1
1
1
1
1
1
1
1
1
1
1
1
1
1
1
1
1
1
1
1
1
1
1
1
1
1
1
1
1
1
1
1
1
1
1
1
1
1
1
1.13869
2.41775
2.67484
2.63502
2.59411
2.54526
2.49906
1
1
1
1
1
1
1
1
1
1
1
1
1
1
1
1
1
1
1
1
1
1
1
1
1
1
1
1
1
1
1
1
1
1
1
1
1
1
1
1
1
1.00902
2.31741
2.69153
2.67453
2.65227
2.6203
2.58357
1
1
1
1
1
1
1
1
1
1
1
1
1
1
1
1
1
1
1
1
1
1
1
1
1
1
1
1
1
1
1
1
1
1
1
1
1
1
1
1
1
1.00007
2.18905
2.68355
2.6822
2.67484
2.66021
2.64035
1
1
1
1
1
1
1
1
1
1
1
1
1
1
1
1
1
1
1
1
1
1
1
1
1
1
1
1
1
1
1
1
1
1
1
1
1
1
1
1
1
1
2.05152
2.65822
2.68197
2.67606
2.66971
2.66027
1
1
1
1
1
1
1
1
1
1
1
1
1
1
1
1
1
1
1
1
1
1
1
1
1
1
1
1
1
1
1
1
1
1
1
1
1
1
1
1
1
1
1.90238
2.61799
2.67887
2.67411
2.67002
2.66224
1
1
1
1
1
1
1
1
1
1
1
1
1
1
1
1
1
1
1
1
1
1
1
1
1
1
1
1
1
1
1
1
1
1
1
1
1
1
1
1
1
1
1.73815
2.57235
2.6719
2.66533
2.66256
2.65743
1
1
1
1
1
1
1
1
1
1
1
1
1
1
1
1
1
1
1
1
1
1
1
1
1
1
1
1
1
1
1
1
1
1
1
1
1
1
1
1
1
1
1.54961
2.51745
2.66388
2.65276
2.65054
2.64688
1
1
1
1
1
1
1
1
1
1
1
1
1
1
1
1
1
1
1
1
1
1
1
1
1
1
1
1
1
1
1
1
1
1
1
1
1
1
1
1
1
1
1.34504
2.45738
2.65885
2.64623
2.64329
2.63967
1
1
1
1
1
1
1
1
1
1
1
1
1
1
1
1
1
1
1
1
1
1
1
1
1
1
1
1
1
1
1
1
1
1
1
1
1
1
1
1
1
1
1.1971
2.4093
2.66494
2.65061
2.64491
2.63985
1
1
1
1
1
1
1
1
1
1
1
1
1
1
1
1
1
1
1
1
1
1
1
1
1
1
1
1
1
1
1
1
1
1
1
1
1
1
1
1
1
1
1.10357
2.37039
2.67401
2.66064
2.65315
2.6465
1
1
1
1
1
1
1
1
1
1
1
1
1
1
1
1
1
1
1
1
1
1
1
1
1
1
1
1
1
1
1
1
1
1
1
1
1
1
1
1
1
1
1.00855
2.31122
2.68163
2.673
2.66444
2.65642
1
1
1
1
1
1
1
1
1
1
1
1
1
1
1
1
1
1
1
1
1
1
1
1
1
1
1
1
1
1
1
1
1
1
1
1
1
1
1
1
1
1
1.00005
2.24355
2.67766
2.67686
2.66822
2.6619
1
1
1
1
1
1
1
1
1
1
1
1
1
1
1
1
1
1
1
1
1
1
1
1
1
1
1
1
1
1
1
1
1
1
1
1
1
1
1
1
1
1
1
2.16908
2.66836
2.67683
2.66882
2.66383
1
1
1
1
1
1
1
1
1
1
1
1
1
1
1
1
1
1
1
1
1
1
1
1
1
1
1
1
1
1
1
1
1
1
1
1
1
1
1
1
1
1
1
2.09232
2.65716
2.67662
2.66829
2.66358
1
1
1
1
1
1
1
1
1
1
1
1
1
1
1
1
1
1
1
1
1
1
1
1
1
1
1
1
1
1
1
1
1
1
1
1
1
1
1
1
1
1
1
2.01879
2.64698
2.67624
2.66737
2.66284
1
1
1
1
1
1
1
1
1
1
1
1
1
1
1
1
1
1
1
1
1
1
1
1
1
1
1
1
1
1
1
1
1
1
1
1
1
1
1
1
1
1
1
1.95183
2.63886
2.67704
2.6676
2.66294
1
1
1
1
1
1
1
1
1
1
1
1
1
1
1
1
1
1
1
1
1
1
1
1
1
1
1
1
1
1
1
1
1
1
1
1
1
1
1
1
1
1
1
1.89246
2.63139
2.67945
2.66946
2.66444
1
1
1
1
1
1
1
1
1
1
1
1
1
1
1
1
1
1
1
1
1
1
1
1
1
1
1
1
1
1
1
1
1
1
1
1
1
1
1
1
1
1
1
1.83982
2.62311
2.68268
2.67229
2.66701
1
1
1
1
1
1
1
1
1
1
1
1
1
1
1
1
1
1
1
1
1
1
1
1
1
1
1
1
1
1
1
1
1
1
1
1
1
1
1
1
1
1
1
1.79291
2.61413
2.68554
2.67482
2.66943
1
1
1
1
1
1
1
1
1
1
1
1
1
1
1
1
1
1
1
1
1
1
1
1
1
1
1
1
1
1
1
1
1
1
1
1
1
1
1
1
1
1
1
1.75373
2.60599
2.68755
2.67644
2.67101
1
1
1
1
1
1
1
1
1
1
1
1
1
1
1
1
1
1
1
1
1
1
1
1
1
1
1
1
1
1
1
1
1
1
1
1
1
1
1
1
1
1
1
1.72291
2.59921
2.68887
2.67735
2.6719
1
1
1
1
1
1
1
1
1
1
1
1
1
1
1
1
1
1
1
1
1
1
1
1
1
1
1
1
1
1
1
1
1
1
1
1
1
1
1
1
1
1
1
1.69437
2.59278
2.69004
2.67839
2.67302
1
1
1
1
1
1
1
1
1
1
1
1
1
1
1
1
1
1
1
1
1
1
1
1
1
1
1
1
1
1
1
1
1
1
1
1
1
1
1
1
1
1
1
1.67194
2.58859
2.69083
2.6789
2.67335
1
1
1
1
1
1
1
1
1
1
1
1
1
1
1
1
1
1
1
1
1
1
1
1
1
1
1
1
1
1
1
1
1
1
1
1
1
1
1
1
1
1
1
1.66783
2.58774
2.69143
2.67932
2.67368
1.47942
0.748599
0.329411
0.503331
0.670292
0.822896
0.943568
1.06172
1.12815
1.13557
1.15571
1.2075
1.26067
1.34499
1.42564
1.46552
1.48742
1.50078
1.5099
1.52795
1.54676
1.5532
1.55961
1.56926
1.57235
1.58114
1.58337
1.56207
1.54859
1.55218
1.57886
1.61467
1.62893
1.63013
1.61385
1.58196
1.57272
1.82016
2.48942
2.64758
2.65997
2.66151
2.66832
2.68827
2.69954
2.70064
2.6939
2.6874
2.68391
2.68264
2.68069
2.67552
2.66957
2.66604
2.666
2.66755
2.66676
2.66178
2.65482
2.64909
2.64647
2.64655
2.64772
2.64732
2.64322
2.63553
2.62692
2.61964
2.61437
2.61022
2.60615
2.60139
2.59548
2.58843
2.58062
2.5725
2.56451
2.55712
2.5507
2.54514
2.5399
2.53441
2.52851
2.52238
2.51628
2.51025
2.50409
2.49765
2.49104
2.4846
2.4786
2.47301
2.46743
2.46129
2.45442
2.44716
2.44004
2.43347
2.42759
2.42226
2.41706
2.41144
2.40507
2.39799
2.39059
2.38342
2.37692
2.37122
2.36598
2.36051
2.35436
2.34761
2.34064
2.33391
2.32764
2.32174
2.31607
2.31051
2.30477
2.29886
2.293
2.2871
2.28093
2.27447
2.26772
2.26079
2.25379
2.2468
2.23994
2.23332
2.22711
2.22144
2.21599
2.21015
2.20385
2.19739
2.19101
2.18475
2.17856
2.17232
2.16612
2.16025
2.15479
2.14919
2.1432
2.13699
2.13071
2.12448
2.11841
2.11282
2.10794
2.10349
2.09942
2.09574
2.09211
2.08823
2.08385
2.07878
2.07298
2.06639
2.05937
2.05267
2.04699
2.0426
2.03979
2.03719
2.03386
2.0296
2.02456
2.01856
2.01207
2.00646
2.00187
1.99878
1.99668
1.99379
1.98985
1.98542
1.98053
1.97531
1.97043
1.96633
1.96276
1.95983
1.95762
1.95535
1.95248
1.94868
1.94312
1.9361
1.93024
1.9241
1.74892
1.36425
1.1415
1.00238
0.929657
0.843384
0.82329
0.843533
0.908781
0.941108
0.954115
0.982216
1.07036
1.15758
1.21995
1.25346
1.27499
1.31655
1.36034
1.3931
1.43125
1.47282
1.49991
1.50709
1.51386
1.526
1.53734
1.54595
1.55011
1.55585
1.56307
1.5672
1.56948
1.57157
1.57218
1.58223
1.59028
1.65294
2.3433
2.6141
2.6505
2.66115
2.66884
2.68111
2.69171
2.69714
2.69444
2.68482
2.67795
2.6736
2.67269
2.67215
2.66917
2.66406
2.65931
2.65627
2.65437
2.65261
2.65016
2.64672
2.64285
2.63912
2.6359
2.63304
2.63031
2.62691
2.6218
2.61549
2.60931
2.60363
2.59832
2.59335
2.58845
2.58287
2.57618
2.56874
2.5612
2.55415
2.54791
2.5424
2.53715
2.53152
2.52515
2.51826
2.51135
2.50488
2.49893
2.49322
2.4874
2.48129
2.47493
2.46851
2.46231
2.4565
2.45091
2.44518
2.43922
2.43315
2.42697
2.42065
2.41431
2.40801
2.4017
2.39529
2.38879
2.38235
2.37618
2.37036
2.36471
2.35907
2.35321
2.34687
2.3401
2.3332
2.32646
2.32007
2.31404
2.30827
2.30284
2.29755
2.29191
2.28571
2.27898
2.27209
2.26517
2.2584
2.25201
2.24614
2.24028
2.23414
2.22775
2.22091
2.21394
2.20739
2.20111
2.19515
2.18956
2.18432
2.17882
2.17313
2.16727
2.16078
2.15386
2.14751
2.14169
2.136
2.13036
2.1248
2.11913
2.1131
2.10734
2.10258
2.09831
2.09442
2.09048
2.08629
2.08164
2.0762
2.07016
2.06417
2.0587
2.05372
2.04873
2.04368
2.03929
2.03548
2.0313
2.0264
2.02108
2.01584
2.01102
2.00662
2.0027
1.9993
1.99607
1.99291
1.98918
1.98379
1.97767
1.97251
1.96837
1.96489
1.96214
1.95994
1.95779
1.95553
1.95202
1.94521
1.93775
1.93241
1.92857
1.9238
1.88045
1.64927
1.44697
1.3107
1.22497
1.15413
1.05009
0.988366
0.990029
1.00168
1.00895
1.01338
1.03424
1.06593
1.06984
1.07212
1.08008
1.11311
1.18106
1.24595
1.29599
1.34372
1.38185
1.40853
1.42953
1.45184
1.47399
1.50077
1.51944
1.52185
1.51812
1.51455
1.51762
1.53235
1.55495
1.56596
1.56558
1.56859
2.04827
2.56749
2.66336
2.66061
2.65857
2.65661
2.6584
2.66655
2.67009
2.66586
2.65585
2.64761
2.643
2.64261
2.64372
2.6429
2.63751
2.62914
2.62168
2.61757
2.61651
2.61676
2.61587
2.61083
2.6034
2.59673
2.59237
2.59131
2.59135
2.58927
2.58357
2.57689
2.57037
2.56486
2.56084
2.55761
2.5537
2.54857
2.54275
2.53675
2.53087
2.52518
2.51952
2.51361
2.50713
2.50011
2.49318
2.48692
2.48146
2.47636
2.47094
2.46485
2.4582
2.45141
2.44503
2.43956
2.4351
2.43099
2.42645
2.42133
2.41579
2.4099
2.40378
2.39755
2.39138
2.38539
2.37963
2.37392
2.36817
2.36242
2.35685
2.35159
2.34623
2.34007
2.33368
2.32712
2.3202
2.31341
2.30716
2.30126
2.29611
2.29143
2.28578
2.27917
2.27225
2.26494
2.25796
2.2518
2.24627
2.24145
2.23638
2.23078
2.22467
2.21741
2.20919
2.20136
2.19511
2.18982
2.18508
2.18068
2.17589
2.17104
2.16574
2.15932
2.15184
2.14463
2.13865
2.13338
2.12832
2.12316
2.11771
2.11184
2.10581
2.10033
2.09563
2.09135
2.08709
2.08262
2.07763
2.07203
2.0664
2.06164
2.05756
2.05332
2.04848
2.04258
2.03596
2.03029
2.02549
2.0209
2.01649
2.01253
2.00914
2.00595
2.00249
1.99851
1.99422
1.98967
1.98415
1.97783
1.97215
1.96773
1.96456
1.96216
1.95997
1.95771
1.95509
1.95121
1.9445
1.93627
1.93042
1.92714
1.92496
1.92129
1.97103
1.81275
1.66723
1.5079
1.41029
1.35066
1.29145
1.23417
1.15573
1.10529
1.10437
1.10817
1.09948
1.09782
1.09768
1.09125
1.07672
1.07272
1.08225
1.10984
1.1524
1.19684
1.23984
1.28929
1.33965
1.36781
1.39375
1.42345
1.44821
1.45983
1.46108
1.46355
1.47569
1.49479
1.51506
1.51973
1.51893
1.51724
1.67347
2.43785
2.65122
2.62073
2.60995
2.60409
2.60099
2.60348
2.60845
2.60873
2.60336
2.59493
2.58748
2.58311
2.58198
2.58244
2.58038
2.57274
2.56419
2.55811
2.55491
2.55395
2.55374
2.55122
2.54445
2.53886
2.5357
2.53468
2.53487
2.53375
2.52884
2.52294
2.51793
2.51461
2.51252
2.51081
2.50842
2.50461
2.49988
2.49498
2.49008
2.48519
2.48035
2.47557
2.47065
2.46501
2.45861
2.45205
2.44577
2.43972
2.4335
2.42719
2.42116
2.41571
2.41111
2.40755
2.40466
2.40193
2.39885
2.39496
2.39022
2.38484
2.3789
2.37259
2.36653
2.36081
2.35564
2.35085
2.346
2.34102
2.33611
2.33118
2.32571
2.32013
2.31462
2.30881
2.30243
2.29585
2.28981
2.28445
2.27945
2.27433
2.26827
2.26184
2.25523
2.24868
2.24271
2.2374
2.23249
2.22754
2.22236
2.21668
2.21015
2.20296
2.19568
2.18877
2.1826
2.17756
2.17318
2.16898
2.16488
2.16065
2.15581
2.15
2.14331
2.13635
2.13006
2.12468
2.11966
2.1146
2.10939
2.10401
2.09852
2.09311
2.08801
2.08328
2.07869
2.07396
2.0689
2.0637
2.05907
2.05525
2.05158
2.04757
2.0429
2.03682
2.02873
2.02065
2.01538
2.01187
2.0092
2.00702
2.00506
2.00279
1.9996
1.99497
1.98776
1.97886
1.97191
1.96734
1.96411
1.96162
1.95983
1.95803
1.95565
1.95246
1.94699
1.93808
1.92965
1.92497
1.92278
1.92134
1.92011
1.91655
2.04518
1.90819
1.78552
1.68076
1.57965
1.46881
1.41746
1.38467
1.33254
1.25477
1.20685
1.20202
1.2005
1.19722
1.18783
1.16788
1.13604
1.10915
1.10682
1.11542
1.13055
1.14059
1.1492
1.16641
1.20128
1.23036
1.26229
1.30522
1.34997
1.39294
1.41358
1.42972
1.44258
1.45431
1.47045
1.47698
1.48313
1.49755
1.55071
2.25114
2.59655
2.56858
2.54084
2.53785
2.53578
2.5311
2.52597
2.52178
2.51812
2.51384
2.50952
2.50543
2.50209
2.50096
2.4999
2.49683
2.49307
2.48827
2.48387
2.48091
2.4807
2.48076
2.47908
2.47577
2.47257
2.46995
2.46778
2.46713
2.4661
2.46413
2.46196
2.4594
2.45581
2.45197
2.44868
2.44608
2.44347
2.44072
2.43792
2.43471
2.43103
2.42709
2.42304
2.41869
2.41336
2.40737
2.40116
2.39512
2.38918
2.38374
2.37912
2.37589
2.37417
2.37292
2.37064
2.36691
2.36246
2.35725
2.35134
2.34558
2.34048
2.33582
2.3315
2.3275
2.32361
2.31944
2.31491
2.31023
2.30549
2.30062
2.29571
2.29085
2.28579
2.28031
2.27464
2.26928
2.26427
2.25907
2.25356
2.24794
2.24216
2.23634
2.23078
2.22558
2.22056
2.21526
2.20958
2.20356
2.19745
2.19132
2.18531
2.17967
2.17444
2.16924
2.16371
2.158
2.1527
2.14818
2.1442
2.14034
2.1363
2.13179
2.12648
2.12019
2.11357
2.1077
2.10261
2.09783
2.09318
2.08859
2.08387
2.07882
2.07356
2.06849
2.0637
2.05901
2.05424
2.0495
2.04519
2.04145
2.03785
2.03408
2.03005
2.0249
2.01686
2.00744
2.00167
1.99873
1.99648
1.9948
1.99381
1.99211
1.98938
1.98463
1.97551
1.96475
1.95853
1.95521
1.95243
1.95046
1.94908
1.94669
1.94401
1.94031
1.93284
1.92278
1.91624
1.91341
1.91156
1.91008
1.90875
1.90741
2.09579
1.9794
1.8647
1.77821
1.69787
1.60371
1.51586
1.4691
1.4358
1.39088
1.32783
1.28343
1.27624
1.27251
1.26579
1.25176
1.22776
1.19393
1.16598
1.15718
1.15981
1.16751
1.16649
1.17063
1.17146
1.16788
1.16796
1.18043
1.21107
1.26122
1.32097
1.3715
1.40716
1.42048
1.42956
1.43763
1.46368
1.52224
1.59768
1.97175
2.46381
2.52434
2.49362
2.47696
2.47397
2.46615
2.45676
2.45016
2.44843
2.44867
2.44568
2.4401
2.43685
2.43741
2.43934
2.43994
2.43804
2.43351
2.43078
2.43036
2.43173
2.43231
2.43014
2.42606
2.42229
2.42049
2.42002
2.42142
2.42203
2.42011
2.41663
2.41167
2.40707
2.40383
2.40217
2.40183
2.40088
2.39839
2.39489
2.39049
2.38676
2.38376
2.38125
2.37919
2.37631
2.37208
2.36669
2.36062
2.35525
2.35059
2.34723
2.34576
2.34446
2.34153
2.33734
2.33134
2.32374
2.31735
2.31299
2.30963
2.30742
2.3059
2.3033
2.29916
2.29383
2.28812
2.28284
2.27811
2.2738
2.26963
2.26531
2.26053
2.25527
2.25011
2.2457
2.24174
2.23754
2.23262
2.22674
2.22063
2.21541
2.21058
2.20592
2.20142
2.19648
2.19101
2.18446
2.17695
2.17007
2.16453
2.15991
2.15567
2.15148
2.14705
2.14213
2.13637
2.13005
2.12427
2.11967
2.11599
2.11262
2.10898
2.1046
2.09915
2.09293
2.08693
2.08182
2.07735
2.07315
2.06895
2.06456
2.05976
2.05455
2.04924
2.04424
2.03959
2.03519
2.03093
2.0269
2.02329
2.02007
2.01692
2.01308
2.00757
2.00004
1.99205
1.9867
1.984
1.98245
1.98171
1.98057
1.97814
1.97442
1.96757
1.95748
1.94915
1.94511
1.9423
1.94004
1.93818
1.93541
1.93244
1.92862
1.92148
1.9128
1.90664
1.90387
1.9019
1.90017
1.89812
1.89582
1.90247
2.13133
2.03203
1.9334
1.851
1.77382
1.70025
1.62441
1.54899
1.50267
1.4758
1.44411
1.40339
1.35045
1.32528
1.32091
1.31253
1.2966
1.27508
1.24719
1.22278
1.21759
1.21909
1.21316
1.19707
1.19106
1.18719
1.17449
1.17006
1.17222
1.18144
1.20159
1.23757
1.28145
1.32599
1.36435
1.4086
1.48091
1.57973
1.65811
1.75625
2.19296
2.43466
2.47625
2.45235
2.43705
2.4245
2.41647
2.40973
2.40856
2.40791
2.4072
2.40716
2.40868
2.41093
2.41247
2.41167
2.40864
2.40841
2.40982
2.41077
2.40972
2.40762
2.40445
2.4022
2.40144
2.40146
2.40157
2.4002
2.39725
2.39367
2.3897
2.3856
2.38288
2.38143
2.38088
2.37918
2.37571
2.37144
2.36641
2.36244
2.36005
2.3589
2.35872
2.35772
2.35466
2.35017
2.34436
2.33821
2.33326
2.32919
2.32643
2.32416
2.3206
2.31631
2.31072
2.30409
2.29788
2.29339
2.29036
2.28906
2.28851
2.28574
2.28119
2.27521
2.26822
2.26219
2.25771
2.25392
2.25043
2.24673
2.24252
2.2373
2.23175
2.22743
2.22384
2.22042
2.21643
2.21171
2.20577
2.19932
2.19397
2.18938
2.18485
2.18023
2.17533
2.1701
2.16357
2.15592
2.14895
2.14351
2.13903
2.1349
2.13084
2.12677
2.12246
2.1174
2.1114
2.10505
2.09922
2.09429
2.09033
2.08698
2.08343
2.07909
2.074
2.06858
2.06327
2.0584
2.0539
2.04952
2.04513
2.04068
2.03591
2.03066
2.02529
2.02036
2.01601
2.01207
2.00829
2.00454
2.00079
1.99695
1.99253
1.98724
1.98192
1.97742
1.97318
1.96876
1.96509
1.96244
1.96001
1.95726
1.95335
1.94721
1.93965
1.93436
1.93058
1.92748
1.92499
1.92287
1.92035
1.91662
1.91032
1.90141
1.89353
1.89052
1.88892
1.88776
1.88601
1.88429
1.88517
1.91057
2.15655
2.06966
1.98717
1.9143
1.83456
1.76113
1.70775
1.64922
1.58192
1.53149
1.51212
1.48956
1.45619
1.41637
1.36841
1.34177
1.3352
1.32853
1.31438
1.29185
1.26888
1.26447
1.2607
1.24756
1.23
1.22198
1.21468
1.19994
1.19018
1.18957
1.19268
1.1979
1.20505
1.21879
1.25292
1.34615
1.46337
1.57537
1.65349
1.6784
1.83373
2.27736
2.45753
2.45346
2.43429
2.41955
2.41328
2.40442
2.39806
2.39679
2.40063
2.40479
2.40623
2.40677
2.40432
2.40204
2.40348
2.40574
2.40645
2.40573
2.40334
2.39985
2.39789
2.39707
2.39721
2.39595
2.39293
2.38933
2.38547
2.38166
2.37872
2.37712
2.37598
2.37379
2.37034
2.36651
2.36209
2.35698
2.35333
2.35081
2.34975
2.34915
2.34712
2.34404
2.34005
2.33521
2.32996
2.32577
2.32217
2.31943
2.31678
2.31272
2.30832
2.30328
2.29722
2.29164
2.28755
2.28438
2.28228
2.27983
2.27588
2.27097
2.26496
2.25809
2.25219
2.2479
2.24441
2.24161
2.23821
2.23431
2.22962
2.22374
2.21846
2.21439
2.21063
2.20662
2.20232
2.19742
2.19169
2.18581
2.1803
2.17517
2.17051
2.16604
2.16133
2.15579
2.1494
2.143
2.13722
2.13167
2.12633
2.12159
2.1174
2.11314
2.10848
2.10336
2.09777
2.09221
2.08647
2.08066
2.07542
2.07098
2.06725
2.06374
2.05984
2.05527
2.05015
2.04494
2.04017
2.03592
2.03177
2.02724
2.02212
2.01657
2.01097
2.0058
2.00129
1.99725
1.99334
1.98931
1.98504
1.98056
1.97598
1.97133
1.9676
1.96462
1.96114
1.95632
1.95074
1.94594
1.94196
1.93785
1.93328
1.9289
1.92634
1.92394
1.92078
1.91698
1.91301
1.90913
1.9042
1.89832
1.89132
1.88459
1.88147
1.87965
1.87808
1.87634
1.87433
1.87631
1.88582
1.94589
2.17856
2.10107
2.02871
1.96363
1.89065
1.8197
1.76718
1.71892
1.66867
1.61867
1.56592
1.53401
1.51773
1.49338
1.45233
1.3996
1.37358
1.36968
1.36581
1.35386
1.33229
1.31147
1.30224
1.291
1.27047
1.259
1.25516
1.24744
1.23294
1.22501
1.22015
1.21651
1.22206
1.24672
1.3127
1.39314
1.44482
1.4901
1.54641
1.57133
1.59131
1.8833
2.38589
2.47026
2.44536
2.43021
2.4245
2.41651
2.40815
2.40451
2.40698
2.4119
2.41225
2.41142
2.40691
2.40382
2.40399
2.40671
2.40742
2.40586
2.40263
2.3996
2.39767
2.39745
2.39691
2.39379
2.38969
2.38462
2.38039
2.37725
2.37602
2.37608
2.37336
2.36954
2.36509
2.35984
2.35504
2.35147
2.3487
2.34738
2.34593
2.34295
2.33937
2.33507
2.32997
2.32556
2.32221
2.31949
2.31787
2.31592
2.31214
2.30741
2.30174
2.29561
2.29049
2.28656
2.28336
2.28077
2.27706
2.27224
2.26666
2.2605
2.25415
2.24851
2.24431
2.24123
2.23898
2.23596
2.23218
2.22759
2.22189
2.21634
2.21167
2.20703
2.20218
2.19728
2.19243
2.18739
2.18229
2.1774
2.17241
2.16706
2.16149
2.15575
2.14991
2.1444
2.13959
2.1351
2.13062
2.12565
2.11984
2.11328
2.10657
2.10052
2.0956
2.09143
2.08776
2.08385
2.07918
2.07357
2.06722
2.06138
2.05663
2.05271
2.04915
2.04544
2.04122
2.0365
2.03154
2.02648
2.02148
2.0165
2.01155
2.00663
2.00163
1.99643
1.99129
1.98655
1.98226
1.97824
1.97413
1.96857
1.96269
1.95988
1.95774
1.95504
1.9515
1.94692
1.94109
1.93404
1.9272
1.92235
1.91873
1.91637
1.9149
1.91419
1.91201
1.90848
1.90307
1.89564
1.88835
1.88227
1.87703
1.87403
1.87269
1.87168
1.8696
1.86796
1.86958
1.88288
1.91849
1.99507
2.19561
2.12646
2.0633
2.00264
1.93483
1.87747
1.82801
1.77123
1.72152
1.68628
1.64394
1.59349
1.55141
1.5326
1.51108
1.47694
1.43456
1.40857
1.40452
1.40189
1.38926
1.36548
1.34211
1.32752
1.3102
1.29213
1.28868
1.28644
1.27574
1.2635
1.26299
1.27048
1.2889
1.34436
1.42349
1.46667
1.49053
1.49853
1.50274
1.50693
1.51197
1.54083
2.01434
2.43489
2.4495
2.45376
2.44612
2.43601
2.42576
2.41942
2.41983
2.42271
2.42223
2.41871
2.41307
2.40885
2.4072
2.40783
2.40834
2.40623
2.403
2.40019
2.3982
2.39797
2.39666
2.39259
2.38734
2.38177
2.37773
2.37487
2.37432
2.37411
2.37049
2.36559
2.36003
2.35526
2.35152
2.34852
2.34697
2.3454
2.3421
2.33813
2.33346
2.32814
2.32324
2.31955
2.31682
2.3157
2.31489
2.31201
2.30796
2.30268
2.29589
2.2898
2.28545
2.28171
2.279
2.27586
2.27137
2.26609
2.25964
2.2529
2.24731
2.24318
2.24035
2.23823
2.23496
2.23099
2.22616
2.22037
2.2151
2.21103
2.20685
2.20195
2.19621
2.18992
2.18392
2.17911
2.17496
2.17094
2.16669
2.16184
2.15588
2.14884
2.14217
2.13712
2.13297
2.1295
2.12562
2.12088