/*--------------------------------*- C++ -*----------------------------------*\
  =========                 |
  \\      /  F ield         | OpenFOAM: The Open Source CFD Toolbox
   \\    /   O peration     | Website:  https://openfoam.org
    \\  /    A nd           | Version:  10
     \\/     M anipulation  |
\*---------------------------------------------------------------------------*/
FoamFile
{
    format      ascii;
    class       volVectorField;
    location    "6.5";
    object      U;
}
// * * * * * * * * * * * * * * * * * * * * * * * * * * * * * * * * * * * * * //

dimensions      [0 1 -1 0 0 0 0];

internalField   nonuniform List<vector> 
16128
(
(3 1.71536e-14 0)
(3 1.24233e-14 0)
(3 1.16389e-14 0)
(3 -1.99839e-14 0)
(3 -6.86251e-14 0)
(3 -9.62481e-14 0)
(3 -7.01963e-14 0)
(3 -6.26889e-14 0)
(3 -9.96132e-14 0)
(3 -1.13836e-13 0)
(3 -9.04996e-14 0)
(3 -1.77031e-14 0)
(3 -5.96263e-15 0)
(3 5.19304e-15 0)
(3 6.6502e-14 0)
(3 2.22366e-13 0)
(3 1.71921e-13 0)
(3 7.10253e-14 0)
(3 -1.38886e-14 0)
(3 -7.79957e-14 0)
(3 -5.64901e-14 0)
(3 -3.78052e-14 0)
(3 2.82477e-14 0)
(3 3.63095e-14 0)
(1.44139 0.00788247 0)
(0.773437 0.00703979 0)
(0.726949 0.0126432 0)
(0.697234 0.0130518 0)
(0.665991 0.0130982 0)
(0.636105 0.0129726 0)
(0.606808 0.0129039 0)
(0.577751 0.0130218 0)
(0.548386 0.0133405 0)
(0.518463 0.0138314 0)
(0.487982 0.0143311 0)
(0.457164 0.0145811 0)
(0.4262 0.0146534 0)
(0.39495 0.0148816 0)
(0.363259 0.0153225 0)
(0.331116 0.0158471 0)
(0.298267 0.0163625 0)
(0.264149 0.016934 0)
(0.228413 0.0175921 0)
(0.191086 0.0184226 0)
(0.152565 0.0191788 0)
(0.112194 0.020664 0)
(0.0684398 0.0221191 0)
(0.0236529 0.0225561 0)
(3 2.25897e-15 0)
(3 2.30531e-14 0)
(3 2.96952e-14 0)
(3 -1.39753e-14 0)
(3 -6.95083e-14 0)
(3 -9.43734e-14 0)
(3 -6.87253e-14 0)
(3 -5.4779e-14 0)
(3 -8.46515e-14 0)
(3 -1.08412e-13 0)
(3 -1.25594e-13 0)
(3 -7.15242e-14 0)
(3 -8.02908e-14 0)
(3 1.05398e-15 0)
(3 7.06218e-14 0)
(3 1.4423e-13 0)
(3 1.77404e-13 0)
(3 1.38037e-13 0)
(3 -1.51561e-14 0)
(3 -4.12844e-14 0)
(3 -8.40792e-14 0)
(3 -7.04336e-15 0)
(3 5.78082e-14 0)
(3 6.68213e-14 0)
(1.45753 0.0374793 0)
(0.769092 0.0302205 0)
(0.719505 0.0376542 0)
(0.689565 0.0380112 0)
(0.658224 0.0379315 0)
(0.628263 0.0374471 0)
(0.598923 0.0372075 0)
(0.569868 0.0376189 0)
(0.540547 0.0387195 0)
(0.510675 0.040384 0)
(0.480182 0.0420456 0)
(0.449278 0.0428521 0)
(0.418272 0.0430842 0)
(0.387127 0.0438767 0)
(0.355662 0.0454129 0)
(0.323766 0.0471558 0)
(0.291235 0.0487422 0)
(0.257716 0.0504904 0)
(0.22306 0.0525555 0)
(0.18726 0.0553072 0)
(0.150252 0.0579709 0)
(0.111068 0.0630146 0)
(0.067834 0.0676319 0)
(0.0240408 0.0685657 0)
(3 -2.31122e-14 0)
(3 -2.44897e-14 0)
(3 -1.85061e-14 0)
(3 -5.80202e-16 0)
(3 -3.26003e-14 0)
(3 6.14066e-16 0)
(3 -5.36348e-15 0)
(3 7.15384e-15 0)
(3 7.28857e-15 0)
(3 -6.68559e-15 0)
(3 -5.45043e-14 0)
(3 -9.1474e-14 0)
(3 -8.60106e-14 0)
(3 1.12798e-14 0)
(3 8.39785e-14 0)
(3 3.67055e-14 0)
(3 -2.75061e-14 0)
(3 -4.5066e-14 0)
(3 -6.98628e-14 0)
(3 -5.92872e-14 0)
(3 -1.8736e-14 0)
(3 6.86849e-14 0)
(3 1.01661e-13 0)
(3 1.03015e-13 0)
(1.50678 0.0661071 0)
(0.774252 0.0536839 0)
(0.7214 0.0639055 0)
(0.690655 0.0646226 0)
(0.658392 0.0645498 0)
(0.627488 0.0637058 0)
(0.597258 0.063161 0)
(0.567473 0.063672 0)
(0.53762 0.0653529 0)
(0.507341 0.0679991 0)
(0.476423 0.0706933 0)
(0.445007 0.0720379 0)
(0.413499 0.0724315 0)
(0.38188 0.0736512 0)
(0.349855 0.0759465 0)
(0.317212 0.0784676 0)
(0.283935 0.0807125 0)
(0.250061 0.083287 0)
(0.215706 0.0863346 0)
(0.180853 0.0905992 0)
(0.14496 0.094881 0)
(0.107297 0.103687 0)
(0.0653452 0.111451 0)
(0.0243222 0.113084 0)
(3 4.11051e-15 0)
(3 1.89377e-15 0)
(3 1.12526e-14 0)
(3 -9.33805e-15 0)
(3 -1.87372e-14 0)
(3 -1.07231e-14 0)
(3 2.32069e-14 0)
(3 6.30184e-14 0)
(3 3.52455e-14 0)
(3 1.35531e-15 0)
(3 -1.20087e-14 0)
(3 -5.06818e-15 0)
(3 2.2204e-14 0)
(3 2.59375e-14 0)
(3 -2.15615e-14 0)
(3 -3.43141e-14 0)
(3 -7.01478e-14 0)
(3 -8.32025e-14 0)
(3 -1.00206e-13 0)
(3 -9.74453e-14 0)
(3 -4.69405e-14 0)
(3 -2.42444e-14 0)
(3 2.80826e-14 0)
(3 6.03997e-14 0)
(1.58188 0.092244 0)
(0.781076 0.0776558 0)
(0.72423 0.0899091 0)
(0.693796 0.0909647 0)
(0.661679 0.091029 0)
(0.630771 0.0899671 0)
(0.600424 0.0891826 0)
(0.570545 0.0897941 0)
(0.540701 0.092038 0)
(0.510484 0.0956848 0)
(0.479523 0.0995595 0)
(0.447827 0.101746 0)
(0.415862 0.102617 0)
(0.383655 0.104479 0)
(0.350824 0.10769 0)
(0.317049 0.111161 0)
(0.282439 0.114195 0)
(0.247327 0.117528 0)
(0.212028 0.121041 0)
(0.176678 0.12613 0)
(0.140423 0.131185 0)
(0.103448 0.143407 0)
(0.0623294 0.153976 0)
(0.0236958 0.155889 0)
(3 2.84654e-14 0)
(3 3.2974e-14 0)
(3 3.56687e-14 0)
(3 2.10264e-14 0)
(3 2.84762e-14 0)
(3 1.17658e-14 0)
(3 2.50106e-14 0)
(3 7.64787e-14 0)
(3 4.85612e-14 0)
(3 -7.7468e-15 0)
(3 -2.81034e-14 0)
(3 -3.99075e-14 0)
(3 -2.19559e-14 0)
(3 -1.24198e-14 0)
(3 -3.34451e-14 0)
(3 -2.64551e-14 0)
(3 3.41677e-14 0)
(3 3.50515e-14 0)
(3 3.49622e-14 0)
(3 -2.24298e-14 0)
(3 -1.11402e-13 0)
(3 -7.44399e-14 0)
(3 7.15418e-14 0)
(3 1.17253e-13 0)
(1.68544 0.118176 0)
(0.790107 0.103024 0)
(0.725895 0.115953 0)
(0.695458 0.11731 0)
(0.6633 0.117649 0)
(0.632277 0.116506 0)
(0.601744 0.115454 0)
(0.57178 0.115979 0)
(0.542121 0.118562 0)
(0.512382 0.123054 0)
(0.482032 0.128104 0)
(0.450825 0.131287 0)
(0.419216 0.132793 0)
(0.387317 0.135393 0)
(0.354707 0.139624 0)
(0.320908 0.144249 0)
(0.285949 0.148356 0)
(0.250239 0.152753 0)
(0.214089 0.156825 0)
(0.177783 0.162743 0)
(0.140186 0.168105 0)
(0.102717 0.183154 0)
(0.0614573 0.19637 0)
(0.0217004 0.197305 0)
(3 -3.18494e-15 0)
(3 -3.00243e-14 0)
(3 -3.51963e-14 0)
(3 -1.39726e-14 0)
(3 -3.20588e-15 0)
(3 -5.15774e-15 0)
(3 -1.29139e-14 0)
(3 -2.8933e-14 0)
(3 1.94358e-14 0)
(3 2.50354e-14 0)
(3 -6.24618e-14 0)
(3 -5.07582e-14 0)
(3 -4.10112e-14 0)
(3 1.5233e-14 0)
(3 4.81267e-14 0)
(3 3.3099e-14 0)
(3 2.55465e-14 0)
(3 7.45907e-14 0)
(3 3.57429e-14 0)
(3 -3.61796e-14 0)
(3 -1.03975e-13 0)
(3 -1.31878e-13 0)
(3 -8.61752e-14 0)
(3 -1.32931e-13 0)
(1.82526 0.141926 0)
(0.804886 0.130225 0)
(0.729049 0.142534 0)
(0.698539 0.143745 0)
(0.666438 0.144445 0)
(0.635394 0.143459 0)
(0.604627 0.142267 0)
(0.574344 0.14262 0)
(0.544497 0.145328 0)
(0.514846 0.150469 0)
(0.484794 0.156664 0)
(0.453768 0.161001 0)
(0.422131 0.163305 0)
(0.390147 0.166725 0)
(0.357495 0.172044 0)
(0.323617 0.177951 0)
(0.288381 0.183296 0)
(0.252147 0.189012 0)
(0.215062 0.193852 0)
(0.177655 0.200869 0)
(0.138595 0.206064 0)
(0.101239 0.223102 0)
(0.0614834 0.238121 0)
(0.0263672 0.239451 0)
(3 4.11331e-15 0)
(3 -7.68076e-15 0)
(3 -2.70417e-14 0)
(3 -2.56651e-14 0)
(3 -9.3314e-15 0)
(3 4.93419e-15 0)
(3 -1.71207e-14 0)
(3 -5.66914e-14 0)
(3 -7.90785e-15 0)
(3 -1.67827e-15 0)
(3 -4.28975e-15 0)
(3 3.38203e-14 0)
(3 1.68029e-14 0)
(3 1.73966e-14 0)
(3 3.62541e-14 0)
(3 3.4408e-14 0)
(3 4.70254e-14 0)
(3 4.82772e-14 0)
(3 -3.77105e-14 0)
(3 -9.87291e-14 0)
(3 -6.45478e-14 0)
(3 -6.77313e-14 0)
(3 -2.81639e-14 0)
(3 -1.52125e-13 0)
(1.99918 0.160394 0)
(0.825712 0.159571 0)
(0.733506 0.168782 0)
(0.704025 0.169308 0)
(0.673065 0.170327 0)
(0.643079 0.169737 0)
(0.612956 0.168651 0)
(0.583007 0.168872 0)
(0.553438 0.171534 0)
(0.52424 0.177081 0)
(0.494818 0.184314 0)
(0.4642 0.189986 0)
(0.432531 0.193352 0)
(0.400262 0.197807 0)
(0.367266 0.204408 0)
(0.333005 0.211827 0)
(0.297183 0.218638 0)
(0.260149 0.226009 0)
(0.221798 0.23203 0)
(0.18287 0.240849 0)
(0.141132 0.246235 0)
(0.101715 0.264942 0)
(0.0602272 0.277918 0)
(0.0394175 0.280751 0)
(3 4.93271e-15 0)
(3 2.70713e-14 0)
(3 1.92093e-14 0)
(3 4.71337e-14 0)
(3 9.23114e-14 0)
(3 1.02544e-13 0)
(3 7.40803e-14 0)
(3 4.62211e-14 0)
(3 3.7942e-14 0)
(3 7.39655e-14 0)
(3 8.41254e-14 0)
(3 1.02895e-13 0)
(3 1.22458e-13 0)
(3 1.3055e-13 0)
(3 1.57479e-13 0)
(3 9.36579e-14 0)
(3 2.75374e-14 0)
(3 -3.91045e-14 0)
(3 2.6359e-14 0)
(3 -3.28501e-15 0)
(3 -2.30363e-15 0)
(3 -2.9056e-14 0)
(3 -3.80177e-14 0)
(3 -9.81996e-14 0)
(2.20336 0.174159 0)
(0.849607 0.194605 0)
(0.731731 0.194874 0)
(0.702721 0.194815 0)
(0.67229 0.196085 0)
(0.643057 0.196304 0)
(0.613358 0.195674 0)
(0.583635 0.195863 0)
(0.554356 0.198291 0)
(0.525853 0.203957 0)
(0.497761 0.212119 0)
(0.468682 0.219257 0)
(0.438293 0.223849 0)
(0.407093 0.229435 0)
(0.375032 0.237441 0)
(0.341491 0.246595 0)
(0.305865 0.25509 0)
(0.268529 0.264368 0)
(0.229201 0.271761 0)
(0.189493 0.282799 0)
(0.146451 0.289022 0)
(0.106507 0.309366 0)
(0.063085 0.318946 0)
(0.0423166 0.324181 0)
(3 -1.57778e-14 0)
(3 2.65239e-15 0)
(3 1.18829e-14 0)
(3 4.00335e-14 0)
(3 6.17082e-14 0)
(3 7.04704e-14 0)
(3 5.2086e-14 0)
(3 6.93879e-14 0)
(3 8.09194e-14 0)
(3 6.89869e-14 0)
(3 3.24217e-14 0)
(3 1.29552e-14 0)
(3 4.70705e-14 0)
(3 5.16661e-14 0)
(3 4.95987e-14 0)
(3 5.52301e-16 0)
(3 -3.63564e-14 0)
(3 -7.04742e-14 0)
(3 -5.77181e-14 0)
(3 -3.02636e-14 0)
(3 -9.9557e-14 0)
(3 -4.17694e-14 0)
(3 -5.88892e-14 0)
(3 -6.57348e-14 0)
(2.44256 0.18471 0)
(0.890524 0.237111 0)
(0.741436 0.221745 0)
(0.715315 0.221722 0)
(0.684521 0.22306 0)
(0.654841 0.224138 0)
(0.623894 0.224143 0)
(0.592651 0.224186 0)
(0.561842 0.225872 0)
(0.532163 0.230831 0)
(0.503749 0.239136 0)
(0.475111 0.247389 0)
(0.445355 0.253164 0)
(0.414962 0.259919 0)
(0.383956 0.269512 0)
(0.351604 0.280807 0)
(0.316821 0.291467 0)
(0.27999 0.303161 0)
(0.240331 0.312319 0)
(0.200308 0.325815 0)
(0.156071 0.333141 0)
(0.114895 0.355143 0)
(0.0683754 0.363257 0)
(0.0459759 0.370751 0)
(3 2.16498e-15 0)
(3 1.53345e-15 0)
(3 3.94842e-14 0)
(3 3.59195e-14 0)
(3 -1.28156e-14 0)
(3 6.54217e-15 0)
(3 3.66983e-14 0)
(3 7.50831e-14 0)
(3 4.16668e-14 0)
(3 -1.16882e-15 0)
(3 -1.75608e-14 0)
(3 -5.71963e-14 0)
(3 -2.18462e-14 0)
(3 -2.72647e-14 0)
(3 -7.07442e-14 0)
(3 -2.66293e-14 0)
(3 1.85575e-14 0)
(3 -8.3563e-15 0)
(3 -7.01671e-14 0)
(3 -8.55011e-14 0)
(3 -1.15766e-13 0)
(3 -1.22382e-13 0)
(3 -4.61032e-14 0)
(3 -2.3545e-14 0)
(2.70711 0.181416 0)
(0.963803 0.275791 0)
(0.773911 0.23589 0)
(0.749862 0.242671 0)
(0.716367 0.2471 0)
(0.684434 0.250974 0)
(0.650417 0.252942 0)
(0.615662 0.253878 0)
(0.581145 0.255447 0)
(0.547989 0.259631 0)
(0.516886 0.267576 0)
(0.486684 0.276456 0)
(0.455997 0.283008 0)
(0.4252 0.290438 0)
(0.394445 0.301202 0)
(0.363011 0.314603 0)
(0.329094 0.32772 0)
(0.292989 0.342452 0)
(0.252974 0.354136 0)
(0.212429 0.370661 0)
(0.166408 0.380081 0)
(0.122743 0.404618 0)
(0.0722584 0.412913 0)
(0.0468661 0.421151 0)
(3 -9.41863e-15 0)
(3 -4.51104e-16 0)
(3 8.35957e-15 0)
(3 -2.46378e-14 0)
(3 -3.88833e-14 0)
(3 -3.62643e-14 0)
(3 -5.4652e-15 0)
(3 8.76134e-15 0)
(3 7.6658e-15 0)
(3 3.70429e-14 0)
(3 3.75371e-14 0)
(3 -5.34329e-15 0)
(3 -3.04402e-14 0)
(3 1.12212e-14 0)
(3 4.23298e-16 0)
(3 3.67345e-14 0)
(3 1.14196e-13 0)
(3 7.67826e-14 0)
(3 5.25271e-14 0)
(3 2.51263e-14 0)
(3 -2.56096e-14 0)
(3 -9.80675e-14 0)
(3 -1.02749e-13 0)
(3 -4.55003e-14 0)
(2.95309 0.078687 0)
(1.05898 0.291463 0)
(0.803159 0.251209 0)
(0.787742 0.263954 0)
(0.753998 0.272049 0)
(0.720859 0.279122 0)
(0.684814 0.284164 0)
(0.647721 0.28671 0)
(0.610348 0.288281 0)
(0.57369 0.291451 0)
(0.539025 0.298471 0)
(0.506029 0.307486 0)
(0.473172 0.314443 0)
(0.440685 0.321962 0)
(0.40889 0.33315 0)
(0.377428 0.348303 0)
(0.343842 0.363971 0)
(0.308666 0.382201 0)
(0.268931 0.396929 0)
(0.228771 0.416666 0)
(0.181372 0.429368 0)
(0.135274 0.45793 0)
(0.0803909 0.467961 0)
(0.05251 0.475838 0)
(3 -1.3378e-16 0)
(3 -2.41459e-14 0)
(3 -4.9159e-14 0)
(3 -7.06436e-14 0)
(3 -5.29865e-14 0)
(3 -2.72576e-14 0)
(3 -6.75183e-14 0)
(3 -9.91955e-14 0)
(3 -7.45395e-14 0)
(3 -3.24041e-14 0)
(3 -7.0064e-15 0)
(3 -3.05407e-14 0)
(3 -1.1725e-13 0)
(3 -1.11668e-13 0)
(3 -4.2828e-14 0)
(3 -3.07295e-14 0)
(3 -4.56996e-14 0)
(3 -9.37294e-14 0)
(3 -1.24301e-13 0)
(3 -4.29652e-14 0)
(3 6.9798e-14 0)
(3 5.58914e-14 0)
(3 1.48848e-14 0)
(3 1.09067e-14 0)
(3.01758 0.0072056 0)
(1.1494 0.288014 0)
(0.805535 0.266983 0)
(0.795896 0.29208 0)
(0.769098 0.302702 0)
(0.742181 0.309602 0)
(0.712155 0.314866 0)
(0.678811 0.31915 0)
(0.642762 0.322716 0)
(0.605538 0.326206 0)
(0.568811 0.332469 0)
(0.533296 0.341363 0)
(0.49792 0.348553 0)
(0.462973 0.355796 0)
(0.429017 0.366563 0)
(0.396594 0.38276 0)
(0.36281 0.400442 0)
(0.328388 0.422093 0)
(0.288367 0.440927 0)
(0.246833 0.465471 0)
(0.196189 0.483848 0)
(0.147027 0.518133 0)
(0.086436 0.530394 0)
(0.0557482 0.538695 0)
(3 7.96245e-15 0)
(3 -1.79965e-14 0)
(3 -4.14557e-14 0)
(3 -2.40252e-14 0)
(3 1.91353e-14 0)
(3 -1.40393e-14 0)
(3 -4.65028e-14 0)
(3 -6.46009e-14 0)
(3 -6.69838e-14 0)
(3 -5.99237e-14 0)
(3 -3.03261e-14 0)
(3 -1.72587e-14 0)
(3 -4.12558e-14 0)
(3 -1.28517e-13 0)
(3 -8.52896e-14 0)
(3 -1.21259e-14 0)
(3 1.15914e-16 0)
(3 -5.64456e-15 0)
(3 -1.83893e-14 0)
(3 -1.91493e-14 0)
(3 7.05313e-14 0)
(3 1.11637e-13 0)
(3 1.11998e-13 0)
(3 8.85353e-14 0)
(3.0006 1.83096e-05 0)
(1.28061 0.305896 0)
(0.796526 0.275183 0)
(0.779781 0.307186 0)
(0.758567 0.326073 0)
(0.737255 0.335579 0)
(0.716756 0.34281 0)
(0.694798 0.348659 0)
(0.668335 0.353938 0)
(0.636635 0.359454 0)
(0.602047 0.366947 0)
(0.566541 0.376867 0)
(0.529878 0.385083 0)
(0.492733 0.392566 0)
(0.456119 0.402388 0)
(0.421851 0.418758 0)
(0.386891 0.437916 0)
(0.352324 0.463074 0)
(0.312646 0.487059 0)
(0.271719 0.517233 0)
(0.221643 0.541647 0)
(0.172129 0.582576 0)
(0.104328 0.5995 0)
(0.0704247 0.61202 0)
(3 -9.66823e-15 0)
(3 -6.36156e-15 0)
(3 -1.1058e-14 0)
(3 -1.16354e-14 0)
(3 -4.64215e-14 0)
(3 -6.4674e-14 0)
(3 -1.26218e-14 0)
(3 -2.74052e-14 0)
(3 -2.4203e-14 0)
(3 -3.98787e-17 0)
(3 5.63875e-14 0)
(3 4.03544e-14 0)
(3 1.26394e-15 0)
(3 -3.35808e-14 0)
(3 3.57623e-14 0)
(3 9.26859e-14 0)
(3 1.03176e-13 0)
(3 1.18854e-13 0)
(3 8.14051e-14 0)
(3 6.6503e-14 0)
(3 5.40787e-14 0)
(3 1.85319e-14 0)
(3 3.91865e-14 0)
(3 6.36565e-14 0)
(3 -6.69028e-08 0)
(1.5001 0.335698 0)
(0.808118 0.307419 0)
(0.752002 0.316981 0)
(0.73606 0.332277 0)
(0.719938 0.34397 0)
(0.70578 0.355668 0)
(0.690679 0.367433 0)
(0.674181 0.378925 0)
(0.653348 0.388711 0)
(0.627447 0.399196 0)
(0.597532 0.411737 0)
(0.563765 0.422614 0)
(0.527298 0.431796 0)
(0.489459 0.440988 0)
(0.453337 0.457306 0)
(0.417203 0.477021 0)
(0.383104 0.504681 0)
(0.344443 0.533188 0)
(0.304634 0.56969 0)
(0.251832 0.605037 0)
(0.196673 0.660268 0)
(0.117156 0.688448 0)
(0.0720936 0.708872 0)
(3 -5.42124e-15 0)
(3 1.84214e-14 0)
(3 1.73179e-14 0)
(3 -2.49544e-14 0)
(3 -8.55151e-14 0)
(3 -7.38588e-14 0)
(3 -1.10256e-15 0)
(3 -1.27238e-14 0)
(3 -2.42403e-14 0)
(3 -1.84126e-14 0)
(3 2.15143e-14 0)
(3 4.46049e-14 0)
(3 5.82961e-14 0)
(3 1.24095e-13 0)
(3 1.63592e-13 0)
(3 1.35212e-13 0)
(3 1.13503e-14 0)
(3 -8.90907e-15 0)
(3 -6.30013e-15 0)
(3 1.93173e-14 0)
(3 2.69363e-14 0)
(3 -5.25503e-14 0)
(3 -7.77242e-14 0)
(3 -4.53731e-15 0)
(3 -7.70921e-08 0)
(1.83404 0.373866 0)
(0.836565 0.36743 0)
(0.744411 0.34659 0)
(0.725647 0.349391 0)
(0.711479 0.357802 0)
(0.69777 0.367483 0)
(0.68421 0.378925 0)
(0.670838 0.392797 0)
(0.656266 0.408128 0)
(0.639179 0.424245 0)
(0.618414 0.441552 0)
(0.592306 0.457314 0)
(0.561128 0.470625 0)
(0.525422 0.481494 0)
(0.490025 0.49829 0)
(0.453629 0.51799 0)
(0.419716 0.547449 0)
(0.382257 0.58103 0)
(0.344684 0.62657 0)
(0.296024 0.675045 0)
(0.250133 0.744022 0)
(0.168053 0.789263 0)
(0.111345 0.822465 0)
(3 8.40055e-15 0)
(3 2.42163e-14 0)
(3 2.19036e-14 0)
(3 2.23551e-14 0)
(3 4.42685e-14 0)
(3 5.29169e-14 0)
(3 2.93913e-14 0)
(3 2.50896e-14 0)
(3 2.44446e-14 0)
(3 1.30538e-14 0)
(3 -2.458e-14 0)
(3 3.92859e-14 0)
(3 9.28669e-14 0)
(3 8.15303e-14 0)
(3 6.09412e-14 0)
(3 4.89111e-15 0)
(3 4.104e-14 0)
(3 1.06124e-13 0)
(3 1.58685e-13 0)
(3 1.0466e-13 0)
(3 8.54168e-14 0)
(3 8.98317e-14 0)
(3 3.1547e-14 0)
(3 -2.56325e-14 0)
(3 -1.60358e-08 0)
(2.3188 0.374655 0)
(0.909149 0.436933 0)
(0.785082 0.375124 0)
(0.753153 0.373003 0)
(0.726511 0.377212 0)
(0.705325 0.385442 0)
(0.687714 0.395892 0)
(0.672452 0.408523 0)
(0.658739 0.423906 0)
(0.644614 0.442034 0)
(0.630875 0.463415 0)
(0.613475 0.485003 0)
(0.590487 0.504418 0)
(0.561277 0.519983 0)
(0.529957 0.539174 0)
(0.495407 0.559815 0)
(0.463438 0.591106 0)
(0.429055 0.628475 0)
(0.39941 0.680112 0)
(0.356866 0.7375 0)
(0.316261 0.835717 0)
(0.206798 0.94528 0)
(0.160818 1.03843 0)
(3 1.84554e-14 0)
(3 1.16899e-14 0)
(3 3.9632e-16 0)
(3 4.82819e-15 0)
(3 3.20093e-14 0)
(3 9.15783e-14 0)
(3 8.11472e-14 0)
(3 7.62401e-14 0)
(3 7.47142e-14 0)
(3 5.59059e-14 0)
(3 5.9023e-14 0)
(3 5.83366e-14 0)
(3 4.59926e-14 0)
(3 3.43982e-14 0)
(3 -5.89684e-14 0)
(3 -9.39798e-14 0)
(3 -8.94295e-14 0)
(3 3.08036e-14 0)
(3 8.05268e-14 0)
(3 1.12877e-13 0)
(3 9.67252e-14 0)
(3 9.59459e-14 0)
(3 7.97622e-14 0)
(3 3.01579e-14 0)
(3 -1.60566e-09 0)
(2.91004 0.19047 0)
(1.07561 0.463882 0)
(0.861247 0.398331 0)
(0.824028 0.394598 0)
(0.777826 0.400215 0)
(0.740033 0.406639 0)
(0.710864 0.415013 0)
(0.687841 0.426346 0)
(0.669834 0.441086 0)
(0.654479 0.458841 0)
(0.64177 0.480896 0)
(0.629877 0.506077 0)
(0.614567 0.531521 0)
(0.593951 0.553802 0)
(0.569574 0.577877 0)
(0.540266 0.601308 0)
(0.513204 0.63472 0)
(0.483204 0.673474 0)
(0.462154 0.731222 0)
(0.42696 0.810115 0)
(0.410537 0.944845 0)
(0.395138 1.09503 0)
(0.539431 1.34774 0)
(3 -4.01882e-15 0)
(3 -3.77022e-14 0)
(3 -6.12492e-14 0)
(3 -6.26559e-14 0)
(3 -4.38037e-14 0)
(3 1.26398e-14 0)
(3 8.29563e-14 0)
(3 9.97108e-14 0)
(3 1.18155e-13 0)
(3 1.33009e-13 0)
(3 1.4283e-13 0)
(3 1.59389e-13 0)
(3 1.09355e-13 0)
(3 9.67358e-14 0)
(3 8.36296e-15 0)
(3 -2.44235e-14 0)
(3 -1.77368e-14 0)
(3 9.87315e-15 0)
(3 5.60049e-14 0)
(3 8.77302e-14 0)
(3 1.32719e-13 0)
(3 1.15252e-13 0)
(3 5.04377e-14 0)
(3 2.52656e-14 0)
(3 -6.20428e-11 0)
(3.04697 0.0116978 0)
(1.26798 0.427798 0)
(0.883617 0.429528 0)
(0.857702 0.447287 0)
(0.821839 0.445136 0)
(0.783335 0.442877 0)
(0.74735 0.444959 0)
(0.716372 0.450447 0)
(0.691703 0.461105 0)
(0.672633 0.476368 0)
(0.657796 0.49702 0)
(0.646909 0.522913 0)
(0.637248 0.551994 0)
(0.624149 0.580274 0)
(0.608713 0.610266 0)
(0.58703 0.638401 0)
(0.567767 0.674927 0)
(0.544655 0.715572 0)
(0.532967 0.777885 0)
(0.523569 0.869545 0)
(0.537772 1.00933 0)
(0.624697 1.16098 0)
(0.932407 1.34934 0)
(3 -7.02002e-15 0)
(3 -2.88521e-15 0)
(3 -9.93547e-15 0)
(3 -9.51894e-15 0)
(3 1.09701e-14 0)
(3 2.14913e-14 0)
(3 2.42418e-14 0)
(3 8.0598e-15 0)
(3 3.95774e-14 0)
(3 3.71576e-14 0)
(3 4.96741e-14 0)
(3 8.13893e-14 0)
(3 5.59954e-14 0)
(3 -1.79748e-15 0)
(3 4.5106e-15 0)
(3 3.43662e-14 0)
(3 5.42918e-14 0)
(3 8.51696e-14 0)
(3 1.00496e-13 0)
(3 9.90621e-14 0)
(3 8.73927e-14 0)
(3 6.18223e-14 0)
(3 -9.19275e-15 0)
(3 -7.96833e-15 0)
(3 -1.29951e-12 0)
(3.00172 -8.19693e-06 0)
(1.49242 0.424687 0)
(0.865943 0.459361 0)
(0.844428 0.4704 0)
(0.822963 0.474048 0)
(0.801098 0.47568 0)
(0.775279 0.47836 0)
(0.746797 0.481459 0)
(0.720036 0.487796 0)
(0.697051 0.498622 0)
(0.679503 0.515778 0)
(0.666803 0.539526 0)
(0.659925 0.569331 0)
(0.651648 0.601443 0)
(0.645289 0.636472 0)
(0.632801 0.670322 0)
(0.623597 0.710599 0)
(0.61109 0.753805 0)
(0.610458 0.815851 0)
(0.625344 0.906077 0)
(0.672833 1.02885 0)
(0.822817 1.16529 0)
(1.15876 1.28006 0)
(3 1.24254e-14 0)
(3 1.522e-14 0)
(3 2.35117e-14 0)
(3 1.13899e-14 0)
(3 -7.10153e-15 0)
(3 -2.19348e-14 0)
(3 -5.26816e-14 0)
(3 -2.46958e-14 0)
(3 -3.95577e-14 0)
(3 -8.58097e-14 0)
(3 -8.41234e-14 0)
(3 -8.74788e-14 0)
(3 -5.47801e-14 0)
(3 -9.18963e-14 0)
(3 -6.04088e-14 0)
(3 -2.44882e-14 0)
(3 -3.91104e-14 0)
(3 1.98197e-15 0)
(3 3.69431e-14 0)
(3 1.84776e-14 0)
(3 -1.01626e-14 0)
(3 -2.17817e-14 0)
(3 -6.97865e-14 0)
(3 -7.94489e-14 0)
(3 -2.48662e-15 0)
(3 -1.98574e-07 0)
(1.93157 0.452111 0)
(0.894562 0.491401 0)
(0.831329 0.477182 0)
(0.825615 0.487666 0)
(0.812162 0.495875 0)
(0.795695 0.503467 0)
(0.774605 0.508946 0)
(0.751645 0.515339 0)
(0.72832 0.523016 0)
(0.709023 0.536554 0)
(0.69299 0.556396 0)
(0.686146 0.584211 0)
(0.680257 0.617025 0)
(0.680359 0.654847 0)
(0.676968 0.693981 0)
(0.678598 0.73778 0)
(0.678723 0.783973 0)
(0.690776 0.84269 0)
(0.721854 0.923728 0)
(0.798189 1.0293 0)
(0.969725 1.13813 0)
(1.25042 1.20955 0)
(3 -1.34544e-14 0)
(3 -2.3575e-15 0)
(3 1.28555e-14 0)
(3 6.35065e-15 0)
(3 -2.11884e-14 0)
(3 -8.13508e-14 0)
(3 -7.61856e-14 0)
(3 -4.41596e-14 0)
(3 -4.6364e-14 0)
(3 -8.4141e-14 0)
(3 -1.41368e-13 0)
(3 -1.65398e-13 0)
(3 -1.0885e-13 0)
(3 -5.13915e-14 0)
(3 -1.34429e-14 0)
(3 -2.78781e-14 0)
(3 -7.0747e-14 0)
(3 -1.37898e-14 0)
(3 -8.19508e-15 0)
(3 -1.31711e-14 0)
(3 2.18105e-14 0)
(3 8.14903e-14 0)
(3 1.0521e-13 0)
(3 1.28322e-13 0)
(3 5.10268e-14 0)
(3 -2.52913e-07 0)
(2.60777 0.358115 0)
(1.01445 0.546419 0)
(0.873804 0.48499 0)
(0.854998 0.494711 0)
(0.837123 0.509166 0)
(0.820691 0.522117 0)
(0.802119 0.53234 0)
(0.783315 0.542149 0)
(0.762324 0.550301 0)
(0.743093 0.562292 0)
(0.725367 0.57748 0)
(0.716226 0.60161 0)
(0.711221 0.6321 0)
(0.71465 0.669256 0)
(0.718605 0.71085 0)
(0.729976 0.757083 0)
(0.743127 0.805987 0)
(0.767736 0.861456 0)
(0.811242 0.931437 0)
(0.903582 1.0167 0)
(1.06936 1.09679 0)
(1.30238 1.14512 0)
(3 6.68943e-15 0)
(3 1.60699e-14 0)
(3 1.87598e-14 0)
(3 3.36671e-14 0)
(3 5.57158e-14 0)
(3 1.83029e-15 0)
(3 1.07639e-14 0)
(3 1.81602e-14 0)
(3 3.96644e-14 0)
(3 3.29962e-14 0)
(3 -1.03685e-13 0)
(3 -1.47994e-13 0)
(3 -1.58255e-13 0)
(3 1.29638e-14 0)
(3 5.80378e-14 0)
(3 3.73814e-14 0)
(3 -1.95712e-14 0)
(3 -6.33804e-14 0)
(3 -3.66237e-14 0)
(3 -3.63214e-15 0)
(3 5.36292e-14 0)
(3 1.12077e-13 0)
(3 1.49345e-13 0)
(3 9.18694e-14 0)
(3 8.34051e-14 0)
(3 -5.32704e-08 0)
(3.08197 0.0486726 0)
(1.26847 0.525521 0)
(0.92972 0.513987 0)
(0.897134 0.523651 0)
(0.872157 0.531281 0)
(0.851381 0.540741 0)
(0.833213 0.551122 0)
(0.817139 0.562988 0)
(0.799055 0.573215 0)
(0.781712 0.586252 0)
(0.76429 0.598919 0)
(0.752536 0.619241 0)
(0.746721 0.6461 0)
(0.750466 0.680277 0)
(0.758762 0.720723 0)
(0.776652 0.766844 0)
(0.800856 0.81697 0)
(0.83653 0.870367 0)
(0.890736 0.931506 0)
(0.988019 0.997465 0)
(1.13647 1.05287 0)
(1.32467 1.08408 0)
(3 -1.20883e-15 0)
(3 -6.77816e-15 0)
(3 -4.69705e-15 0)
(3 1.89532e-14 0)
(3 7.55618e-14 0)
(3 7.93218e-14 0)
(3 1.03868e-13 0)
(3 9.82022e-14 0)
(3 4.35372e-14 0)
(3 9.23614e-14 0)
(3 4.95753e-14 0)
(3 -3.15183e-15 0)
(3 -2.67853e-14 0)
(3 -6.41701e-14 0)
(3 -3.94914e-14 0)
(3 -2.22356e-14 0)
(3 -1.21801e-14 0)
(3 -4.8053e-14 0)
(3 -4.17864e-14 0)
(3 2.61221e-14 0)
(3 9.86607e-14 0)
(3 5.59574e-14 0)
(3 1.60984e-14 0)
(3 -5.96442e-15 0)
(3 9.18739e-15 0)
(3 -5.40474e-09 0)
(3.0094 0.000129061 0)
(1.49688 0.507562 0)
(0.919183 0.571361 0)
(0.892583 0.556519 0)
(0.876685 0.558052 0)
(0.862244 0.564686 0)
(0.84926 0.57427 0)
(0.838379 0.586636 0)
(0.826043 0.598232 0)
(0.814384 0.612375 0)
(0.801246 0.624728 0)
(0.790865 0.641654 0)
(0.785077 0.663789 0)
(0.788352 0.693315 0)
(0.798948 0.729583 0)
(0.820084 0.771951 0)
(0.851089 0.819724 0)
(0.895426 0.870889 0)
(0.958461 0.925422 0)
(1.05548 0.978217 0)
(1.18558 1.01696 0)
(1.34201 1.03604 0)
(3 -1.75666e-14 0)
(3 2.3952e-15 0)
(3 1.73514e-14 0)
(3 1.06134e-14 0)
(3 5.533e-15 0)
(3 2.63105e-14 0)
(3 6.12129e-14 0)
(3 7.57197e-14 0)
(3 3.55314e-14 0)
(3 3.75006e-14 0)
(3 9.81385e-14 0)
(3 5.50213e-14 0)
(3 9.97944e-15 0)
(3 -3.94812e-14 0)
(3 -4.90757e-14 0)
(3 -9.79823e-14 0)
(3 -8.67713e-14 0)
(3 -4.26906e-14 0)
(3 -3.1055e-14 0)
(3 -3.22555e-14 0)
(3 2.68121e-14 0)
(3 2.04322e-14 0)
(3 2.16166e-14 0)
(3 2.4665e-14 0)
(3 -6.97809e-15 0)
(3 -1.70132e-10 0)
(3.00007 -2.52467e-06 0)
(2.0634 0.511754 0)
(0.966707 0.603487 0)
(0.904793 0.567749 0)
(0.894654 0.572911 0)
(0.882772 0.58034 0)
(0.871648 0.589278 0)
(0.862729 0.601807 0)
(0.853637 0.614695 0)
(0.846433 0.630322 0)
(0.838155 0.644657 0)
(0.831181 0.661199 0)
(0.826691 0.680162 0)
(0.829226 0.705447 0)
(0.840343 0.737057 0)
(0.862173 0.774286 0)
(0.895358 0.816872 0)
(0.943693 0.86324 0)
(1.01121 0.910813 0)
(1.1057 0.955603 0)
(1.22025 0.984634 0)
(1.35387 0.995224 0)
(3 9.80179e-15 0)
(3 -4.66006e-15 0)
(3 -1.39768e-14 0)
(3 -1.9029e-14 0)
(3 -1.0366e-14 0)
(3 1.42172e-14 0)
(3 -2.03929e-14 0)
(3 -2.04508e-14 0)
(3 6.78933e-15 0)
(3 1.4605e-14 0)
(3 4.99263e-14 0)
(3 8.19255e-14 0)
(3 2.43244e-14 0)
(3 -1.9321e-14 0)
(3 -3.28969e-14 0)
(3 -5.37734e-14 0)
(3 -7.4258e-14 0)
(3 -6.63144e-14 0)
(3 -6.6848e-14 0)
(3 -6.75922e-14 0)
(3 -8.72032e-14 0)
(3 -5.35493e-14 0)
(3 6.47119e-15 0)
(3 1.21279e-14 0)
(3 2.69969e-14 0)
(3 -3.07976e-13 0)
(3.00001 -3.3031e-06 0)
(2.87676 0.245458 0)
(1.15503 0.616473 0)
(0.962351 0.573862 0)
(0.938173 0.580564 0)
(0.917905 0.593766 0)
(0.901833 0.604246 0)
(0.890509 0.617334 0)
(0.881012 0.630545 0)
(0.875686 0.646762 0)
(0.871288 0.662951 0)
(0.868701 0.680447 0)
(0.867719 0.698427 0)
(0.871174 0.719932 0)
(0.882546 0.746706 0)
(0.904187 0.778398 0)
(0.937493 0.814614 0)
(0.986244 0.854179 0)
(1.05366 0.894697 0)
(1.1443 0.93318 0)
(1.24672 0.956875 0)
(1.36555 0.965278 0)
(3 4.16292e-15 0)
(3 -1.9864e-14 0)
(3 -4.16405e-15 0)
(3 3.33747e-14 0)
(3 3.26353e-14 0)
(3 1.89641e-14 0)
(3 -1.74424e-15 0)
(3 -5.4019e-14 0)
(3 -3.82887e-14 0)
(3 2.03529e-15 0)
(3 3.82017e-14 0)
(3 -1.35996e-15 0)
(3 -2.12177e-14 0)
(3 -5.32719e-14 0)
(3 -4.53743e-14 0)
(3 1.26859e-14 0)
(3 -1.08545e-14 0)
(3 -4.39438e-14 0)
(3 -5.62695e-14 0)
(3 -1.93498e-14 0)
(3 -9.77044e-14 0)
(3 -9.69766e-14 0)
(3 -7.8273e-14 0)
(3 -5.33091e-14 0)
(3 2.79817e-15 0)
(3 5.78323e-14 0)
(3 -6.9785e-07 0)
(3.05617 0.012862 0)
(1.40334 0.574204 0)
(0.991872 0.624815 0)
(0.963885 0.620932 0)
(0.939228 0.623733 0)
(0.92404 0.627439 0)
(0.913799 0.637079 0)
(0.905491 0.647651 0)
(0.901837 0.661962 0)
(0.9008 0.677876 0)
(0.902446 0.695541 0)
(0.90618 0.713793 0)
(0.912619 0.73317 0)
(0.924806 0.755742 0)
(0.945926 0.782186 0)
(0.978454 0.81197 0)
(1.02475 0.843625 0)
(1.08729 0.877466 0)
(1.16976 0.908345 0)
(1.26124 0.927674 0)
(1.36902 0.935729 0)
(3 -6.5064e-15 0)
(3 -4.23349e-15 0)
(3 5.5503e-15 0)
(3 6.84761e-14 0)
(3 8.13847e-14 0)
(3 2.95097e-14 0)
(3 -2.37196e-14 0)
(3 -2.91068e-14 0)
(3 5.04276e-14 0)
(3 8.31116e-14 0)
(3 3.22086e-14 0)
(3 -3.85911e-15 0)
(3 -8.02814e-14 0)
(3 -5.83737e-14 0)
(3 -3.25236e-14 0)
(3 -2.96032e-14 0)
(3 -2.57266e-14 0)
(3 -3.58934e-14 0)
(3 -2.57539e-14 0)
(3 3.39051e-16 0)
(3 -4.31637e-14 0)
(3 -6.48542e-14 0)
(3 -9.99757e-14 0)
(3 -7.795e-14 0)
(3 3.47e-15 0)
(3 5.63347e-14 0)
(3 -7.05495e-08 0)
(3.00182 -1.0451e-06 0)
(1.86759 0.566409 0)
(0.99975 0.661341 0)
(0.965517 0.638785 0)
(0.958349 0.64393 0)
(0.949531 0.646032 0)
(0.940381 0.653644 0)
(0.932842 0.662253 0)
(0.929053 0.674703 0)
(0.929328 0.689793 0)
(0.933368 0.707125 0)
(0.940645 0.725916 0)
(0.951229 0.745247 0)
(0.96513 0.765481 0)
(0.986667 0.788275 0)
(1.01902 0.81299 0)
(1.06264 0.838523 0)
(1.11987 0.866174 0)
(1.19382 0.889742 0)
(1.27584 0.904266 0)
(1.37369 0.912748 0)
(3 1.26874e-14 0)
(3 1.87156e-14 0)
(3 5.05953e-15 0)
(3 -2.12759e-14 0)
(3 7.03683e-15 0)
(3 2.5944e-14 0)
(3 1.34664e-14 0)
(3 4.4305e-14 0)
(3 2.82283e-14 0)
(3 -3.27293e-15 0)
(3 -2.74502e-14 0)
(3 2.39526e-16 0)
(3 -5.32527e-14 0)
(3 -5.16454e-14 0)
(3 -2.43879e-14 0)
(3 -2.88096e-14 0)
(3 -4.15698e-14 0)
(3 -3.59638e-14 0)
(3 -4.35735e-14 0)
(3 -7.50667e-14 0)
(3 -3.38289e-14 0)
(3 -6.0455e-14 0)
(3 -1.0139e-13 0)
(3 -6.23254e-14 0)
(3 -4.83397e-14 0)
(3 -1.51636e-14 0)
(3 -2.22244e-09 0)
(3 -1.65185e-07 0)
(2.74095 0.328525 0)
(1.15192 0.674296 0)
(1.00134 0.638353 0)
(0.990396 0.649828 0)
(0.980088 0.659375 0)
(0.970154 0.668896 0)
(0.962185 0.677274 0)
(0.957597 0.687994 0)
(0.957481 0.701306 0)
(0.962571 0.717432 0)
(0.971196 0.735081 0)
(0.98546 0.754399 0)
(1.00186 0.773277 0)
(1.02534 0.79231 0)
(1.05727 0.812631 0)
(1.09775 0.832923 0)
(1.14987 0.853953 0)
(1.21408 0.870941 0)
(1.28629 0.881612 0)
(1.37361 0.889454 0)
(3 1.39981e-15 0)
(3 5.34405e-15 0)
(3 1.2779e-15 0)
(3 -5.78429e-14 0)
(3 -8.4305e-14 0)
(3 -3.0134e-14 0)
(3 1.07559e-14 0)
(3 2.74972e-14 0)
(3 -2.11137e-14 0)
(3 -1.01244e-13 0)
(3 -7.04618e-14 0)
(3 -7.86401e-14 0)
(3 -8.74903e-14 0)
(3 -4.54521e-14 0)
(3 -2.91432e-14 0)
(3 -3.56202e-14 0)
(3 -6.68141e-14 0)
(3 -5.33737e-14 0)
(3 -6.56293e-14 0)
(3 -9.21253e-14 0)
(3 -7.79755e-14 0)
(3 -2.46162e-14 0)
(3 -3.97676e-14 0)
(3 -6.23079e-14 0)
(3 -8.17681e-14 0)
(3 -4.84877e-14 0)
(3 -5.2504e-12 0)
(3 -2.1418e-07 0)
(3.06952 0.0241332 0)
(1.44177 0.640686 0)
(1.04696 0.682751 0)
(1.01475 0.679987 0)
(1.00023 0.683527 0)
(0.990831 0.690232 0)
(0.98536 0.695562 0)
(0.983107 0.703674 0)
(0.98425 0.713705 0)
(0.990181 0.727449 0)
(0.999601 0.743202 0)
(1.01528 0.761045 0)
(1.0344 0.779254 0)
(1.06021 0.797636 0)
(1.0924 0.815786 0)
(1.13095 0.832739 0)
(1.17987 0.849043 0)
(1.23622 0.861271 0)
(1.30114 0.869326 0)
(1.37832 0.875115 0)
(3 -1.67602e-14 0)
(3 -3.03986e-14 0)
(3 -4.86754e-14 0)
(3 -2.95791e-14 0)
(3 -4.69975e-14 0)
(3 -8.78869e-14 0)
(3 -8.65568e-14 0)
(3 -7.20007e-14 0)
(3 -5.32494e-14 0)
(3 -4.29884e-14 0)
(3 -4.73515e-14 0)
(3 -3.95312e-14 0)
(3 -2.26623e-14 0)
(3 -3.46004e-14 0)
(3 -9.14482e-14 0)
(3 -9.88606e-14 0)
(3 -8.05122e-14 0)
(3 -3.22446e-14 0)
(3 7.65442e-15 0)
(3 3.97966e-14 0)
(3 8.78512e-15 0)
(3 2.08708e-14 0)
(3 5.07614e-14 0)
(3 -1.39012e-14 0)
(3 -1.26992e-13 0)
(3 -8.68027e-14 0)
(3 -3.58987e-15 0)
(3 -4.56812e-08 0)
(3.00346 7.60096e-05 0)
(2.00182 0.609483 0)
(1.07339 0.72823 0)
(1.03546 0.699364 0)
(1.03069 0.698 0)
(1.02193 0.703803 0)
(1.0151 0.708357 0)
(1.01278 0.71603 0)
(1.01383 0.724544 0)
(1.01915 0.736792 0)
(1.02826 0.749559 0)
(1.043 0.766042 0)
(1.0636 0.781983 0)
(1.09032 0.798453 0)
(1.12216 0.814293 0)
(1.15976 0.828632 0)
(1.2059 0.841372 0)
(1.25655 0.850496 0)
(1.31598 0.85646 0)
(1.38348 0.85992 0)
(3 4.98236e-15 0)
(3 -5.23132e-15 0)
(3 -1.88663e-14 0)
(3 -2.46291e-14 0)
(3 -3.91444e-14 0)
(3 -7.19233e-14 0)
(3 -8.63421e-14 0)
(3 -7.29472e-14 0)
(3 -4.10838e-14 0)
(3 -2.57734e-15 0)
(3 -3.39551e-16 0)
(3 4.16037e-14 0)
(3 6.98497e-14 0)
(3 5.10674e-14 0)
(3 2.33174e-14 0)
(3 1.49751e-14 0)
(3 3.5168e-14 0)
(3 -1.59409e-14 0)
(3 -5.04764e-15 0)
(3 2.0353e-14 0)
(3 5.90046e-14 0)
(3 6.02482e-14 0)
(3 7.58091e-14 0)
(3 6.01737e-14 0)
(3 1.51952e-14 0)
(3 -8.78608e-14 0)
(3 -2.32826e-14 0)