/*--------------------------------*- C++ -*----------------------------------*\
  =========                 |
  \\      /  F ield         | OpenFOAM: The Open Source CFD Toolbox
   \\    /   O peration     | Website:  https://openfoam.org
    \\  /    A nd           | Version:  10
     \\/     M anipulation  |
\*---------------------------------------------------------------------------*/
FoamFile
{
    format      ascii;
    class       volScalarField;
    location    "18";
    object      p;
}
// * * * * * * * * * * * * * * * * * * * * * * * * * * * * * * * * * * * * * //

dimensions      [0 2 -2 0 0 0 0];

internalField   nonuniform List<scalar> 
8800
(
0.403119
0.35534
0.316667
0.287687
0.266838
0.252021
0.241433
0.233951
0.229099
0.226947
0.228027
0.232012
0.238466
0.247625
0.260285
0.277932
0.302646
0.336539
0.379043
0.43774
0.234348
0.242028
0.249533
0.252857
0.251373
0.246322
0.239864
0.233808
0.22907
0.226152
0.225719
0.228019
0.232301
0.238058
0.244671
0.250831
0.254383
0.253597
0.248104
0.239371
0.212716
0.21889
0.223044
0.226028
0.228116
0.22876
0.227686
0.225586
0.223528
0.222502
0.223261
0.225415
0.227998
0.229985
0.230426
0.229095
0.226643
0.223166
0.218567
0.214795
0.206859
0.209528
0.212348
0.214832
0.216541
0.217759
0.218536
0.21867
0.21834
0.218158
0.218686
0.219591
0.220171
0.220006
0.219198
0.217928
0.21595
0.213237
0.21075
0.209244
0.201449
0.20289
0.204767
0.206923
0.20883
0.210277
0.21133
0.212137
0.212702
0.213125
0.213511
0.213698
0.213505
0.21294
0.211971
0.210466
0.208537
0.206492
0.205077
0.204253
0.196375
0.197303
0.198698
0.200469
0.202302
0.204007
0.205431
0.206563
0.207495
0.208225
0.208603
0.208552
0.20812
0.207284
0.206015
0.204447
0.202778
0.201227
0.200269
0.199741
0.19163
0.192285
0.193452
0.195055
0.196759
0.198486
0.200145
0.201577
0.202713
0.203577
0.204058
0.204023
0.203459
0.202421
0.201081
0.199629
0.198136
0.196816
0.196076
0.195718
0.187271
0.187745
0.18875
0.190226
0.191803
0.193373
0.194948
0.196524
0.197964
0.199105
0.199653
0.199529
0.198893
0.19796
0.196859
0.195607
0.194273
0.193125
0.192536
0.19229
0.183378
0.183683
0.184579
0.185988
0.187527
0.189097
0.190658
0.192142
0.193557
0.194805
0.195558
0.195682
0.195336
0.194607
0.193608
0.192453
0.191225
0.190186
0.189723
0.189587
0.180439
0.180602
0.181295
0.182518
0.183895
0.185315
0.186809
0.188388
0.189958
0.191401
0.192375
0.192696
0.192496
0.191958
0.191211
0.190324
0.189327
0.188534
0.188236
0.188177
0.178134
0.178233
0.178645
0.179447
0.180445
0.181569
0.18283
0.184258
0.185839
0.18747
0.188753
0.18945
0.18968
0.189603
0.1893
0.188853
0.188356
0.18798
0.187839
0.187798
0.175472
0.175558
0.175828
0.176348
0.177098
0.178094
0.179355
0.18088
0.182656
0.184575
0.186228
0.187275
0.187817
0.187951
0.187908
0.18786
0.187754
0.187662
0.187602
0.18756
0.171974
0.172044
0.172276
0.172693
0.173362
0.174244
0.175475
0.177084
0.17907
0.181362
0.18347
0.184947
0.185853
0.186474
0.186804
0.187025
0.187157
0.187192
0.18717
0.18713
0.167697
0.167742
0.167992
0.168488
0.169167
0.170178
0.171585
0.173426
0.175772
0.178528
0.181202
0.183198
0.18454
0.185425
0.186028
0.186408
0.186626
0.186698
0.186708
0.186678
0.162839
0.16287
0.163138
0.163751
0.16463
0.16574
0.167393
0.169564
0.172345
0.175751
0.179123
0.181731
0.183573
0.184828
0.185661
0.18619
0.18645
0.186563
0.186612
0.186591
0.157451
0.157478
0.157751
0.158442
0.159542
0.160917
0.162862
0.165451
0.168821
0.17302
0.17727
0.180615
0.183038
0.184734
0.185833
0.18653
0.186906
0.187103
0.187188
0.187168
0.151432
0.15146
0.151775
0.152532
0.153734
0.155466
0.157807
0.160965
0.165121
0.170341
0.175669
0.179918
0.182975
0.185133
0.18663
0.187578
0.18814
0.18845
0.188567
0.188542
0.144473
0.144506
0.144906
0.145751
0.147153
0.14921
0.152075
0.155985
0.161156
0.167671
0.174341
0.179686
0.183576
0.186352
0.188231
0.189469
0.190242
0.190672
0.190822
0.190789
0.136175
0.136216
0.136681
0.137736
0.139454
0.141966
0.145514
0.150408
0.156886
0.165032
0.173358
0.180021
0.184918
0.188361
0.190735
0.192324
0.193334
0.193892
0.194079
0.194036
0.126124
0.126178
0.12678
0.128092
0.130246
0.133412
0.13791
0.14409
0.152235
0.162428
0.172791
0.181066
0.187101
0.191371
0.194328
0.196321
0.197596
0.198294
0.198525
0.198471
0.113779
0.11385
0.114635
0.116343
0.119129
0.123205
0.128968
0.136838
0.147135
0.159887
0.172723
0.182906
0.190319
0.195575
0.199223
0.201694
0.203279
0.204139
0.204423
0.204354
0.098387
0.0984885
0.0995406
0.101818
0.10551
0.11086
0.11836
0.128494
0.141556
0.157471
0.173276
0.185723
0.194763
0.201185
0.20566
0.208709
0.210671
0.211721
0.212062
0.211976
0.0787903
0.0789349
0.0803999
0.0835652
0.0886231
0.0958325
0.105782
0.118947
0.135527
0.155299
0.174608
0.189685
0.200624
0.208422
0.213892
0.217651
0.220088
0.221391
0.221799
0.221686
0.0531948
0.0534266
0.0556045
0.0602567
0.0674612
0.0774775
0.0909165
0.108136
0.129157
0.153547
0.176897
0.194967
0.208079
0.217488
0.224157
0.228795
0.231829
0.233451
0.233939
0.233793
0.018569
0.0190242
0.0226411
0.0300295
0.0408345
0.0552153
0.0736379
0.0962102
0.122696
0.15245
0.180324
0.201697
0.217238
0.228504
0.236619
0.242375
0.246201
0.248239
0.24882
0.248624
-0.0310538
-0.0295046
-0.0221444
-0.00916721
0.00792793
0.029033
0.0543286
0.0836519
0.116568
0.152309
0.185045
0.209931
0.228087
0.241424
0.251246
0.258413
0.26333
0.266003
0.266732
0.266459
-0.105181
-0.0963018
-0.0794481
-0.0563377
-0.0297865
0.000279157
0.0339632
0.0710657
0.111138
0.153441
0.191513
0.22035
0.241577
0.257473
0.26956
0.278833
0.28556
0.289485
0.290704
0.290646
-0.184448
-0.164418
-0.137426
-0.103966
-0.0677475
-0.0285947
0.0135646
0.0586366
0.106284
0.155907
0.200382
0.23428
0.259602
0.278991
0.294184
0.306238
0.315474
0.321885
0.324271
0.324369
-0.247688
-0.225153
-0.189982
-0.148251
-0.103502
-0.0559628
-0.00573259
0.0470125
0.101937
0.158481
0.208842
0.247194
0.275955
0.298126
0.315606
0.329583
0.3404
0.347904
0.349944
0.350309
-0.299014
-0.274403
-0.234384
-0.186746
-0.135397
-0.0809556
-0.0237379
0.0359176
0.0975228
0.160418
0.216008
0.258079
0.289462
0.313519
0.332364
0.347346
0.35888
0.366663
0.369146
0.369575
-0.340883
-0.315469
-0.271973
-0.219862
-0.163317
-0.103308
-0.0402251
0.0254199
0.0929686
0.161553
0.221732
0.266854
0.300152
0.325405
0.34499
0.360415
0.372177
0.379973
0.382691
0.383071
-0.376504
-0.350633
-0.304685
-0.248948
-0.188185
-0.123505
-0.0553936
0.0154855
0.0883201
0.162033
0.226282
0.274013
0.308869
0.334997
0.354993
0.370511
0.382233
0.38999
0.392864
0.393239
-0.407806
-0.381707
-0.333866
-0.275141
-0.210842
-0.142138
-0.0696465
0.00589305
0.083519
0.161953
0.230039
0.280213
0.31645
0.343265
0.363524
0.379044
0.390689
0.398308
0.401298
0.40166
-0.436254
-0.409948
-0.36055
-0.299327
-0.231999
-0.159796
-0.0833989
-0.00363445
0.078429
0.161336
0.233083
0.285587
0.323162
0.350675
0.371235
0.386826
0.398437
0.405917
0.408954
0.409316
-0.462684
-0.436189
-0.385468
-0.32209
-0.252112
-0.176824
-0.0969465
-0.0133511
0.0728312
0.159982
0.235346
0.290306
0.329365
0.357705
0.378657
0.394385
0.406003
0.413323
0.41633
0.416777
-0.48779
-0.461045
-0.409111
-0.343851
-0.27154
-0.193528
-0.110538
-0.0234504
0.0665646
0.157861
0.236969
0.294561
0.335269
0.364589
0.386067
0.402026
0.413687
0.420932
0.423833
0.424291
-0.511838
-0.484812
-0.431765
-0.364918
-0.290519
-0.210073
-0.124288
-0.03401
0.0596286
0.154978
0.237892
0.298332
0.340944
0.371456
0.393637
0.409961
0.421749
0.428955
0.431715
0.432097
-0.535172
-0.507763
-0.453837
-0.385443
-0.309174
-0.226567
-0.138262
-0.0450685
0.0519381
0.151179
0.237991
0.301561
0.346407
0.378376
0.401453
0.418281
0.430275
0.437466
0.440061
0.440346
-0.55783
-0.529974
-0.475347
-0.405522
-0.327604
-0.243076
-0.152516
-0.0566925
0.0434038
0.146395
0.237185
0.30414
0.351561
0.385301
0.409501
0.426989
0.439282
0.446476
0.448941
0.449071
-0.579881
-0.55171
-0.496259
-0.425197
-0.345827
-0.259596
-0.167054
-0.0688926
0.0340392
0.14058
0.23534
0.305934
0.356266
0.392143
0.417747
0.436068
0.448733
0.455913
0.458237
0.458217
-0.601405
-0.572813
-0.516628
-0.444466
-0.363825
-0.276102
-0.181826
-0.0815989
0.023866
0.133684
0.232335
0.30675
0.360374
0.398796
0.42613
0.445474
0.458575
0.465705
0.467834
0.467678
-0.622442
-0.593362
-0.536462
-0.463316
-0.381553
-0.292543
-0.196763
-0.0947572
0.0129197
0.125694
0.228066
0.306381
0.363641
0.405094
0.434592
0.455184
0.468738
0.475733
0.477577
0.477302
-0.642813
-0.613286
-0.55571
-0.481705
-0.398961
-0.30884
-0.211796
-0.108285
0.00127928
0.116651
0.222451
0.30463
0.365759
0.41077
0.443044
0.465238
0.479175
0.485794
0.487244
0.48685
-0.662491
-0.632546
-0.574355
-0.499575
-0.415986
-0.324933
-0.226833
-0.122086
-0.0109547
0.106607
0.215456
0.301319
0.366419
0.415459
0.451329
0.475843
0.490146
0.495822
0.496548
0.496059
-0.681536
-0.651099
-0.59236
-0.516892
-0.432571
-0.340741
-0.241779
-0.136048
-0.0236753
0.0956568
0.207082
0.29632
0.365277
0.418618
0.459037
0.487235
0.502509
0.506304
0.505258
0.504668
-0.699791
-0.668937
-0.609675
-0.533594
-0.448658
-0.356183
-0.256541
-0.150058
-0.0367498
0.0839326
0.197391
0.289549
0.36205
0.419537
0.46526
0.499151
0.517772
0.519999
0.514845
0.512937
-0.717346
-0.686058
-0.626325
-0.549709
-0.464282
-0.371308
-0.271176
-0.164174
-0.0502426
0.0713694
0.186274
0.280775
0.356437
0.417389
0.468381
0.509965
0.536106
0.542723
0.533655
0.512718
-0.734146
-0.702472
-0.642432
-0.565415
-0.479718
-0.386428
-0.286079
-0.178861
-0.0646866
0.0573121
0.173028
0.269104
0.3476
0.410948
0.465119
0.514281
0.547829
0.5535
0.5378
0.513
-0.750044
-0.71836
-0.657829
-0.580463
-0.494692
-0.401213
-0.301029
-0.193794
-0.079751
0.0420907
0.157879
0.254399
0.335166
0.399758
0.450886
0.50043
0.5316
0.526971
0.456633
0.415061
-0.76446
-0.734724
-0.672157
-0.594295
-0.508523
-0.415212
-0.315748
-0.208757
-0.0952164
0.0258679
0.140872
0.236616
0.318475
0.38433
0.426225
0.456385
0.472714
0.428751
0.353223
0.304134
-0.817613
-0.748483
-0.685143
-0.608331
-0.52259
-0.429757
-0.330297
-0.223992
-0.111389
0.00829437
0.12159
0.215479
0.295193
0.366268
0.376144
0.385613
0.356869
0.291168
0.207071
0.159803
-0.777537
-0.762657
-0.703626
-0.628242
-0.542767
-0.450446
-0.352188
-0.247058
-0.136276
-0.0194027
0.0897533
0.179138
0.249568
0.314222
0.317639
0.201182
0.0875453
0.00936713
-0.0722797
-0.0290562
-0.805881
-0.778212
-0.719004
-0.643521
-0.55856
-0.466659
-0.368398
-0.264207
-0.154957
-0.0406461
0.0645997
0.148869
0.211722
0.244418
0.192202
0.0309919
-0.116323
-0.220608
-0.335633
-0.267306
-0.82735
-0.796437
-0.736636
-0.660769
-0.57597
-0.4843
-0.38636
-0.283278
-0.175841
-0.0645941
0.0360907
0.114003
0.166753
0.170389
0.0525531
-0.156874
-0.339675
-0.480526
-0.646415
-0.586348
-0.847868
-0.815477
-0.75481
-0.678264
-0.593402
-0.501953
-0.404697
-0.302825
-0.197363
-0.0894953
0.00593365
0.0768684
0.11567
0.0809812
-0.102461
-0.346506
-0.582052
-0.794905
-1.03537
-1.02532
-0.867278
-0.834796
-0.773493
-0.696364
-0.611424
-0.520252
-0.423761
-0.323177
-0.219883
-0.115681
-0.0260135
0.0374933
0.0594457
-0.0163164
-0.252055
-0.52009
-0.801006
-1.05419
-1.36915
-1.7355
-0.886681
-0.85448
-0.79288
-0.715422
-0.630398
-0.53946
-0.443649
-0.344346
-0.243266
-0.142868
-0.0591283
-0.00353482
0.00113537
-0.125686
-0.384388
-0.655618
-0.934394
-1.17074
-1.26708
-1.41483
-0.906712
-0.874851
-0.813224
-0.735698
-0.650696
-0.560066
-0.464997
-0.367102
-0.268485
-0.172305
-0.0949255
-0.0483513
-0.0670714
-0.247806
-0.500585
-0.754267
-0.979325
-1.11938
-1.14725
-1.17498
-0.927718
-0.896174
-0.834644
-0.757194
-0.672359
-0.58216
-0.488011
-0.391746
-0.295926
-0.204485
-0.13395
-0.0980579
-0.146124
-0.362137
-0.605338
-0.833752
-1.01301
-1.0866
-1.10379
-1.10746
-0.949867
-0.918422
-0.857139
-0.779831
-0.695263
-0.60565
-0.512586
-0.418171
-0.325475
-0.23927
-0.176089
-0.152715
-0.228507
-0.471826
-0.703082
-0.910718
-1.0557
-1.08256
-1.07996
-1.07903
-0.973055
-0.941632
-0.880687
-0.803535
-0.719324
-0.630408
-0.538579
-0.446214
-0.356905
-0.276358
-0.221119
-0.210297
-0.315207
-0.578648
-0.79757
-0.971037
-1.04633
-1.06259
-1.06342
-1.06266
-0.997016
-0.965699
-0.904962
-0.828148
-0.744355
-0.656247
-0.565785
-0.475632
-0.389894
-0.315281
-0.268662
-0.267684
-0.414391
-0.683337
-0.895204
-1.00593
-1.04656
-1.04877
-1.05173
-1.05244
-1.02121
-0.990247
-0.929722
-0.853344
-0.770087
-0.682869
-0.593862
-0.506033
-0.42393
-0.355403
-0.317237
-0.3298
-0.510683
-0.784345
-1.01883
-1.04778
-1.0463
-1.05877
-1.0599
-1.05891
-1.04514
-1.01474
-0.95473
-0.878749
-0.796071
-0.709826
-0.622329
-0.536847
-0.458311
-0.395815
-0.365257
-0.397156
-0.593258
-0.867049
-1.21001
-1.28361
-1.18574
-1.10556
-1.06986
-1.06264
-1.06816
-1.03824
-0.979387
-0.903804
-0.821755
-0.73654
-0.650529
-0.567283
-0.492084
-0.435029
-0.411043
-0.457394
-0.661866
-0.887024
-1.2909
-1.53853
-1.287
-1.13409
-1.06433
-1.04341
-1.08931
-1.06033
-1.00252
-0.927774
-0.846521
-0.762235
-0.67761
-0.596302
-0.524038
-0.471025
-0.453602
-0.509589
-0.702919
-0.763834
-0.756666
-1.08022
-1.22801
-1.34618
-1.30645
-1.28863
-1.10745
-1.07991
-1.02351
-0.949767
-0.86937
-0.786083
-0.702614
-0.622702
-0.552575
-0.501923
-0.491673
-0.552244
-0.778556
-0.703401
-0.0954145
-0.265701
-0.989919
-1.32734
-1.3629
-1.37734
-1.1215
-1.09585
-1.04144
-0.968817
-0.88931
-0.806943
-0.724375
-0.645224
-0.575671
-0.52622
-0.521755
-0.592672
-1.02825
-1.52048
-1.89526
-2.38992
-2.47272
-2.06363
-1.73545
-1.70883
-1.13027
-1.10715
-1.05514
-0.983899
-0.905319
-0.82373
-0.741688
-0.662522
-0.591487
-0.540482
-0.534945
-0.661705
-1.38725
-2.63002
-3.96554
-4.5174
-4.42752
-3.91055
-3.29908
-2.99414
-1.13295
-1.1127
-1.06367
-0.994148
-0.916407
-0.835437
-0.753482
-0.673195
-0.598859
-0.539675
-0.522911
-0.632447
-1.35559
-2.40757
-3.59832
-4.10852
-3.9595
-3.45868
-2.98229
-2.75931
-1.12813
-1.11137
-1.06635
-0.998552
-0.921802
-0.841298
-0.758992
-0.676784
-0.596518
-0.523076
-0.473316
-0.453904
-0.715195
-0.930052
-0.9656
-0.836474
-0.513599
-0.18977
0.0394964
0.141017
-1.11538
-1.10188
-1.06149
-0.996642
-0.920687
-0.840738
-0.758358
-0.673885
-0.586447
-0.493461
-0.398334
-0.328254
-0.118707
0.312005
0.858813
1.45005
1.88322
2.14002
2.26324
2.29768
-1.09427
-1.08447
-1.04907
-0.987138
-0.91226
-0.833862
-0.75243
-0.666632
-0.572329
-0.460958
-0.339054
-0.217599
0.0173403
0.636047
1.3369
1.94247
2.38245
2.6392
2.7557
2.78814
-1.06405
-1.05761
-1.02721
-0.968276
-0.896332
-0.820848
-0.742539
-0.658679
-0.562924
-0.441742
-0.301396
-0.161454
0.00742166
0.521842
1.1163
1.61029
1.96088
2.16825
2.2713
2.30602
-1.02052
-1.01679
-0.99195
-0.938421
-0.871796
-0.802181
-0.731239
-0.65566
-0.566203
-0.443195
-0.28298
-0.130431
-0.00233346
0.328586
0.757717
1.11623
1.38846
1.55736
1.64939
1.6825
-0.960472
-0.957538
-0.938606
-0.894601
-0.837601
-0.778995
-0.721618
-0.662228
-0.588731
-0.47815
-0.311304
-0.133246
0.035834
0.191531
0.437999
0.670021
0.860584
0.98637
1.05204
1.07282
-0.880411
-0.878308
-0.865741
-0.836012
-0.795685
-0.754334
-0.716169
-0.680761
-0.640673
-0.564911
-0.420081
-0.222904
-0.045247
0.0730288
0.223649
0.383006
0.50677
0.592977
0.644586
0.655212
-0.805087
-0.803216
-0.795975
-0.779822
-0.757542
-0.735879
-0.720754
-0.717218
-0.728507
-0.746221
-0.673796
-0.467873
-0.250582
-0.153183
-0.0420123
0.0893194
0.198523
0.27185
0.306696
0.313254
-0.749398
-0.748543
-0.745862
-0.739524
-0.731835
-0.728945
-0.739852
-0.780166
-0.878843
-1.06339
-1.15572
-0.905911
-0.593616
-0.432661
-0.310304
-0.17807
-0.0671975
0.00659923
0.0419591
0.0442661
-0.705217
-0.705952
-0.706274
-0.706347
-0.709858
-0.72356
-0.760649
-0.850689
-1.06364
-1.48424
-1.84924
-1.55826
-1.0648
-0.78914
-0.600474
-0.418018
-0.281588
-0.197267
-0.165088
-0.166299
-0.652097
-0.653975
-0.656596
-0.661121
-0.672302
-0.697657
-0.754144
-0.88154
-1.18188
-1.80264
-2.34838
-2.06251
-1.45532
-1.10147
-0.834023
-0.614828
-0.46612
-0.388798
-0.364536
-0.365677
-0.577661
-0.579965
-0.583771
-0.590657
-0.604904
-0.634311
-0.69528
-0.828424
-1.13764
-1.76667
-2.26144
-1.9661
-1.49036
-1.17017
-0.886418
-0.700589
-0.602265
-0.566396
-0.553903
-0.551756
-0.481807
-0.483915
-0.487672
-0.494319
-0.507075
-0.532015
-0.581847
-0.688545
-0.93206
-1.41136
-1.75919
-1.57283
-1.26295
-0.9804
-0.776286
-0.665384
-0.640355
-0.639648
-0.634805
-0.630987
-0.373986
-0.375424
-0.378242
-0.382807
-0.391336
-0.407197
-0.437768
-0.501132
-0.641519
-0.913313
-1.10653
-0.995456
-0.803466
-0.627181
-0.541483
-0.533591
-0.552972
-0.565761
-0.566566
-0.56463
-0.267645
-0.268324
-0.269904
-0.272174
-0.27606
-0.282764
-0.295052
-0.319376
-0.370549
-0.464862
-0.531594
-0.46013
-0.367151
-0.324511
-0.342327
-0.380157
-0.406474
-0.419074
-0.422113
-0.421897
-0.17413
-0.174242
-0.174856
-0.175508
-0.176169
-0.176649
-0.177009
-0.177547
-0.178977
-0.177282
-0.1597
-0.121753
-0.113738
-0.153703
-0.199961
-0.238043
-0.25986
-0.270208
-0.274402
-0.275164
-0.0996708
-0.0994827
-0.0995979
-0.0995063
-0.0986993
-0.0964073
-0.0916148
-0.082705
-0.0674389
-0.0427785
-0.0186337
-0.00995513
-0.0227244
-0.0644308
-0.104097
-0.131773
-0.147532
-0.155349
-0.158984
-0.160056
-0.0453016
-0.0450255
-0.0449858
-0.0447744
-0.0437033
-0.0408933
-0.0352635
-0.0251703
-0.00886159
0.0137197
0.0298211
0.0261059
0.00914965
-0.0196642
-0.0461437
-0.0642711
-0.0747178
-0.0801486
-0.0828616
-0.0837507
-0.00857534
-0.00833026
-0.00830694
-0.00824818
-0.0075006
-0.00524131
-0.000594342
0.00750805
0.0198689
0.0351867
0.0433254
0.0369354
0.0220475
0.00335088
-0.0131325
-0.0246346
-0.0315157
-0.0352067
-0.0370411
-0.0376303
0.0143845
0.0145537
0.0145059
0.0143404
0.0146388
0.0160358
0.0191758
0.0247257
0.032855
0.0419131
0.0449887
0.0388128
0.0277105
0.0155991
0.0052543
-0.00217622
-0.00682993
-0.00937721
-0.0106004
-0.0110104
0.0274689
0.0275614
0.0274395
0.0271003
0.0270129
0.0276535
0.0294284
0.0326924
0.0374037
0.0421713
0.0426284
0.0374925
0.0296991
0.02173
0.0150289
0.0100824
0.00684321
0.0050387
0.00420976
0.00395734
0.0338696
0.0339037
0.033731
0.033286
0.0329501
0.0330461
0.0338478
0.0355291
0.0379332
0.0400264
0.0392128
0.0350744
0.0295846
0.0242121
0.019721
0.0163253
0.014021
0.0127232
0.0121551
0.0119858
0.0359166
0.0359146
0.0357121
0.0352194
0.0347389
0.0344786
0.0346154
0.0352361
0.0361936
0.0367411
0.0353745
0.0320914
0.0281727
0.0244574
0.0213571
0.0189723
0.0173116
0.0163712
0.0159771
0.0158556
0.0351857
0.0351647
0.034957
0.0344714
0.0339323
0.0334813
0.0332302
0.0332092
0.0332951
0.0329957
0.0314792
0.0288817
0.0260151
0.0233712
0.0211722
0.0194607
0.0182475
0.0175594
0.0172812
0.0172007
0.0327231
0.0326948
0.0325013
0.0320559
0.0315205
0.0309949
0.0305479
0.0301878
0.0298175
0.0291021
0.0276066
0.0255344
0.0233964
0.0214727
0.0198793
0.0186308
0.0177359
0.0172287
0.01703
0.0169741
0.0292075
0.029179
0.0290104
0.0286211
0.0281283
0.0276013
0.0270814
0.0265649
0.025981
0.0251127
0.0237519
0.022105
0.0204912
0.0190696
0.0178989
0.0169791
0.0163155
0.0159399
0.0157966
0.0157571
0.0250676
0.0250424
0.0249037
0.0245788
0.0241508
0.0236704
0.0231607
0.0226138
0.0219779
0.0211107
0.0199311
0.0186301
0.017408
0.0163507
0.015485
0.0148043
0.0143114
0.0140331
0.0139295
0.0139016
0.0205686
0.020548
0.0204394
0.0201802
0.0198267
0.0194187
0.0189669
0.0184628
0.0178698
0.0170964
0.0161265
0.0151212
0.0142063
0.0134263
0.0127907
0.01229
0.0119263
0.0117221
0.0116482
0.0116285
0.0158697
0.015854
0.0157736
0.0155771
0.0153024
0.0149801
0.0146149
0.0141988
0.0137064
0.0130795
0.0123312
0.0115875
0.0109262
0.0103681
0.00991401
0.00955491
0.00929294
0.00914726
0.0090962
0.00908254
0.0110624
0.0110516
0.0109969
0.0108591
0.010664
0.0104346
0.010172
0.00986971
0.00951082
0.00906036
0.00853872
0.00803447
0.00759327
0.00722327
0.00692152
0.00668078
0.00650383
0.00640653
0.00637354
0.00636424
0.00619248
0.00618721
0.00615888
0.00607988
0.00596716
0.00583578
0.00568445
0.00550871
0.0052994
0.00503923
0.00474319
0.00446202
0.00421919
0.00401682
0.00385182
0.00371886
0.00362049
0.00356874
0.00355267
0.00354644
0.00129384
0.00129804
0.00131963
0.00133528
0.00132122
0.00128745
0.0012424
0.00119012
0.00112904
0.00105551
0.000969838
0.000883987
0.000808452
0.000744657
0.000693793
0.000656238
0.000633823
0.000633821
0.000652824
0.000664647
-0.745231
-0.521566
-0.267916
-0.0597673
0.109287
0.245589
0.360692
0.457852
0.502425
0.479975
-0.343329
-0.189495
-0.0290774
0.109172
0.2266
0.325031
0.405174
0.462485
0.492268
0.503518
-0.0676128
0.034503
0.141976
0.237556
0.320049
0.3893
0.444366
0.484578
0.512808
0.529905
0.125769
0.195912
0.271156
0.339442
0.398789
0.449031
0.490018
0.522286
0.547759
0.565494
0.271806
0.32251
0.376384
0.427302
0.472162
0.511061
0.544002
0.571016
0.593049
0.61055
0.389097
0.426671
0.469456
0.509641
0.546178
0.578632
0.606719
0.630044
0.648972
0.666166
0.489523
0.520837
0.558082
0.593009
0.625398
0.654592
0.679935
0.700825
0.717064
0.734101
0.582907
0.613763
0.649773
0.683533
0.714637
0.742504
0.766395
0.78564
0.799526
0.816582
0.6812
0.715342
0.753207
0.787865
0.818857
0.845856
0.868466
0.886236
0.898473
0.915918
0.798088
0.836282
0.875723
0.910692
0.94062
0.965869
0.986653
1.00287
1.01458
1.0327
0.944227
0.983166
1.01955
1.05062
1.07665
1.09905
1.11836
1.13409
1.14668
1.16472
1.11965
1.1517
1.17813
1.20077
1.22095
1.23986
1.25772
1.27431
1.28976
1.30786
1.30865
1.32603
1.34129
1.35769
1.37371
1.38833
1.40163
1.41563
1.43324
1.45342
1.49083
1.5003
1.5119
1.52277
1.5321
1.54177
1.55267
1.5641
1.5755
1.59088
1.69807
1.70177
1.68684
1.67205
1.66587
1.67161
1.69012
1.72047
1.75268
1.77935
2.0044
1.86956
1.79299
1.75074
1.73333
1.7373
1.76475
1.82116
1.92379
2.14816
0.293713
0.291594
0.287111
0.278497
0.266292
0.254186
0.24398
0.236094
0.230454
0.227126
0.226617
0.22914
0.234036
0.241077
0.250315
0.261738
0.274301
0.285274
0.291361
0.294387
0.218127
0.223979
0.230334
0.23486
0.237359
0.237065
0.234355
0.23056
0.227038
0.224702
0.224388
0.22636
0.229793
0.233879
0.237523
0.239273
0.238234
0.234664
0.229433
0.222787
0.209663
0.211962
0.215399
0.218448
0.220582
0.222134
0.222935
0.222648
0.221603
0.220623
0.220613
0.221803
0.223376
0.224448
0.224422
0.223358
0.221659
0.219196
0.215843
0.212885
0.204104
0.205187
0.207076
0.209547
0.211664
0.213173
0.214251
0.215027
0.215419
0.215561
0.215851
0.216361
0.216657
0.216452
0.2158
0.214734
0.213065
0.210799
0.208574
0.207148
0.198881
0.199531
0.200719
0.202579
0.204529
0.206321
0.207745
0.208821
0.209682
0.210368
0.210862
0.211074
0.210927
0.210428
0.209524
0.208137
0.206401
0.204583
0.203069
0.202244
0.193948
0.194376
0.19526
0.19679
0.198527
0.200281
0.201951
0.203387
0.204548
0.205475
0.206105
0.206287
0.205998
0.205261
0.204098
0.202659
0.201107
0.199588
0.198411
0.197858
0.189413
0.189709
0.190424
0.191792
0.193424
0.195078
0.196749
0.198377
0.199814
0.20096
0.201733
0.201957
0.20159
0.200725
0.199555
0.198243
0.196847
0.195472
0.194486
0.194085
0.185232
0.185417
0.186003
0.187246
0.188765
0.190316
0.19184
0.193348
0.194834
0.196199
0.19716
0.197439
0.197148
0.196497
0.195594
0.194485
0.193245
0.192022
0.191183
0.190904
0.181779
0.181863
0.182321
0.183466
0.184932
0.186455
0.188044
0.189629
0.191155
0.19257
0.1937
0.194251
0.194204
0.193692
0.192848
0.191842
0.19072
0.189609
0.188918
0.188753
0.179269
0.179302
0.179591
0.1804
0.181538
0.18275
0.184032
0.185444
0.186992
0.188585
0.189958
0.19076
0.19098
0.190834
0.190441
0.189857
0.189129
0.188423
0.188027
0.187941
0.176894
0.176921
0.177107
0.17759
0.178353
0.179307
0.180467
0.18184
0.183403
0.185121
0.186784
0.187969
0.188579
0.188751
0.188676
0.188449
0.18819
0.187926
0.187778
0.187723
0.173832
0.173857
0.174007
0.174353
0.174921
0.175719
0.176784
0.17817
0.179904
0.181914
0.183963
0.185546
0.186509
0.187055
0.187239
0.187361
0.187442
0.187459
0.18743
0.187393
0.169915
0.169929
0.17007
0.170418
0.170943
0.171715
0.172839
0.174333
0.176261
0.178599
0.181125
0.183225
0.184627
0.185518
0.186155
0.186561
0.186809
0.186927
0.18694
0.186919
0.165335
0.165335
0.165475
0.165887
0.166545
0.167439
0.16872
0.170466
0.172756
0.175554
0.178689
0.181396
0.183306
0.184592
0.185462
0.186038
0.186394
0.186548
0.1866
0.186604
0.160219
0.160207
0.160342
0.160801
0.16157
0.162742
0.164226
0.166265
0.168963
0.172391
0.176297
0.179755
0.182269
0.184041
0.185237
0.186033
0.186475
0.186703
0.186812
0.186833
0.154555
0.154528
0.154682
0.155187
0.156097
0.157412
0.159285
0.161731
0.165012
0.169229
0.174093
0.178476
0.181707
0.183957
0.185542
0.186604
0.187234
0.187592
0.18777
0.187804
0.148114
0.14808
0.148271
0.14884
0.149881
0.15144
0.153631
0.156659
0.160718
0.165952
0.172031
0.177534
0.181605
0.184519
0.18657
0.187928
0.188796
0.189317
0.189567
0.18961
0.140523
0.140484
0.140713
0.14142
0.142643
0.144493
0.147183
0.150941
0.155999
0.162537
0.170135
0.177023
0.182138
0.185845
0.1884
0.190135
0.19128
0.191981
0.192303
0.192355
0.131385
0.131335
0.131637
0.132497
0.13402
0.136335
0.139695
0.144398
0.150748
0.158949
0.168441
0.177012
0.183404
0.187983
0.191178
0.193364
0.194823
0.195722
0.196125
0.196188
0.120254
0.120195
0.120604
0.121719
0.123645
0.126585
0.130853
0.13683
0.144873
0.155179
0.167008
0.177625
0.185497
0.191145
0.195101
0.197817
0.19964
0.200767
0.201268
0.201343
0.106458
0.106386
0.106949
0.108434
0.11096
0.114793
0.120334
0.128035
0.138275
0.151232
0.165919
0.178978
0.188618
0.195534
0.200387
0.203731
0.205986
0.207386
0.208007
0.208096
0.0890562
0.0889761
0.0897844
0.0918234
0.0952276
0.100359
0.107696
0.117734
0.130853
0.147145
0.165286
0.181229
0.192943
0.201352
0.207273
0.211375
0.214154
0.215882
0.216652
0.216757
0.0666498
0.0665803
0.0677986
0.070691
0.0754353
0.0825086
0.0924424
0.105711
0.122599
0.143022
0.165259
0.184538
0.198643
0.208795
0.215992
0.221017
0.224448
0.226584
0.227527
0.22765
0.0368636
0.0368512
0.0388137
0.0431986
0.0502223
0.0604044
0.0742029
0.0919296
0.113656
0.139075
0.166045
0.189079
0.205871
0.218019
0.226727
0.232891
0.237152
0.239814
0.240977
0.241119
-0.00452935
-0.00431956
-0.000679274
0.00681906
0.0180373
0.0333529
0.0528702
0.0766008
0.104359
0.135627
0.167878
0.194995
0.214708
0.229078
0.239544
0.247114
0.252473
0.255842
0.257272
0.257425
-0.0653304
-0.06374
-0.0550284
-0.040952
-0.0219865
0.00148248
0.0290014
0.0603741
0.095265
0.133058
0.170946
0.202321
0.225088
0.241828
0.254246
0.263484
0.270199
0.274539
0.276378
0.276568
-0.13808
-0.135491
-0.119203
-0.0945284
-0.0649981
-0.0320384
0.00424306
0.0438003
0.0863694
0.131426
0.17597
0.212796
0.239803
0.260063
0.275509
0.287407
0.296583
0.302291
0.304209
0.304771
-0.212984
-0.20472
-0.180689
-0.145927
-0.106779
-0.0646405
-0.0197084
0.0279803
0.0782224
0.130569
0.181839
0.224177
0.255419
0.279158
0.297623
0.31218
0.323549
0.330722
0.334129
0.335192
-0.271096
-0.261428
-0.232489
-0.19107
-0.144505
-0.0947135
-0.0421426
0.0130031
0.070422
0.129609
0.18708
0.234271
0.269012
0.295398
0.315916
0.332094
0.344709
0.353241
0.357699
0.358953
-0.318125
-0.307913
-0.275581
-0.22939
-0.177276
-0.121461
-0.0625742
-0.000981825
0.0628189
0.128188
0.191204
0.242549
0.280039
0.30826
0.330013
0.347057
0.360321
0.369597
0.374355
0.375667
-0.357039
-0.346742
-0.312321
-0.262488
-0.20591
-0.145231
-0.0810897
-0.0139689
0.055453
0.126338
0.194304
0.249207
0.288868
0.318396
0.34091
0.35835
0.371767
0.381165
0.385933
0.38738
-0.390749
-0.380472
-0.344486
-0.29177
-0.231542
-0.166771
-0.0981005
-0.026167
0.0482522
0.124132
0.196593
0.254733
0.296333
0.326945
0.349979
0.367585
0.381014
0.3904
0.395165
0.396577
-0.420795
-0.410573
-0.373433
-0.318301
-0.255063
-0.186773
-0.114158
-0.0379303
0.0410283
0.12154
0.198281
0.2595
0.302883
0.334449
0.357923
0.375685
0.389093
0.39847
0.403273
0.404545
-0.448384
-0.438179
-0.400097
-0.342941
-0.277125
-0.205762
-0.129652
-0.0495568
0.0335624
0.11842
0.199245
0.263473
0.308692
0.341299
0.365307
0.383281
0.396749
0.406114
0.410934
0.412052
-0.474274
-0.46406
-0.425156
-0.366235
-0.298132
-0.224083
-0.144884
-0.0613101
0.0256343
0.114575
0.199431
0.26683
0.314071
0.347868
0.372518
0.3908
0.404375
0.413716
0.418523
0.41954
-0.498922
-0.488684
-0.449025
-0.388569
-0.318461
-0.242019
-0.160059
-0.0733435
0.017126
0.109998
0.198907
0.269617
0.319082
0.354287
0.379753
0.398469
0.41224
0.421603
0.42638
0.427361
-0.522711
-0.512378
-0.471971
-0.410219
-0.338284
-0.259708
-0.17528
-0.0857168
0.00802829
0.104636
0.19755
0.271753
0.323709
0.360591
0.387098
0.406412
0.420493
0.429943
0.434611
0.435584
-0.545821
-0.535321
-0.494258
-0.431295
-0.357719
-0.277262
-0.190624
-0.0984848
-0.00174881
0.0983627
0.195253
0.273162
0.327927
0.366777
0.39458
0.414679
0.429185
0.438776
0.443343
0.444286
-0.568274
-0.55758
-0.515977
-0.45186
-0.376844
-0.294716
-0.206116
-0.111688
-0.0122532
0.0911402
0.191935
0.273707
0.331624
0.372801
0.40218
0.423264
0.438315
0.448081
0.452555
0.453387
-0.590202
-0.579287
-0.537095
-0.471931
-0.395659
-0.312058
-0.221741
-0.125298
-0.0234361
0.0829712
0.187501
0.273235
0.334603
0.37852
0.409822
0.43212
0.447832
0.457797
0.462147
0.462843
-0.611538
-0.600402
-0.55765
-0.491536
-0.414143
-0.329254
-0.23744
-0.139241
-0.0352557
0.0738461
0.181886
0.271588
0.336654
0.383727
0.417393
0.441206
0.457698
0.467848
0.472029
0.472539
-0.632301
-0.620918
-0.5776
-0.510639
-0.43226
-0.346251
-0.253149
-0.153448
-0.0476478
0.0638087
0.175055
0.26861
0.337546
0.388188
0.424764
0.450501
0.467886
0.478079
0.48193
0.482241
-0.652345
-0.640787
-0.596908
-0.529193
-0.449944
-0.362968
-0.268796
-0.167839
-0.0605176
0.0529429
0.167001
0.264181
0.337014
0.39158
0.43171
0.460034
0.47853
0.488471
0.491675
0.491716
-0.671769
-0.659957
-0.615554
-0.54717
-0.467162
-0.379365
-0.28429
-0.182318
-0.073759
0.0413487
0.15777
0.258212
0.334811
0.393468
0.437824
0.469786
0.490093
0.49938
0.5011
0.500649
-0.690448
-0.678382
-0.63351
-0.564517
-0.483838
-0.39536
-0.299544
-0.196763
-0.0872529
0.0291209
0.14745
0.250671
0.33075
0.393377
0.442418
0.479401
0.503275
0.512296
0.510892
0.508677
-0.708415
-0.696139
-0.650732
-0.581187
-0.499933
-0.410887
-0.314479
-0.211092
-0.100878
0.0164194
0.136168
0.241562
0.324714
0.390861
0.444431
0.487654
0.517962
0.530176
0.525946
0.51467
-0.725605
-0.713166
-0.667331
-0.597324
-0.515646
-0.426218
-0.329421
-0.225702
-0.11509
0.0027155
0.123326
0.230215