/*--------------------------------*- C++ -*----------------------------------*\
  =========                 |
  \\      /  F ield         | OpenFOAM: The Open Source CFD Toolbox
   \\    /   O peration     | Website:  https://openfoam.org
    \\  /    A nd           | Version:  10
     \\/     M anipulation  |
\*---------------------------------------------------------------------------*/
FoamFile
{
    format      ascii;
    class       volScalarField;
    location    "55";
    object      p;
}
// * * * * * * * * * * * * * * * * * * * * * * * * * * * * * * * * * * * * * //

dimensions      [0 2 -2 0 0 0 0];

internalField   nonuniform List<scalar> 
918
(
0.556998
1.18967
0.00085097
0.556411
-0.00889907
1.15665
-0.506279
0.684277
0.537182
-0.106387
-0.0406496
0.535915
1.01748
0.783198
-1.12457
-0.00846119
0.652849
-0.384003
0.536267
-0.0510947
0.709714
0.543735
0.546762
0.537342
0.6029
0.757793
0.89865
0.0216337
0.0107614
0.00489506
-0.0145546
-0.0362348
-0.0305562
1.0403
1.09138
1.11408
0.505096
0.332426
-0.372229
-0.442445
-0.434473
-0.544104
0.679562
0.677754
-0.201951
0.687152
0.690677
0.524256
0.536549
0.537455
0.538495
0.537469
0.538853
0.405926
-0.109604
-0.141868
-0.0865407
-0.0777029
0.0578962
-0.041248
-0.0437297
-0.0387531
-0.0387829
0.454591
0.530416
0.527363
0.541215
0.551472
1.12922
1.10115
1.12728
1.04098
1.05744
0.995474
0.968049
0.803813
0.825837
0.768608
0.754171
-1.55815
-2.51256
-0.533108
-0.281787
-0.0152977
-0.00575736
0.000924641
0.648947
0.649397
0.652775
0.657044
1.08092
-0.381889
-0.480215
0.536406
0.535212
0.54355
0.544248
0.540266
0.539358
-0.0408038
-0.0367002
-0.0454605
-0.0475982
-0.0474229
0.698784
0.698546
0.537875
0.534883
0.558434
0.57949
0.571545
0.279904
0.609602
0.624088
0.588755
0.749293
0.743978
0.752625
0.872378
0.835941
0.935529
0.958825
0.0175845
-0.000487332
-0.0127196
-0.018464
-0.0161445
0.500952
0.493538
0.520649
0.508509
0.510999
0.248676
0.114641
0.41779
0.442984
-0.289749
-0.35341
-0.430112
-0.459106
-0.567536
0.611346
0.672175
0.669047
-0.215092
-0.142371
-0.274102
-0.0686525
-0.130629
0.514558
0.521543
0.516557
0.532069
0.526545
0.528505
0.540808
0.537881
0.53944
0.468317
0.592093
0.332133
0.297172
-0.246096
-0.159497
-0.246949
-0.0651768
-0.0606693
0.0717212
0.0970138
0.0449616
0.0332668
-0.0544535
-0.0463992
-0.0500082
-0.0373398
-0.0355397
0.447403
0.436286
0.467227
0.474738
0.519156
0.520505
0.524435
0.522644
0.918885
0.941355
0.948766
0.922425
-3.50553
-6.29325
0.044009
0.180969
-0.00551069
-0.00977388
0.00529831
-0.0100535
-0.00254472
-0.0043443
-0.0023042
-0.0036443
0.000287181
0.00232439
0.642222
0.64296
1.00185
1.00698
0.979188
0.931325
0.524587
0.526669
0.532184
0.528058
-0.0355541
-0.0361064
-0.0358619
0.692842
0.696987
0.695606
0.241852
0.152934
0.330478
0.359286
0.635677
0.624286
0.634233
0.650374
0.686148
0.966274
0.98442
0.982683
0.990907
1.03488
1.05124
1.01666
0.480523
0.490437
0.485422
0.523772
0.521534
0.522442
0.518208
0.519552
0.517475
-0.0363271
-0.417527
0.491576
0.509351
0.49265
0.49652
0.691165
0.76913
0.657861
0.664112
0.662305
-0.000195477
-0.0585046
0.252928
0.219437
0.387341
0.423553
0.402615
0.890191
0.850207
0.900397
0.873812
0.83491
0.861512
-0.369215
-1.87254
-0.989585
0.531549
0.345667
0.433262
0.0151534
-0.00183438
0.00269694
1.00034
1.07433
0.647972
0.821441
0.825208
0.720391
0.750403
0.80994
0.735079
0.770463
0.804664
0.783192
0.567872
0.504952
0.520318
0.838216
0.893855
0.123731
0.0637087
0.0196736
0.115606
0.172502
0.146763
1.03528
0.948062
1.01859
0.53464
0.535354
-0.00204078
-0.0163225
0.53957
0.539622
-0.014936
-0.00169453
0.415787
-0.833276
0.105828
0.528127
0.518122
0.535197
-0.0891879
0.357828
-0.0411468
0.0527126
-0.00237558
0.532503
0.465598
0.425064
0.00336364
-0.0164094
-0.0425
-0.216021
0.532311
0.530617
0.534664
0.535616
0.53629
-0.0150576
-0.0106008
-0.00782023
-0.0406662
-0.0361519
-0.0457067
0.499272
0.518002
-0.168966
0.534805
0.536936
0.536755
0.529998
0.535636
0.533881
-0.00721061
-0.014406
-0.0153096
0.223421
0.352677
0.656154
0.744265
0.627874
0.403087
0.167157
0.559059
0.622374
0.527976
0.681587
0.668466
0.683624
0.171134
0.0208756
0.1799
0.121013
0.525986
0.524685
0.516378
0.513366
0.53006
0.528168
0.532731
0.529739
0.53269
0.534079
-0.04716
-0.0714832
-0.0844251
-0.152952
0.312539
0.574461
0.25521
0.285718
0.145537
-0.0363081
-0.0368265
-0.0403517
-0.0470167
0.00638412
-0.017267
0.0478103
0.048542
0.0212244
-0.00517322
-0.0013933
-0.0121948
-0.00891798
0.525484
0.523995
0.530162
0.539382
0.475185
0.478958
0.444059
0.46464
0.449976
0.389085
0.424254
0.399433
-0.00501687
0.00613925
-0.00252274
-0.0133996
-0.00980411
-0.0280601
-0.0250253
-0.0211269
-0.0167428
-0.023831
-0.0376687
-0.0382288
-0.17354
-0.28845
0.98864
0.912284
0.13328
0.521476
0.527918
0.524688
0.529575
0.532703
0.533514
0.531235
0.52779
0.518372
0.51993
0.516706
0.517534
-0.101331
-0.242142
-0.069843
-0.1421
0.143529
0.627308
0.36462
0.301422
0.296315
0.523591
0.921624
0.707466
0.682514
0.694649
-0.342507
0.0489987
-0.277777
0.339096
0.164509
0.657116
0.704791
0.724729
0.673919
0.627435
-0.104844
0.554775
-0.0674741
-0.0168979
0.183129
0.0628673
0.679264
0.65334
0.656667
0.673913
0.690253
0.659699
0.644089
0.638947
0.670184
0.672821
0.490764
0.254431
0.205867
0.16742
0.643022
0.526463
0.580127
0.496184
0.521149
0.523776
0.522403
0.50408
0.51163
0.507181
0.513629
0.517084
0.525773
0.526219
0.52153
0.523666
-0.0517988
-0.0552397
-0.0285576
-0.137931
-0.130076
-0.192453
-0.0635556
0.0748883
0.0360051
0.235477
0.34109
0.0521902
-0.0591236
-0.0319597
0.00919482
0.179273
0.205496
0.077183
0.165489
0.154718
0.137751
0.239244
0.243536
-0.0217665
-0.025728
-0.0279805
-0.0300751
0.023853
0.0938887
0.103774
0.00128826
-0.00478663
-0.0338163
-0.0335381
-0.0185681
-0.0228468
-0.0194078
0.0145157
-0.0471172
-0.0149085
-0.000108895
0.0044968
0.00158113
-0.00389671
0.517686
0.520115
0.519684
0.526058
0.544331
0.559731
0.517567
0.497281
0.488118
0.491118
0.464142
0.474431
0.470118
0.483849
0.504974
0.514549
0.511772
0.514567
0.497115
0.498793
0.485282
0.489004
0.463872
0.444935
0.433089
-0.0369608
0.000882195
-0.00664425
-0.0335052
-0.00497242
-0.0169203
-0.00452543
0.014544
-0.00164284
-0.00412563
-0.0142419
-0.0200388
-0.0195215
-0.0748759
0.0109691
-0.183662
-0.220486
-0.292213
0.890353
1.01439
0.810942
0.58408
0.60282
0.846137
0.93101
0.545075
0.736075
0.759778
0.586394
0.852741
0.526301
0.525905
0.523507
0.522986
0.524203
-0.00735105
0.0979369
0.0982125
0.159804
0.275508
0.387732
0.317322
0.192492
0.323138
0.32589
0.619547
0.631881
0.587437
0.611656
0.611422
0.426746
0.502706
0.554889
0.512603
0.564949
0.585918
0.541309
0.573669
0.523849
0.478476
0.474402
0.425303
0.444902
0.421257
0.404214
0.516104
0.493381
0.503954
0.494177
0.513419
0.539202
0.534857
0.564128
0.576391
0.497715
0.453524
0.462807
0.493205
0.454136
0.469169
0.485478
0.230791
0.132202
0.214679
-0.0728016
0.000951472
-0.0126918
-0.0606874
-0.0110067
0.273852
-0.41935
-0.395445
-1.02423
0.500379
0.955879
0.623514
0.596349
0.68735
0.669366
0.674056
0.690579
0.694487
0.631953
0.645915
0.648823
0.611775
0.634211
0.653399
0.650617
0.524928
0.387823
0.385043
0.335492
0.20568
0.244264
0.443885
0.366593
0.291272
0.2921
0.45985
0.346908
0.415897
0.451273
0.382691
0.336895
0.540058
0.604988
0.597253
0.57183
0.486852
0.5003
0.52427
0.558861
0.584649
0.615287
0.51311
0.519004
0.520241
0.51773
0.514992
0.518023
0.518245
0.520785
0.521464
0.524442
0.523479
-0.0416372
-0.0295371
-0.0427583
-0.0508969
-0.0182753
-0.0216047
0.0213123
0.00733834
-0.00859583
-0.00267141
-0.0284636
-0.0327944
-0.027986
-0.0189688
0.100479
0.112956
0.0962626
0.0567838
0.249086
0.379222
0.453277
0.328604
0.221314
0.244648
0.265135
-0.00940047
0.0178017
0.00472266
0.0437524
0.0353663
-0.0289121
-0.0321743
-0.0299259
-0.0231504
-0.0141758
-0.0300544
-0.0318547
-0.0235293
-0.0281252
-0.0292337
-0.0319702
0.499537
0.493032
0.494748
0.488581
0.487293
0.501621
0.505847
0.507835
0.513311
0.515633
0.505681
0.5115
0.515314
-0.00481098
-0.0276541
-0.0315647
-0.0200574
-0.0228357
-0.0211119
-0.0230846
0.122203
0.0507468
0.0554707
0.00839036
-0.122617
-0.0649173
0.490316
0.489741
0.48029
0.71989
0.569274
0.489885
0.587172
0.692665
0.274372
0.471874
0.306331
0.887626
0.783447
0.929892
0.541376
0.243142
0.404042
0.449814
0.261384
0.335476
0.32674
0.215051
0.246243
0.28246
0.382207
0.264062
0.240304
-0.00220876
0.187797
0.300482
0.282277
0.407623
0.469033
0.264299
0.184652
0.139214
0.605081
0.624244
0.639003
0.611165
0.632385
0.577206
0.567263
0.584856
0.593947
0.588865
-0.752017
-0.458638
-1.40465
-0.724767
-0.271336
0.530648
0.499664
0.766613
0.647927
0.692663
0.678128
0.637283
0.605655
0.626311
0.651903
0.348128
0.459522
0.434678
0.439715
0.341373
0.27256
0.571025
0.566522
0.600049
0.623612
0.59468
0.624818
0.510926
0.51063
0.510126
0.506397
0.50467
0.507004
0.060168
0.0289507
0.065009
0.0455462
0.0223861
0.0107441
-0.000807493
-0.0103423
-0.0174325
-0.0178005
-0.00501957
-0.00108409
0.169395
0.108129
0.0277439
0.0579148
-0.00292696
-0.0720867
-0.0899395
0.0131088
0.109006
0.099384
0.403975
0.654192
0.474154
0.641525
0.483354
0.539152
0.46909
0.460686
0.486513
0.378884
0.459167
0.240437
-0.266242
-0.175253
0.789093
0.802034
0.580435
0.402032
0.170992
0.352649
0.545015
0.47719
0.513813
0.582717
0.571287
0.0218008
0.0825002
0.360637
0.587927
0.237443
0.228455
0.222401
0.40344
0.323607
)
;

boundaryField
{
    wall-4
    {
        type            zeroGradient;
    }
    velocity-inlet-5
    {
        type            zeroGradient;
    }
    velocity-inlet-6
    {
        type            zeroGradient;
    }
    pressure-outlet-7
    {
        type            fixedValue;
        value           uniform 0;
    }
    wall-8
    {
        type            zeroGradient;
    }
    frontAndBackPlanes
    {
        type            empty;
    }
}


// ************************************************************************* //
