/*--------------------------------*- C++ -*----------------------------------*\
  =========                 |
  \\      /  F ield         | OpenFOAM: The Open Source CFD Toolbox
   \\    /   O peration     | Website:  https://openfoam.org
    \\  /    A nd           | Version:  10
     \\/     M anipulation  |
\*---------------------------------------------------------------------------*/
FoamFile
{
    format      ascii;
    class       volScalarField;
    location    "17";
    object      p;
}
// * * * * * * * * * * * * * * * * * * * * * * * * * * * * * * * * * * * * * //

dimensions      [0 2 -2 0 0 0 0];

internalField   nonuniform List<scalar> 
8800
(
0.41091
0.363134
0.324467
0.295492
0.274649
0.259842
0.249266
0.241794
0.23695
0.234803
0.235872
0.239841
0.246278
0.25542
0.268065
0.285701
0.310408
0.344295
0.386792
0.445489
0.242122
0.249804
0.257316
0.260649
0.259176
0.254137
0.247689
0.241646
0.236925
0.234017
0.233581
0.235866
0.240125
0.245859
0.252456
0.258602
0.262141
0.261345
0.25584
0.247102
0.220486
0.226665
0.230829
0.233829
0.235933
0.236594
0.235539
0.233453
0.231399
0.23037
0.231122
0.233265
0.23583
0.237793
0.238211
0.23686
0.234389
0.230896
0.226287
0.222513
0.214599
0.217273
0.220108
0.222607
0.224331
0.225565
0.22636
0.226512
0.226201
0.226028
0.226541
0.22742
0.227971
0.227781
0.22695
0.22566
0.223664
0.220935
0.218435
0.216929
0.209168
0.210614
0.212523
0.214719
0.216667
0.218149
0.219228
0.220049
0.22062
0.221044
0.221419
0.221589
0.221375
0.220782
0.219774
0.218225
0.216252
0.214164
0.212727
0.211906
0.204087
0.205013
0.206448
0.208272
0.210154
0.211897
0.213348
0.214501
0.215445
0.216174
0.216541
0.216467
0.216004
0.215135
0.213827
0.212208
0.21048
0.208874
0.207891
0.207372
0.199415
0.20007
0.201279
0.202938
0.204696
0.20647
0.208182
0.209655
0.210805
0.211663
0.212133
0.212079
0.211474
0.210373
0.208972
0.207462
0.205904
0.204525
0.20376
0.203409
0.195112
0.195562
0.196621
0.198161
0.199772
0.201351
0.202905
0.204457
0.205893
0.207034
0.207566
0.20742
0.206783
0.205862
0.204755
0.203468
0.202077
0.200852
0.200239
0.200019
0.191641
0.191903
0.192812
0.194259
0.19582
0.197404
0.198986
0.20047
0.201859
0.203077
0.203822
0.203949
0.203595
0.202834
0.201805
0.200631
0.199359
0.198284
0.19783
0.197727
0.189281
0.189422
0.190026
0.191107
0.192345
0.19364
0.195008
0.196509
0.19804
0.199463
0.200423
0.200749
0.200585
0.200134
0.199493
0.198716
0.197857
0.197182
0.196925
0.196876
0.187096
0.187198
0.187538
0.188171
0.189005
0.190026
0.191234
0.192611
0.194149
0.195745
0.197016
0.197722
0.197982
0.197919
0.197661
0.197337
0.197004
0.196748
0.19663
0.196585
0.184176
0.184258
0.184501
0.184924
0.185645
0.186526
0.187708
0.189187
0.190929
0.192822
0.194451
0.195478
0.196021
0.196233
0.196201
0.196235
0.196225
0.196175
0.19612
0.196079
0.180446
0.180507
0.180746
0.181192
0.181743
0.182651
0.183864
0.185439
0.187379
0.189629
0.191716
0.193192
0.194115
0.194696
0.195094
0.195306
0.195414
0.195425
0.195405
0.195372
0.17612
0.176157
0.176407
0.176937
0.17769
0.178612
0.180012
0.181824
0.184105
0.186833
0.189479
0.191464
0.192815
0.193695
0.194268
0.194613
0.194763
0.194806
0.194825
0.194804
0.17134
0.171363
0.171609
0.172196
0.173104
0.174257
0.175848
0.17796
0.180678
0.184026
0.187367
0.189964
0.191787
0.193076
0.193882
0.194368
0.194594
0.194706
0.194763
0.194747
0.16609
0.166116
0.166371
0.167014
0.168014
0.169433
0.171306
0.173834
0.177148
0.181293
0.185503
0.188821
0.191244
0.192864
0.193983
0.194679
0.195067
0.19528
0.195371
0.195353
0.16013
0.160157
0.160469
0.161167
0.162305
0.163936
0.166215
0.16932
0.173418
0.178583
0.18387
0.188102
0.191129
0.193308
0.194763
0.195704
0.196277
0.1966
0.196719
0.196695
0.153141
0.153175
0.153561
0.154394
0.1557
0.157677
0.160475
0.164319
0.169427
0.175886
0.182512
0.187807
0.191715
0.194428
0.196293
0.197526
0.198304
0.198739
0.19889
0.198858
0.144791
0.144836
0.1453
0.146312
0.147981
0.150421
0.153895
0.158712
0.165124
0.173213
0.181488
0.188123
0.192962
0.196375
0.198722
0.200292
0.201292
0.201847
0.202035
0.201994
0.134691
0.134751
0.135352
0.136635
0.138738
0.141837
0.146257
0.152366
0.160447
0.170578
0.180885
0.189109
0.195092
0.199318
0.202236
0.204198
0.205452
0.206142
0.206376
0.206325
0.122293
0.12237
0.123156
0.124841
0.127582
0.131598
0.137297
0.145099
0.155323
0.168007
0.18078
0.190905
0.198259
0.203458
0.207056
0.209486
0.211041
0.211893
0.21218
0.212114
0.10684
0.106948
0.108007
0.11027
0.113922
0.119218
0.126657
0.136719
0.14971
0.165557
0.181296
0.19368
0.202657
0.209016
0.213432
0.21643
0.218357
0.219398
0.219743
0.219661
0.0871999
0.0873599
0.088833
0.0919794
0.0969849
0.104135
0.11402
0.12712
0.143637
0.163343
0.182588
0.197603
0.208479
0.216215
0.221623
0.225324
0.227722
0.229016
0.229429
0.229322
0.0615343
0.0617837
0.0639751
0.0686182
0.0757687
0.0857316
0.0991123
0.116269
0.137225
0.161549
0.184839
0.202853
0.215909
0.22526
0.23187
0.236453
0.239451
0.241072
0.241574
0.241433
0.0267946
0.0272758
0.0309374
0.0383242
0.0490897
0.0634256
0.0817909
0.104299
0.130721
0.160415
0.188235
0.209563
0.225061
0.236281
0.244347
0.250057
0.253862
0.255917
0.256522
0.256332
-0.0229909
-0.0213881
-0.0139488
-0.000947718
0.016106
0.0371632
0.0624068
0.0916766
0.124538
0.160226
0.192921
0.217778
0.235911
0.249226
0.259026
0.26618
0.271113
0.273844
0.27462
0.274354
-0.0974581
-0.088402
-0.0713832
-0.0482109
-0.0216908
0.00833686
0.0419743
0.0790256
0.119045
0.161299
0.199341
0.228167
0.249398
0.265304
0.277404
0.286703
0.293527
0.297619
0.298954
0.29892
-0.177066
-0.156679
-0.12941
-0.0958998
-0.0597104
-0.0206003
0.0215081
0.0665231
0.114116
0.163689
0.208136
0.242037
0.267386
0.28682
0.302069
0.314203
0.323643
0.33042
0.333029
0.333165
-0.240292
-0.217465
-0.182004
-0.140251
-0.0955262
-0.0480361
0.0021332
0.0548153
0.10968
0.166173
0.216502
0.254848
0.283629
0.305841
0.323385
0.337443
0.348435
0.356315
0.358603
0.359008
-0.291606
-0.266671
-0.22641
-0.178737
-0.127441
-0.0730646
-0.0159223
0.0436489
0.105174
0.168
0.223539
0.265583
0.296953
0.321006
0.339855
0.354868
0.366531
0.374622
0.377345
0.377792
-0.333395
-0.30769
-0.263958
-0.211856
-0.155391
-0.0954771
-0.0324824
0.0330756
0.100532
0.16903
0.229136
0.274189
0.307429
0.332629
0.352168
0.367573
0.379407
0.387436
0.390377
0.390791
-0.368966
-0.342822
-0.296652
-0.24093
-0.180278
-0.115702
-0.0477027
0.0230677
0.0958041
0.169412
0.233573
0.281231
0.316016
0.342072
0.361996
0.37746
0.389238
0.397216
0.400298
0.400704
-0.400226
-0.373877
-0.325805
-0.267142
-0.202963
-0.134389
-0.0620221
0.0134057
0.0909328
0.169281
0.237283
0.287368
0.323513
0.35024
0.370417
0.385879
0.397583
0.405408
0.4086
0.40899
-0.42864
-0.402107
-0.3525
-0.291352
-0.224155
-0.15209
-0.0758242
0.00382089
0.0857853
0.16861
0.240264
0.292683
0.330175
0.357608
0.378096
0.393638
0.405283
0.41297
0.416182
0.416587
-0.455053
-0.428342
-0.377456
-0.314128
-0.244299
-0.169172
-0.0894391
-0.00596237
0.0801212
0.16719
0.242503
0.297403
0.33639
0.364653
0.385536
0.401218
0.412869
0.420388
0.423557
0.424043
-0.480153
-0.45321
-0.401109
-0.335927
-0.263786
-0.185939
-0.103099
-0.0161351
0.0737989
0.165055
0.244129
0.301677
0.342335
0.371591
0.393004
0.40892
0.420618
0.428057
0.431117
0.431611
-0.504199
-0.47699
-0.423784
-0.357027
-0.282808
-0.202539
-0.116909
-0.026748
0.0668263
0.162152
0.245057
0.305481
0.348062
0.37853
0.400653
0.416936
0.428767
0.436158
0.43908
0.439506
-0.527535
-0.499948
-0.445882
-0.377596
-0.301514
-0.219099
-0.130949
-0.0378629
0.0590868
0.158333
0.245185
0.30877
0.353596
0.385536
0.40857
0.425364
0.437409
0.444792
0.447551
0.447877
-0.550199
-0.522192
-0.46742
-0.39772
-0.320007
-0.235672
-0.145272
-0.0495575
0.0505074
0.153543
0.244408
0.311422
0.358859
0.392583
0.416751
0.434212
0.446565
0.453962
0.456589
0.456755
-0.572254
-0.543912
-0.48837
-0.417434
-0.338281
-0.252257
-0.159881
-0.0618168
0.0411037
0.147721
0.242597
0.313281
0.363673
0.399561
0.425146
0.443453
0.456197
0.463601
0.466093
0.466101
-0.593774
-0.565037
-0.508776
-0.436751
-0.35634
-0.268833
-0.174722
-0.0745838
0.0308894
0.140819
0.239628
0.314167
0.367869
0.406339
0.433688
0.453048
0.466266
0.473652
0.475956
0.475816
-0.614808
-0.585602
-0.52863
-0.455646
-0.374127
-0.285339
-0.189727
-0.0878057
0.0199
0.132824
0.235395
0.313864
0.371223
0.412751
0.442304
0.462956
0.476678
0.483964
0.485984
0.485717
-0.635172
-0.60553
-0.547906
-0.474076
-0.391588
-0.301702
-0.204832
-0.101396
0.00822132
0.123778
0.229814
0.312171
0.373421
0.418524
0.450891
0.47321
0.487399
0.494355
0.495975
0.495577
-0.65484
-0.624794
-0.566573
-0.491987
-0.40867
-0.317862
-0.219938
-0.115258
-0.00405266
0.11373
0.222851
0.308908
0.374125
0.423261
0.459254
0.483985
0.498672
0.504749
0.50562
0.505107
-0.67387
-0.643347
-0.584597
-0.509341
-0.425308
-0.333734
-0.234951
-0.12928
-0.0168112
0.102778
0.214511
0.303951
0.37301
0.426414
0.466955
0.495461
0.511325
0.515618
0.514645
0.513997
-0.692108
-0.661181
-0.601928
-0.526078
-0.441446
-0.349237
-0.249779
-0.143349
-0.0299218
0.0910547
0.204853
0.297217
0.36979
0.42727
0.473049
0.507299
0.526769
0.529706
0.524506
0.522465
-0.709643
-0.678296
-0.618591
-0.542224
-0.457117
-0.364422
-0.264478
-0.157522
-0.0434494
0.0784941
0.193778
0.288478
0.364171
0.425014
0.475904
0.517785
0.544998
0.552764
0.543974
0.522545
-0.726419
-0.694701
-0.634708
-0.557957
-0.4726
-0.379602
-0.279446
-0.172266
-0.057927
0.0644433
0.18058
0.276855
0.355319
0.418447
0.472248
0.521439
0.556061
0.563219
0.547652
0.522477
-0.742292
-0.710581
-0.650112
-0.573028
-0.487619
-0.394444
-0.294459
-0.187255
-0.0730232
0.0492329
0.165488
0.262224
0.342856
0.407171
0.457624
0.506819
0.538382
0.535115
0.465305
0.423358
-0.756685
-0.726908
-0.66444
-0.586879
-0.501495
-0.408501
-0.309239
-0.202273
-0.0885187
0.0330274
0.148552
0.24456
0.326133
0.391834
0.432793
0.462158
0.478964
0.435749
0.360217
0.311019
-0.809791
-0.74058
-0.677433
-0.600949
-0.515606
-0.423102
-0.323853
-0.217565
-0.10472
0.0154773
0.129357
0.223597
0.302976
0.373922
0.383466
0.391731
0.363146
0.297464
0.212989
0.165513
-0.769672
-0.754909
-0.695871
-0.620925
-0.535836
-0.443869
-0.345825
-0.240699
-0.129628
-0.0121524
0.0976813
0.187546
0.258367
0.321016
0.32467
0.207192
0.0926471
0.0140034
-0.0681754
-0.0246766
-0.797951
-0.770407
-0.711288
-0.636203
-0.551672
-0.460142
-0.362106
-0.257913
-0.148346
-0.0333731
0.0726413
0.157505
0.221033
0.252827
0.199778
0.0368383
-0.112271
-0.21771
-0.33341
-0.264617
-0.819375
-0.788516
-0.728931
-0.653457
-0.569119
-0.477838
-0.380139
-0.277052
-0.169272
-0.0573089
0.044236
0.122813
0.176434
0.180258
0.0610236
-0.151632
-0.33699
-0.479811
-0.647102
-0.586102
-0.839838
-0.807556
-0.747086
-0.670967
-0.586589
-0.495548
-0.398544
-0.29666
-0.19082
-0.0821577
0.0142271
0.0859467
0.126287
0.0914084
-0.0947401
-0.342532
-0.581425
-0.797351
-1.04086
-1.03013
-0.859173
-0.826835
-0.76575
-0.689085
-0.604654
-0.513911
-0.417682
-0.317078
-0.213366
-0.108278
-0.0175704
0.0467766
0.0696967
-0.00638015
-0.245427
-0.517648
-0.803138
-1.06019
-1.37935
-1.75005
-0.878505
-0.846444
-0.785117
-0.708162
-0.623674
-0.53319
-0.437653
-0.338325
-0.236779
-0.135411
-0.0505211
0.00590756
0.0118746
-0.115646
-0.378969
-0.654472
-0.938413
-1.17888
-1.277
-1.42914
-0.898434
-0.866789
-0.805445
-0.728454
-0.644019
-0.553869
-0.459092
-0.361164
-0.262034
-0.164771
-0.086108
-0.0386446
-0.0554158
-0.238786
-0.497029
-0.754057
-0.983426
-1.12762
-1.15599
-1.18433
-0.919324
-0.887978
-0.826883
-0.749964
-0.665729
-0.576041
-0.482207
-0.385901
-0.289516
-0.196855
-0.124914
-0.0876552
-0.133888
-0.354552
-0.604207
-0.833739
-1.01574
-1.0942
-1.11248
-1.11573
-0.941334
-0.910112
-0.849346
-0.772615
-0.688678
-0.599614
-0.506894
-0.412439
-0.31912
-0.231546
-0.166772
-0.141989
-0.216232
-0.463826
-0.707385
-0.913844
-1.05464
-1.08716
-1.08684
-1.08653
-0.964368
-0.933259
-0.872785
-0.796311
-0.712783
-0.624463
-0.533015
-0.440624
-0.350621
-0.268573
-0.211423
-0.199069
-0.30201
-0.568274
-0.811157
-0.993548
-1.04578
-1.06816
-1.07461
-1.07538
-0.988143
-0.957236
-0.896991
-0.820885
-0.737851
-0.650401
-0.560369
-0.470216
-0.383727
-0.307472
-0.258277
-0.255602
-0.397087
-0.664888
-0.916519
-1.07407
-1.08502
-1.08019
-1.07665
-1.07549
-1.01217
-0.981604
-0.921715
-0.846075
-0.763613
-0.677125
-0.58862
-0.500841
-0.417967
-0.347563
-0.306122
-0.315717
-0.487067
-0.750095
-1.013
-1.18264
-1.13413
-1.09936
-1.0804
-1.07407
-1.03583
-1.00586
-0.946552
-0.871463
-0.789625
-0.704195
-0.617281
-0.531941
-0.452684
-0.387963
-0.353761
-0.381033
-0.563348
-0.794193
-1.05797
-1.19265
-1.1551
-1.09114
-1.05809
-1.04973
-1.05865
-1.02923
-0.971114
-0.896484
-0.815358
-0.731004
-0.645707
-0.562731
-0.486997
-0.427403
-0.400036
-0.44188
-0.642545
-0.771635
-0.903199
-1.11772
-1.15529
-1.13079
-1.10967
-1.09354
-1.07958
-1.05118
-0.994083
-0.920392
-0.8401
-0.756803
-0.673076
-0.592229
-0.519688
-0.464394
-0.444172
-0.494817
-0.754772
-0.818433
-0.580331
-0.685451
-1.19597
-1.52553
-1.50531
-1.48233
-1.0975
-1.07061
-1.01501
-0.942216
-0.862863
-0.78067
-0.698461
-0.619186
-0.549074
-0.497419
-0.484863
-0.545146
-0.941433
-1.19344
-0.981656
-1.08122
-1.44511
-1.61124
-1.5376
-1.57513
-1.11141
-1.08644
-1.03275
-0.961043
-0.882624
-0.801541
-0.720377
-0.642377
-0.573253
-0.524405
-0.517703
-0.609991
-1.21698
-2.13417
-3.18828
-3.74433
-3.66602
-3.08632
-2.50599
-2.33825
-1.11995
-1.09757
-1.04625
-0.975767
-0.898278
-0.818169
-0.737844
-0.660241
-0.590554
-0.540302
-0.534444
-0.66046
-1.4013
-2.62857
-4.05368
-4.54138
-4.47592
-4.05498
-3.52805
-3.21496
-1.12257
-1.10296
-1.05432
-0.985322
-0.908739
-0.829504
-0.749654
-0.671749
-0.59903
-0.540961
-0.526226
-0.598515
-1.12871
-1.78717
-2.4529
-2.7817
-2.67124
-2.34496
-2.02033
-1.82773
-1.11713
-1.10065
-1.05573
-0.988582
-0.912842
-0.834497
-0.755257
-0.676359
-0.598671
-0.52554
-0.472078
-0.460619
-0.491069
-0.416884
-0.194053
0.099635
0.418808
0.674609
0.848906
0.924572
-1.1029
-1.08954
-1.04873
-0.983894
-0.9094
-0.832618
-0.754575
-0.674648
-0.590429
-0.496281
-0.396369
-0.318278
-0.0411784
0.473259
1.07994
1.65755
2.10401
2.37751
2.50691
2.54395
-1.0783
-1.06831
-1.0319
-0.969824
-0.897443
-0.823475
-0.748205
-0.669365
-0.580917
-0.469321
-0.333704
-0.191192
0.0488507
0.643385
1.30217
1.87043
2.28939
2.54142
2.66276
2.6988
-1.04127
-1.03433
-1.00239
-0.94401
-0.876341
-0.807469
-0.738488
-0.666332
-0.582055
-0.461311
-0.294507
-0.113422
0.0763233
0.518141
1.068
1.53107
1.87144
2.07656
2.1804
2.21409
-0.986779
-0.981916
-0.955983
-0.905512
-0.845596
-0.786011
-0.728822
-0.671357
-0.598937
-0.489264
-0.306918
-0.0973678
0.109401
0.354715
0.722451
1.05694
1.31909
1.48416
1.57544
1.60628
-0.91795
-0.913824
-0.894432
-0.855197
-0.807569
-0.761816
-0.722176
-0.689731
-0.660327
-0.601692
-0.457404
-0.222159
0.000293819
0.158246
0.369418
0.593937
0.779722
0.90231
0.965247
0.983378
-0.835822
-0.833297
-0.821441
-0.79687
-0.766585
-0.739661
-0.723614
-0.727527
-0.764503
-0.846894
-0.843414
-0.59385
-0.301006
-0.128158
0.054727
0.242623
0.388162
0.486406
0.542897
0.554195
-0.760694
-0.759629
-0.753852
-0.741925
-0.728307
-0.720838
-0.730804
-0.780584
-0.920671
-1.22314
-1.46797
-1.19103
-0.743996
-0.506056
-0.303593
-0.103923
0.0522919
0.150443
0.192158
0.197425
-0.692323
-0.692571
-0.691325
-0.687775
-0.686527
-0.695325
-0.728927
-0.82249
-1.06926
-1.60995
-2.1668
-1.85828
-1.22455
-0.881624
-0.594458
-0.361054
-0.20083
-0.111343
-0.0774287
-0.076444
-0.617923
-0.619399
-0.620056
-0.62086
-0.626774
-0.645209
-0.692089
-0.80533
-1.08832
-1.72591
-2.33885
-2.03864
-1.45416
-1.07274
-0.752435
-0.519424
-0.381333
-0.318909
-0.298054
-0.297342
-0.525618
-0.52731
-0.529086
-0.532111
-0.540011
-0.5591
-0.602591
-0.704368
-0.954115
-1.48958
-1.95136
-1.72698
-1.32324
-0.983154
-0.709874
-0.541828
-0.470555
-0.449337
-0.441205
-0.438828
-0.419169
-0.420701
-0.422703
-0.425797
-0.432275
-0.446191
-0.476117
-0.543755
-0.70435
-1.03874
-1.30066
-1.16949
-0.902058
-0.661116
-0.510308
-0.453672
-0.448698
-0.453849
-0.453731
-0.451898
-0.309818
-0.310852
-0.312583
-0.314758
-0.318525
-0.325439
-0.339347
-0.369726
-0.439144
-0.578563
-0.683019
-0.588503
-0.439531
-0.343177
-0.316402
-0.331962
-0.351038
-0.362968
-0.366139
-0.365744
-0.20986
-0.210391
-0.211613
-0.212791
-0.214015
-0.215317
-0.217327
-0.221734
-0.232228
-0.247519
-0.22781
-0.198555
-0.139916
-0.146419
-0.176177
-0.208478
-0.230173
-0.241786
-0.246013
-0.246683
-0.127325
-0.127499
-0.128285
-0.128849
-0.128607
-0.126838
-0.122774
-0.115064
-0.101583
-0.0775475
-0.0445752
-0.0323957
-0.0225437
-0.049682
-0.0841733
-0.111132
-0.12813
-0.137224
-0.141257
-0.142367
-0.064765
-0.0647499
-0.0652782
-0.0656467
-0.0650168
-0.0623816
-0.056599
-0.045878
-0.0279008
-0.000815667
0.0245743
0.0262315
0.0186725
-0.0036234
-0.0283328
-0.0469039
-0.0586156
-0.0650172
-0.0680683
-0.0690757
-0.0207852
-0.0207083
-0.0211215
-0.0215198
-0.0210838
-0.0188735
-0.0137948
-0.00436442
0.0107805
0.0313087
0.0467674
0.0453836
0.034801
0.0190706
0.00330339
-0.00872721
-0.0165377
-0.0209266
-0.0230815
-0.0237515
0.00801485
0.00808631
0.00773247
0.00723487
0.0073434
0.00882245
0.0124689
0.0192835
0.0299775
0.0434758
0.0519873
0.049795
0.0412668
0.0305806
0.0204812
0.0126146
0.00729189
0.00422147
0.0027518
0.00226586
0.0255046
0.025543
0.0252248
0.0246634
0.0244668
0.0252372
0.0275652
0.032025
0.0388569
0.0470257
0.051389
0.0490904
0.0429218
0.0356983
0.0290593
0.0237508
0.0199952
0.0177749
0.0167502
0.0164127
0.035124
0.0351249
0.0348242
0.0342337
0.0338254
0.034032
0.0352551
0.0378784
0.0419591
0.0465765
0.0484794
0.0463056
0.0419467
0.0370381
0.032537
0.0288536
0.0261525
0.0245264
0.0238054
0.0235776
0.0395152
0.0394882
0.0391993
0.0386027
0.0380797
0.0379159
0.0383773
0.0396705
0.0418047
0.0441557
0.0447438
0.0428518
0.0396891
0.0362428
0.0330954
0.0304784
0.028509
0.0273116
0.0268001
0.0266432
0.0405037
0.0404617
0.0401862
0.0396125
0.0390353
0.0386482
0.038635
0.0391203
0.0400663
0.0410202
0.0408163
0.0391315
0.0367504
0.0342614
0.0319984
0.0300973
0.0286434
0.0277567
0.0273905
0.0272808
0.0392904
0.0392433
0.0389869
0.0384536
0.0378655
0.0373577
0.0370477
0.0370067
0.0372076
0.0373459
0.0367444
0.0352849
0.0334542
0.0316066
0.0299417
0.0285388
0.0274571
0.0267984
0.0265338
0.0264561
0.0366629
0.0366178
0.036391
0.0359164
0.0353594
0.0348177
0.0343678
0.034047
0.0338264
0.0335052
0.0327146
0.031443
0.0299978
0.0285925
0.0273419
0.02629
0.0254768
0.0249831
0.0247891
0.0247333
0.0331455
0.0331058
0.0329137
0.0325044
0.0320023
0.0314772
0.0309774
0.0305231
0.0300907
0.0295446
0.028696
0.027599
0.0264471
0.0253633
0.0244121
0.023616
0.023001
0.0226288
0.0224852
0.0224447
0.0290801
0.029047
0.0288904
0.0285498
0.0281163
0.0276416
0.0271539
0.0266624
0.0261482
0.0255229
0.0247053
0.023774
0.0228521
0.0220093
0.02128
0.0206736
0.0202059
0.019924
0.0198174
0.019788
0.0246896
0.024663
0.0245399
0.0242663
0.023907
0.0235008
0.0230628
0.022596
0.0220857
0.0214727
0.0207356
0.0199612
0.0192288
0.0185748
0.0180161
0.0175543
0.0171993
0.0169868
0.0169081
0.0168867
0.0201174
0.0200966
0.0200029
0.0197909
0.0195053
0.0191746
0.0188061
0.0184
0.0179448
0.0174017
0.0167786
0.0161566
0.0155871
0.015088
0.0146656
0.014318
0.0140517
0.0138937
0.0138362
0.0138208
0.0154505
0.0154349
0.0153665
0.0152092
0.0149934
0.0147398
0.0144518
0.0141276
0.0137583
0.0133189
0.0128289
0.0123557
0.0119321
0.0115654
0.0112568
0.0110031
0.010809
0.0106949
0.0106541
0.010643
0.0107372
0.0107264
0.0106797
0.0105705
0.0104197
0.0102426
0.0100398
0.00980893
0.0095434
0.00922782
0.00888178
0.00855448
0.00826599
0.0080182
0.00780968
0.00763736
0.00750467
0.00742703
0.00739978
0.00739204
0.0059957
0.00598991
0.00596476
0.00590202
0.00581547
0.00571503
0.00559965
0.00546706
0.00531349
0.0051314
0.00493336
0.00474852
0.00458742
0.00444996
0.00433442
0.00423809
0.00416317
0.00412031
0.00410604
0.0041007
0.00124222
0.001245
0.00125927
0.0012659
0.00125258
0.00122701
0.00119377
0.00115534
0.00111102
0.00105879
0.00100022
0.000943295
0.000893442
0.000850802
0.000815721
0.000787963
0.00076842
0.000763032
0.000773953
0.000782244
-0.748154
-0.521583
-0.265574
-0.0556803
0.114722
0.25216
0.368355
0.46651
0.511664
0.489225
-0.341747
-0.186503
-0.0247474
0.11462
0.23302
0.332306
0.413195
0.471086
0.501205
0.512429
-0.0635667
0.0393697
0.14765
0.243968
0.32712
0.396938
0.452467
0.493024
0.521466
0.53854
0.131173
0.201843
0.277666
0.346442
0.406218
0.456827
0.498104
0.530589
0.556196
0.573918
0.278118
0.329187
0.383408
0.434651
0.479785
0.518917
0.552045
0.579201
0.60132
0.618814
0.396023
0.433815
0.476794
0.517191
0.553904
0.586509
0.614719
0.638135
0.657119
0.67431
0.496786
0.528227
0.565617
0.600674
0.633181
0.662474
0.687895
0.708844
0.725121
0.742158
0.59039
0.621319
0.657429
0.69128
0.722457
0.75038
0.77432
0.793603
0.807517
0.824576
0.68882
0.723032
0.76095
0.795644
0.826679
0.853719
0.876364
0.894159
0.906417
0.923867
0.805786
0.844002
0.883487
0.918487
0.948448
0.973726
0.994532
1.01076
1.0225
1.04062
0.951964
0.990927
1.02734
1.05844
1.08449
1.1069
1.12623
1.14197
1.15457
1.17261
1.12743
1.15949
1.18594
1.20859
1.22879
1.24771
1.26558
1.28218
1.29763
1.31574
1.31648
1.33384
1.34911
1.36551
1.38154
1.39618
1.40948
1.42348
1.44109
1.46128
1.49863
1.50813
1.51974
1.5306
1.53993
1.54961
1.56052
1.57195
1.58335
1.59873
1.7059
1.70961
1.69468
1.67989
1.67371
1.67946
1.69796
1.72831
1.76052
1.7872
2.01222
1.87738
1.80083
1.75859
1.74118
1.74515
1.77259
1.829
1.93163
2.15601
0.301504
0.299388
0.294905
0.286296
0.274099
0.262004
0.251811
0.24394
0.238312
0.234989
0.234477
0.236987
0.241866
0.248887
0.258105
0.269513
0.282064
0.293027
0.299112
0.302134
0.225897
0.23175
0.238115
0.242647
0.245154
0.244872
0.242177
0.238394
0.234883
0.232555
0.232239
0.234194
0.237608
0.241676
0.245301
0.247034
0.245982
0.242403
0.237162
0.230511
0.217419
0.219718
0.223168
0.226238
0.228395
0.229963
0.230775
0.230504
0.229479
0.228509
0.228493
0.229669
0.231216
0.232261
0.232217
0.231135
0.229413
0.226926
0.223555
0.220588
0.211836
0.212918
0.21482
0.217309
0.219449
0.220986
0.222093
0.222889
0.223291
0.223436
0.223721
0.224217
0.224496
0.224267
0.223583
0.222482
0.220782
0.218493
0.216248
0.214815
0.206585
0.20723
0.208441
0.210351
0.212347
0.214175
0.215627
0.216726
0.217611
0.218316
0.218808
0.218991
0.218808
0.218276
0.217338
0.215915
0.214134
0.21226
0.210705
0.209872
0.201699
0.20212
0.203027
0.20461
0.206408
0.208223
0.209949
0.211417
0.212578
0.213482
0.214098
0.214288
0.213997
0.213231
0.21201
0.210499
0.208879
0.207296
0.206072
0.205514
0.197208
0.19749
0.198228
0.199653
0.201328
0.203002
0.204679
0.206331
0.207811
0.208994
0.209766
0.209941
0.209514
0.2086
0.20741
0.20608
0.204643
0.203207
0.202171
0.201769
0.193228
0.19338
0.193977
0.195292
0.196873
0.198464
0.200011
0.201503
0.202939
0.204256
0.205197
0.205492
0.205234
0.2046
0.203675
0.202518
0.20122
0.199914
0.199022
0.198763
0.190358
0.190417
0.190841
0.191936
0.193353
0.194814
0.196345
0.197893
0.199414
0.200825
0.201942
0.202472
0.202401
0.20189
0.201075
0.200122
0.199043
0.197978
0.19733
0.197187
0.188246
0.188281
0.188531
0.189187
0.190135
0.191196
0.192357
0.193676
0.195141
0.196679
0.19803
0.19884
0.199107
0.199019
0.198722
0.198242
0.197676
0.197143
0.196835
0.196754
0.185743
0.185774
0.185946
0.186342
0.186965
0.187816
0.188903
0.190234
0.191773
0.193472
0.195112
0.196282
0.196899
0.197109
0.19699
0.196826
0.1967
0.196552
0.196445
0.196391
0.182401
0.182423
0.182569
0.182905
0.183412
0.184131
0.185151
0.18649
0.188171
0.190138
0.192157
0.193724
0.19466
0.195166
0.195534
0.195749
0.195816
0.195831
0.195796
0.195761
0.178338
0.178343
0.178478
0.178847
0.179422
0.180178
0.181282
0.182756
0.184644
0.186937
0.189431
0.191513
0.19292
0.193833
0.194407
0.194775
0.194999
0.19507
0.195077
0.195068
0.173785
0.173782
0.173905
0.174321
0.175012
0.175924
0.177161
0.178871
0.181093
0.183853
0.186953
0.18964
0.191545
0.192848
0.19373
0.194266
0.194549
0.194665
0.194718
0.19473
0.168789
0.168769
0.168901
0.169337
0.170094
0.171194
0.17273
0.174693
0.177331
0.180697
0.184554
0.187985
0.190485
0.192219
0.193403
0.194194
0.19463
0.19486
0.19498
0.195004
0.163235
0.163212
0.16337
0.163837
0.164686
0.165944
0.167706
0.170116
0.173345
0.177505
0.182325
0.186682
0.189894
0.192135
0.193716
0.194748
0.195387
0.195764
0.19595
0.195983
0.156812
0.156784
0.156971
0.157517
0.158472
0.159951
0.162067
0.165025
0.169022
0.174201
0.180233
0.185705
0.189729
0.192668
0.194672
0.196022
0.196898
0.197431
0.197683
0.197727
0.149173
0.149136
0.149364
0.150033
0.151227
0.153007
0.155609
0.159292
0.164286
0.170764
0.178309
0.185148
0.190256
0.193896
0.196431
0.19815
0.19929
0.199992
0.200315
0.200369
0.13998
0.139933
0.140236
0.141081
0.142556
0.144813
0.148104
0.152739
0.159018
0.167152
0.176586
0.18511
0.191451
0.195985
0.199141
0.201294
0.202733
0.203621
0.204024
0.20409
0.128789
0.128733
0.129143
0.130248
0.132139
0.135027
0.139235
0.145138
0.153108
0.163349
0.175116
0.185675
0.193492
0.199087
0.202994
0.205666
0.207457
0.208569
0.20907
0.209148
0.11495
0.114884
0.115453
0.116927
0.119413
0.123192
0.128667
0.136297
0.146471
0.159364
0.173986
0.186983
0.196563
0.203419
0.208216
0.211509
0.213722
0.2151
0.215722
0.215816
0.0974969
0.0974218
0.0982377
0.100269
0.103639
0.10872
0.115997
0.125971
0.13902
0.155242
0.173315
0.189194
0.200845
0.20919
0.215051
0.219095
0.221826
0.223531
0.224305
0.224416
0.075014
0.0749501
0.0761834
0.0790799
0.0838036
0.0908294
0.100708
0.113911
0.130728
0.151083
0.173255
0.192472
0.206516
0.216606
0.22374
0.228704
0.232084
0.2342
0.235154
0.235286
0.0451534
0.0451527
0.0471442
0.0515338
0.0585331
0.0686592
0.0823997
0.100067
0.121734
0.147091
0.174002
0.196982
0.213723
0.225819
0.234473
0.24058
0.244794
0.247449
0.248633
0.24879
0.00362237
0.00385023
0.00755403
0.0150831
0.0262688
0.0415409
0.0610068
0.0846831
0.112384
0.143593
0.175792
0.202867
0.222546
0.236883
0.247314
0.254844
0.260165
0.263563
0.265042
0.265218
-0.0574013
-0.0557622
-0.0469413
-0.0328023
-0.0138238
0.00961033
0.0370833
0.0684004
0.103234
0.140974
0.178818
0.210165
0.232916
0.249648
0.262061
0.2713
0.278048
0.28245
0.284389
0.284618
-0.130429
-0.127758
-0.111298
-0.0864671
-0.0569312
-0.0239978
0.0122397
0.0517471
0.094263
0.13927
0.183777
0.220588
0.247602
0.267887
0.283373
0.295325
0.304594
0.310475
0.312523
0.313173
-0.205633
-0.197155
-0.172852
-0.137904
-0.098758
-0.0566546
-0.0117708
0.0358594
0.0860381
0.138326
0.189558
0.231886
0.263144
0.286921
0.305445
0.320089
0.331584
0.339136
0.34277
0.343961
-0.263681
-0.253872
-0.224635
-0.183062
-0.136519
-0.0867829
-0.0342724
0.0208093
0.0781601
0.137279
0.194694
0.241856
0.276594
0.302998
0.323549
0.339779
0.352511
0.361375
0.366076
0.367446
-0.310668
-0.300312
-0.267682
-0.221368
-0.169294
-0.113554
-0.0547545
0.00674909
0.0704693
0.135759
0.198703
0.249994
0.28744
0.315624
0.337345
0.354368
0.367653
0.37717
0.38212
0.38358
-0.349513
-0.33909
-0.304406
-0.254438
-0.197949
-0.137371
-0.0733224
-0.00630155
0.0630193
0.133817
0.201693
0.256508
0.296099
0.325563
0.348018
0.365408
0.37883
0.388358
0.393317
0.394882
-0.383181
-0.372791
-0.33655
-0.283697
-0.22359
-0.158931
-0.0903824
-0.0185665
0.0557445
0.131522
0.2039
0.261961
0.303482
0.334009
0.35696
0.374499
0.387908
0.397429
0.402389
0.403891
-0.413191
-0.402866
-0.365467
-0.310267
-0.247135
-0.178983
-0.106499
-0.0303906
0.0484615
0.12888
0.205538
0.266664
0.309959
0.341439
0.364832
0.382527
0.395934
0.405428
0.41042
0.411769
-0.440755
-0.430453
-0.392143
-0.334916
-0.269215
-0.198006
-0.12204
-0.0420779
0.0409338
0.125703
0.206438
0.270595
0.315743
0.348277
0.372211
0.390122
0.403582
0.413058
0.418057
0.419267
-0.466636
-0.456335
-0.417207
-0.358229
-0.290266
-0.216385
-0.137341
-0.0539017
0.0329325
0.121797
0.206611
0.273959
0.321134
0.354862
0.379448
0.397674
0.411242
0.420697
0.425689
0.426796
-0.491283
-0.480959
-0.441087
-0.380593
-0.310638
-0.234373
-0.152579
-0.066
0.0243723
0.117196
0.206084
0.276767
0.32619
0.361334
0.386744
0.405411
0.419179
0.428663
0.433623
0.434687
-0.515071
-0.504663
-0.464063
-0.40227
-0.330504
-0.252115
-0.167861
-0.0784345
0.0152276
0.111799
0.204718
0.278939
0.330895
0.36774
0.394194
0.413458
0.427533
0.437103
0.441965
0.443017
-0.538186
-0.527612
-0.486357
-0.423394
-0.349989
-0.269735
-0.183272
-0.0912666
0.00538782
0.105491
0.202432
0.280388
0.33518
0.37403
0.401792
0.421844
0.436347
0.446068
0.450836
0.451861
-0.560643
-0.549884
-0.508083
-0.44399
-0.369164
-0.287247
-0.198832
-0.104542
-0.00516955
0.0982456
0.199127
0.280987
0.338948
0.380144
0.409514
0.430571
0.445631
0.455545
0.46023
0.461149
-0.582572
-0.571595
-0.529245
-0.464103
-0.388028
-0.304652
-0.214529
-0.118217
-0.0164036
0.0900498
0.194706
0.28057
0.342023
0.385977
0.417298
0.439592
0.455339
0.465483
0.470057
0.470838
-0.603905
-0.592712
-0.549821
-0.483744
-0.40657
-0.321914
-0.230295
-0.132227
-0.0282774
0.0808992
0.189107
0.278975
0.34416
0.391309
0.425019
0.448857
0.465421
0.475793
0.480223
0.48081
-0.624664
-0.613229
-0.569785
-0.502881
-0.424734
-0.338971
-0.246073
-0.146503
-0.0407241
0.070839
0.182293
0.276047
0.345116
0.39586
0.432512
0.458324
0.475842
0.486315
0.490433
0.490812
-0.644699
-0.633094
-0.589108
-0.521471
-0.442467
-0.35575
-0.261791
-0.160961
-0.0536456
0.0599497
0.174255
0.271663
0.344645
0.399313
0.439545
0.468002
0.48673
0.497043
0.500529
0.500616
-0.664112
-0.65226
-0.607763
-0.539477
-0.459733
-0.372209
-0.277352
-0.175506
-0.0669395
0.0483337
0.165041
0.265738
0.342487
0.401232
0.445686
0.477831
0.498512
0.508304
0.510315
0.509868
-0.682775
-0.670675
-0.625727
-0.556851
-0.476453
-0.388261
-0.292672
-0.190015
-0.0804837
0.0360855
0.15474
0.258236
0.338456
0.401132
0.450222
0.487401
0.511813
0.521574
0.520467
0.518168
-0.700723
-0.688418
-0.642954
-0.573545
-0.49259
-0.403844
-0.307671
-0.204408
-0.094157
0.0233661
0.143478
0.249169
0.332442
0.398578
0.452087
0.495438
0.526412
0.539701
0.535913
0.524518
-0.717892
-0.705427
-0.659555
-0.589702
-0.508342
-0.419229
-0.322677
-0.21908
-0.108416
0.00964565
0.130661
0.237872
0.323735
0.392845
0.449629
0.499321