/*--------------------------------*- C++ -*----------------------------------*\
  =========                 |
  \\      /  F ield         | OpenFOAM: The Open Source CFD Toolbox
   \\    /   O peration     | Website:  https://openfoam.org
    \\  /    A nd           | Version:  10
     \\/     M anipulation  |
\*---------------------------------------------------------------------------*/
FoamFile
{
    format      ascii;
    class       volVectorField;
    location    "17";
    object      U;
}
// * * * * * * * * * * * * * * * * * * * * * * * * * * * * * * * * * * * * * //

dimensions      [0 1 -1 0 0 0 0];

internalField   nonuniform List<vector> 
8800
(
(0.980084 -0.0915174 0)
(1.00233 -0.0587517 0)
(0.999595 -0.0321325 0)
(1 -0.0165242 0)
(1.00007 -0.00884431 0)
(1.00005 -0.00507491 0)
(1.00002 -0.00294923 0)
(1.00001 -0.00166189 0)
(0.999997 -0.000795044 0)
(1.00005 -0.000133789 0)
(0.999992 0.000534386 0)
(1 0.001279 0)
(1.00001 0.00230844 0)
(1.00003 0.00393955 0)
(1.00007 0.00672312 0)
(1.00005 0.0120296 0)
(0.999872 0.0230911 0)
(0.999092 0.0431676 0)
(1.00716 0.0790429 0)
(0.775009 0.0478402 0)
(0.359076 -0.0147434 0)
(1.04657 -0.0724295 0)
(1.08854 -0.0659799 0)
(1.04954 -0.0508232 0)
(1.02555 -0.037519 0)
(1.0126 -0.0256396 0)
(1.00644 -0.0164856 0)
(1.00353 -0.0101367 0)
(1.0021 -0.00563354 0)
(1.00147 -0.00213417 0)
(1.00135 0.00101214 0)
(1.0017 0.00428346 0)
(1.00266 0.00812731 0)
(1.0047 0.0133599 0)
(1.0089 0.0209786 0)
(1.01797 0.031534 0)
(1.03596 0.0444121 0)
(1.06757 0.057949 0)
(1.09485 0.0700246 0)
(0.84589 0.0554787 0)
(0.218033 -0.00136497 0)
(1.07584 -0.050444 0)
(1.09947 -0.0487323 0)
(1.06442 -0.0399035 0)
(1.03989 -0.0324879 0)
(1.02375 -0.0252567 0)
(1.01392 -0.0180073 0)
(1.00844 -0.0114279 0)
(1.00561 -0.00580224 0)
(1.00446 -0.000754143 0)
(1.0048 0.00412275 0)
(1.00666 0.00930324 0)
(1.01059 0.0153033 0)
(1.01795 0.0221703 0)
(1.03065 0.0293667 0)
(1.05068 0.0364965 0)
(1.08028 0.044225 0)
(1.10599 0.0515591 0)
(0.943935 0.0408154 0)
(0.217688 0.00137924 0)
(0.177169 -0.000615668 0)
(1.02006 -0.0350809 0)
(1.10592 -0.0408324 0)
(1.07796 -0.0356397 0)
(1.05233 -0.0295425 0)
(1.03504 -0.0237877 0)
(1.0232 -0.0182326 0)
(1.01537 -0.0125389 0)
(1.01075 -0.0067672 0)
(1.00878 -0.000795511 0)
(1.00933 0.00516209 0)
(1.01247 0.0108701 0)
(1.0185 0.0164629 0)
(1.02815 0.0218917 0)
(1.04242 0.0273293 0)
(1.06333 0.0331236 0)
(1.0943 0.0392281 0)
(1.0953 0.0410355 0)
(0.832057 0.0224341 0)
(0.176591 0.000626377 0)
(0.155716 -0.00044642 0)
(0.959876 -0.025036 0)
(1.10491 -0.0342257 0)
(1.08828 -0.0318372 0)
(1.06103 -0.0273772 0)
(1.04265 -0.0224503 0)
(1.03026 -0.0173044 0)
(1.02174 -0.0120359 0)
(1.01627 -0.00650014 0)
(1.01369 -0.000544508 0)
(1.01439 0.00539126 0)
(1.01823 0.0109495 0)
(1.02502 0.0161168 0)
(1.03519 0.0210829 0)
(1.05017 0.0259516 0)
(1.07257 0.0304745 0)
(1.10195 0.0343602 0)
(1.07156 0.0327505 0)
(0.746448 0.0138922 0)
(0.154857 0.000458759 0)
(0.141734 -0.000314367 0)
(0.905017 -0.0181538 0)
(1.09754 -0.0284061 0)
(1.09581 -0.0275322 0)
(1.06844 -0.0240871 0)
(1.04949 -0.0202847 0)
(1.03637 -0.015854 0)
(1.02727 -0.0110212 0)
(1.02127 -0.00587779 0)
(1.0183 -0.000213595 0)
(1.01906 0.005513 0)
(1.02327 0.0106691 0)
(1.03052 0.0153592 0)
(1.04132 0.0197173 0)
(1.05694 0.0235793 0)
(1.07982 0.0268722 0)
(1.10429 0.0295155 0)
(1.04169 0.0260381 0)
(0.683097 0.00941961 0)
(0.140536 0.000329678 0)
(0.132125 -0.00022053 0)
(0.859136 -0.0130285 0)
(1.08639 -0.0230175 0)
(1.10117 -0.0230816 0)
(1.07445 -0.0199088 0)
(1.05482 -0.016762 0)
(1.04115 -0.0134573 0)
(1.03164 -0.00955651 0)
(1.02549 -0.00498618 0)
(1.02253 0.000266226 0)
(1.02312 0.00557341 0)
(1.02723 0.0101799 0)
(1.03465 0.0140527 0)
(1.04588 0.0172346 0)
(1.06205 0.0200393 0)
(1.08568 0.02291 0)
(1.10423 0.0249382 0)
(1.01072 0.020258 0)
(0.636598 0.0065705 0)
(0.130516 0.000238903 0)
(0.125474 -0.00016597 0)
(0.823118 -0.00891836 0)
(1.07341 -0.0178502 0)
(1.10464 -0.0189619 0)
(1.07996 -0.0167692 0)
(1.05969 -0.0142826 0)
(1.04604 -0.01141 0)
(1.03651 -0.0080002 0)
(1.03006 -0.00393466 0)
(1.02676 0.000819151 0)
(1.02735 0.00555958 0)
(1.03163 0.00962948 0)
(1.03908 0.0128725 0)
(1.05011 0.0155046 0)
(1.06653 0.0177089 0)
(1.09081 0.0197173 0)
(1.10198 0.0205784 0)
(0.981788 0.0151512 0)
(0.603087 0.00447129 0)
(0.123364 0.000189682 0)
(0.121372 -8.72291e-05 0)
(0.797209 -0.00505874 0)
(1.05939 -0.0122756 0)
(1.10518 -0.0145648 0)
(1.0833 -0.0136456 0)
(1.06306 -0.0118125 0)
(1.0493 -0.0093619 0)
(1.03987 -0.00634837 0)
(1.03358 -0.00271799 0)
(1.03022 0.00151144 0)
(1.03065 0.00570661 0)
(1.0346 0.00918214 0)
(1.04173 0.011889 0)
(1.05271 0.0140059 0)
(1.06904 0.0155354 0)
(1.0929 0.0164717 0)
(1.09638 0.0157848 0)
(0.956537 0.00998492 0)
(0.580947 0.00255862 0)
(0.118654 0.000116368 0)
(0.119803 1.445e-06 0)
(0.781484 -0.0021668 0)
(1.0465 -0.00699288 0)
(1.1035 -0.00934108 0)
(1.08545 -0.00897478 0)
(1.06581 -0.00781857 0)
(1.05242 -0.00621605 0)
(1.04301 -0.00397988 0)
(1.03661 -0.00114822 0)
(1.03313 0.00235076 0)
(1.03332 0.00583291 0)
(1.03706 0.0083902 0)
(1.04399 0.0101248 0)
(1.05456 0.0111036 0)
(1.07057 0.0117651 0)
(1.09273 0.0120284 0)
(1.0886 0.01073 0)
(0.937171 0.00580015 0)
(0.568445 0.00122764 0)
(0.116333 3.64503e-05 0)
(0.119737 3.19815e-05 0)
(0.772677 -0.00100746 0)
(1.03721 -0.00426385 0)
(1.10197 -0.0060293 0)
(1.08665 -0.00599857 0)
(1.06758 -0.00511715 0)
(1.05455 -0.00389624 0)
(1.04555 -0.00214506 0)
(1.03944 0.000260592 0)
(1.03608 0.00327691 0)
(1.03588 0.00620626 0)
(1.03903 0.00826066 0)
(1.0453 0.00944816 0)
(1.05532 0.0100589 0)
(1.07068 0.0101157 0)
(1.09156 0.00957586 0)
(1.08155 0.00814634 0)
(0.923353 0.00410264 0)
(0.561032 0.000819909 0)
(0.115321 1.25426e-05 0)
(0.12005 3.29699e-05 0)
(0.766505 -0.000641186 0)
(1.02956 -0.00348682 0)
(1.10039 -0.00549102 0)
(1.08762 -0.00545467 0)
(1.06898 -0.00475288 0)
(1.05615 -0.0034952 0)
(1.04742 -0.00163597 0)
(1.04148 0.00103647 0)
(1.03803 0.00429102 0)
(1.03749 0.00732223 0)
(1.04015 0.00939404 0)
(1.04586 0.0104453 0)
(1.05544 0.010648 0)
(1.07008 0.0104642 0)
(1.08964 0.00991838 0)
(1.07459 0.00800631 0)
(0.911554 0.00382278 0)
(0.554928 0.000812005 0)
(0.114472 2.18868e-05 0)
(0.120436 2.844e-05 0)
(0.761467 -0.000283809 0)
(1.0211 -0.00300708 0)
(1.0974 -0.00623398 0)
(1.08809 -0.00715268 0)
(1.07064 -0.00657157 0)
(1.05851 -0.00495941 0)
(1.05036 -0.00228451 0)
(1.0447 0.00130845 0)
(1.04105 0.00547358 0)
(1.0401 0.00933257 0)
(1.04207 0.0121052 0)
(1.04688 0.0137355 0)
(1.05535 0.0143296 0)
(1.06906 0.0137686 0)
(1.08655 0.0123777 0)
(1.06517 0.00879329 0)
(0.899457 0.00375335 0)
(0.549048 0.000858475 0)
(0.113427 3.95701e-05 0)
(0.120998 3.55242e-05 0)
(0.758034 0.000241581 0)
(1.01174 -0.00180961 0)
(1.09092 -0.00576344 0)
(1.08722 -0.00813821 0)
(1.0724 -0.00780316 0)
(1.06155 -0.00591577 0)
(1.054 -0.00248153 0)
(1.04839 0.00195159 0)
(1.04444 0.00701778 0)
(1.04297 0.011673 0)
(1.04435 0.0149526 0)
(1.04828 0.017019 0)
(1.05533 0.0176611 0)
(1.06711 0.0170223 0)
(1.07957 0.0141439 0)
(1.05194 0.00866752 0)
(0.887447 0.0033762 0)
(0.543567 0.000855962 0)
(0.112191 5.12836e-05 0)
(0.121912 4.54564e-05 0)
(0.757307 0.000923053 0)
(1.0041 -3.40492e-06 0)
(1.08267 -0.00338079 0)
(1.08491 -0.00628003 0)
(1.07386 -0.00649232 0)
(1.06529 -0.00440474 0)
(1.05839 -0.000736588 0)
(1.05276 0.00390304 0)
(1.04843 0.00917641 0)
(1.0463 0.0138642 0)
(1.04686 0.0169887 0)
(1.04973 0.0186706 0)
(1.0548 0.018743 0)
(1.06347 0.0174515 0)
(1.06963 0.0133803 0)
(1.03773 0.00753103 0)
(0.8771 0.00296807 0)
(0.538638 0.000871828 0)
(0.110861 5.8451e-05 0)
(0.123297 6.55772e-05 0)
(0.758847 0.00150271 0)
(1.00027 0.00183318 0)
(1.07637 4.3561e-05 0)
(1.082 -0.001907 0)
(1.07547 -0.0020631 0)
(1.06879 -0.000225349 0)
(1.06264 0.00305799 0)
(1.05699 0.00731646 0)
(1.05216 0.0120349 0)
(1.04914 0.0159065 0)
(1.04872 0.018011 0)
(1.05017 0.0186084 0)
(1.05349 0.018077 0)
(1.05795 0.0155657 0)
(1.05944 0.0113932 0)
(1.0256 0.00646181 0)
(0.868761 0.00288028 0)
(0.533861 0.000975878 0)
(0.109401 6.8192e-05 0)
(0.125216 8.74181e-05 0)
(0.762995 0.00210886 0)
(1.00053 0.00337468 0)
(1.07372 0.00315941 0)
(1.08102 0.0026147 0)
(1.07701 0.00313447 0)
(1.07192 0.00502143 0)
(1.06645 0.0080364 0)
(1.06074 0.0117826 0)
(1.05523 0.0156307 0)
(1.05111 0.0183442 0)
(1.04935 0.0191549 0)
(1.04935 0.0185712 0)
(1.05043 0.0167706 0)
(1.05219 0.0138893 0)
(1.05069 0.0101377 0)
(1.0162 0.00619869 0)
(0.861618 0.00319723 0)
(0.528644 0.001174 0)
(0.107692 8.22952e-05 0)
(0.127729 0.000111542 0)
(0.769305 0.00271803 0)
(1.0036 0.0047572 0)
(1.07451 0.0058358 0)
(1.08216 0.00670828 0)
(1.07933 0.00809703 0)
(1.07511 0.0104774 0)
(1.06994 0.0135589 0)
(1.06395 0.0169654 0)
(1.0575 0.020013 0)
(1.05205 0.0215109 0)
(1.04869 0.0210586 0)
(1.04703 0.0193795 0)
(1.0465 0.0167287 0)
(1.04644 0.0135898 0)
(1.04331 0.0101506 0)
(1.00848 0.00673813 0)
(0.854619 0.00381583 0)
(0.522482 0.00144783 0)
(0.105595 0.000100233 0)
(0.13096 0.00014804 0)
(0.777839 0.00350789 0)
(1.00948 0.00635358 0)
(1.07801 0.00846678 0)
(1.08535 0.0103538 0)
(1.08284 0.0128645 0)
(1.07877 0.0160376 0)
(1.07341 0.0195074 0)
(1.06672 0.0228691 0)
(1.059 0.025365 0)
(1.0519 0.0258274 0)
(1.04697 0.0242073 0)
(1.04382 0.0214687 0)
(1.04189 0.0181618 0)
(1.0406 0.0147099 0)
(1.03655 0.0112788 0)
(1.00119 0.00789946 0)
(0.8467 0.00468409 0)
(0.514939 0.00181421 0)
(0.102996 0.000124706 0)
(0.135153 0.000200688 0)
(0.789003 0.00460188 0)
(1.01783 0.00841929 0)
(1.08389 0.0114929 0)
(1.09058 0.0143951 0)
(1.08782 0.0180331 0)
(1.08329 0.0221241 0)
(1.07713 0.0262238 0)
(1.06926 0.0298295 0)
(1.05985 0.0319976 0)
(1.05082 0.0315736 0)
(1.04414 0.0289152 0)
(1.03955 0.0251459 0)
(1.03647 0.0210533 0)
(1.03428 0.0170881 0)
(1.02956 0.0133455 0)
(0.993277 0.00962117 0)
(0.837206 0.00580937 0)
(0.505574 0.00225723 0)
(0.0997718 0.000154414 0)
(0.140658 0.000271906 0)
(0.803401 0.00609353 0)
(1.02878 0.0111186 0)
(1.09215 0.0152001 0)
(1.09794 0.0192249 0)
(1.09446 0.0240718 0)
(1.08895 0.0292791 0)
(1.08148 0.0342735 0)
(1.07186 0.0383172 0)
(1.06021 0.0402631 0)
(1.04887 0.038964 0)
(1.04024 0.0351895 0)
(1.03416 0.0303388 0)
(1.02997 0.025311 0)
(1.02698 0.0205995 0)
(1.02164 0.0162642 0)
(0.984049 0.0119113 0)
(0.825499 0.00724816 0)
(0.493929 0.00280977 0)
(0.0957965 0.000191076 0)
(0.147984 0.000376003 0)
(0.82195 0.00816995 0)
(1.04295 0.0146874 0)
(1.1031 0.0199314 0)
(1.10767 0.0252679 0)
(1.10309 0.0315688 0)
(1.09614 0.0381612 0)
(1.08673 0.0442329 0)
(1.07467 0.0488074 0)
(1.06016 0.0505338 0)
(1.04604 0.0482611 0)
(1.03519 0.0432056 0)
(1.02747 0.0370854 0)
(1.02209 0.0309079 0)
(1.01827 0.0252127 0)
(1.01221 0.0200343 0)
(0.972913 0.0148109 0)
(0.811011 0.00905697 0)
(0.479477 0.00349313 0)
(0.0909181 0.000236172 0)
(0.157918 0.000544312 0)
(0.84612 0.0112581 0)
(1.06131 0.0197509 0)
(1.11732 0.0264036 0)
(1.12025 0.0334276 0)
(1.114 0.0414925 0)
(1.10491 0.0496521 0)
(1.0928 0.0568457 0)
(1.07757 0.0618985 0)
(1.05955 0.0632383 0)
(1.04216 0.0597612 0)
(1.0288 0.0531855 0)
(1.01925 0.0455459 0)
(1.01253 0.0379623 0)
(1.00775 0.0310326 0)
(1.0008 0.0247746 0)
(0.959281 0.0184489 0)
(0.793257 0.0113233 0)
(0.461727 0.00431961 0)
(0.0850015 0.000283464 0)
(0.171718 0.000813373 0)
(0.877836 0.0159719 0)
(1.08535 0.0270242 0)
(1.13592 0.0353935 0)
(1.13635 0.0446695 0)
(1.12748 0.054886 0)
(1.11527 0.0647672 0)
(1.09955 0.0730354 0)
(1.08032 0.078296 0)
(1.05808 0.0788472 0)
(1.03695 0.0737811 0)
(1.02077 0.0653772 0)
(1.00916 0.0559539 0)
(1.00092 0.0467072 0)
(0.994994 0.0382875 0)
(0.986903 0.0307147 0)
(0.942483 0.0230386 0)
(0.771503 0.0141813 0)
(0.440198 0.00533324 0)
(0.0779026 0.000334704 0)
(0.191662 0.00129106 0)
(0.920361 0.0235403 0)
(1.1171 0.0380101 0)
(1.16029 0.0487647 0)
(1.15668 0.0609469 0)
(1.14383 0.073537 0)
(1.12716 0.0849564 0)
(1.10667 0.0938393 0)
(1.08255 0.0986975 0)
(1.05542 0.0978139 0)
(1.03012 0.0906285 0)
(1.01084 0.0800383 0)
(0.996937 0.0685835 0)
(0.986934 0.0574667 0)
(0.979606 0.0473452 0)
(0.969986 0.0382397 0)
(0.921701 0.0289202 0)
(0.744697 0.0178896 0)
(0.414014 0.0066631 0)
(0.0694456 0.000395965 0)
(0.221184 0.0023932 0)
(0.980096 0.037195 0)
(1.15884 0.0567585 0)
(1.19159 0.0704535 0)
(1.18129 0.0855424 0)
(1.16252 0.0998889 0)
(1.13983 0.111883 0)
(1.11341 0.120286 0)
(1.08361 0.123705 0)
(1.05114 0.120482 0)
(1.02138 0.110529 0)
(0.998826 0.0973842 0)
(0.982422 0.0837058 0)
(0.970405 0.0706124 0)
(0.961328 0.0586923 0)
(0.949575 0.0479065 0)
(0.895999 0.0366561 0)
(0.711601 0.0227991 0)
(0.3829 0.00848406 0)
(0.0598551 0.000438276 0)
(0.262159 0.00913597 -1.43368e-20)
(1.06008 0.0651709 -1.11472e-20)
(1.20889 0.0891209 3.15305e-21)
(1.22729 0.106013 0)
(1.20775 0.12227 1.13234e-35)
(1.1814 0.136381 2.64082e-24)
(1.15163 0.147196 -1.02071e-21)
(1.11857 0.15372 0)
(1.08259 0.154657 4.34349e-35)
(1.04429 0.148407 -3.39078e-21)
(1.00962 0.135341 0)
(0.983276 0.119549 -4.96146e-21)
(0.963825 0.103686 -1.52344e-20)
(0.94918 0.0887803 -7.39007e-21)
(0.93761 0.0754414 -2.33673e-21)
(0.922694 0.0634102 -1.41754e-21)
(0.862876 0.0503248 0)
(0.668909 0.0324006 1.01927e-21)
(0.345598 0.0138504 1.20904e-21)
(0.0510719 0.00169143 2.14215e-20)
(0.288452 0.0256487 -2.54868e-20)
(1.12442 0.110466 5.07346e-22)
(1.25197 0.137181 -1.48323e-21)
(1.2594 0.155065 0)
(1.23149 0.169655 2.60168e-21)
(1.19779 0.181972 1.66636e-21)
(1.161 0.190884 -5.49879e-22)
(1.1212 0.195246 -5.33052e-21)
(1.07862 0.193726 0)
(1.03372 0.184725 1.43721e-20)
(0.992952 0.168981 1.60912e-20)
(0.961492 0.151035 5.21637e-21)
(0.937671 0.133511 2.07657e-20)
(0.919101 0.117212 3.07367e-20)
(0.903691 0.102692 0)
(0.883814 0.0897288 4.59245e-20)
(0.819736 0.074929 6.72342e-20)
(0.624366 0.0525697 7.50984e-20)
(0.318742 0.0263105 -8.71114e-20)
(0.0465865 0.00401513 -1.59583e-21)
(0.284575 0.0416019 0)
(1.16134 0.168701 -7.67704e-21)
(1.28437 0.198369 0)
(1.28442 0.21391 1.25844e-20)
(1.24996 0.225008 0)
(1.20996 0.233839 7.00847e-21)
(1.1669 0.239499 3.12695e-22)
(1.12091 0.240703 -7.31918e-21)
(1.07225 0.236043 -1.54727e-21)
(1.02125 0.223902 6.90834e-21)
(0.974915 0.205522 3.77493e-20)
(0.938887 0.185796 -2.82554e-22)
(0.911243 0.167242 -1.56498e-20)
(0.889352 0.150499 -3.05534e-20)
(0.871012 0.135849 3.71571e-20)
(0.84894 0.12281 -6.68845e-20)
(0.787564 0.107145 -9.19296e-21)
(0.610593 0.0800713 0)
(0.328406 0.0434903 1.42042e-22)
(0.0532216 0.0075643 0)
(0.275175 0.0553746 -1.90106e-19)
(1.17849 0.229925 7.84828e-20)
(1.30496 0.264345 4.21444e-20)
(1.30076 0.277449 -8.16204e-21)
(1.26182 0.284646 1.24951e-20)
(1.21707 0.289438 -1.66301e-20)
(1.16897 0.291231 -2.50519e-22)
(1.11778 0.288756 0)
(1.06382 0.280532 -2.61695e-20)
(1.0075 0.264982 0)
(0.956383 0.24385 -1.91895e-20)
(0.916609 0.22245 -2.73581e-20)
(0.886037 0.203132 -1.7584e-20)
(0.861814 0.186239 -2.28175e-20)
(0.841685 0.171788 0)
(0.819127 0.159093 0)
(0.763231 0.14338 -6.19365e-20)
(0.605952 0.112261 1.23845e-20)
(0.339923 0.0641807 -7.21899e-21)
(0.0599461 0.011812 -8.44127e-21)
(0.265885 0.0676913 1.39777e-19)
(1.18325 0.290558 0)
(1.31601 0.331063 -1.17459e-19)
(1.30945 0.342152 -3.0464e-20)
(1.26737 0.345613 -2.35848e-20)
(1.21919 0.346412 0)
(1.16723 0.344291 -3.87778e-21)
(1.11183 0.338005 6.0141e-21)
(1.05342 0.326098 1.11265e-20)
(0.992591 0.306974 3.52054e-20)
(0.937541 0.282953 0)
(0.894922 0.259745 -5.96272e-20)
(0.862396 0.239472 -3.83631e-20)
(0.836839 0.222262 -2.31625e-20)
(0.815888 0.207947 1.52751e-19)
(0.79378 0.195618 1.87915e-20)
(0.743286 0.179702 8.99894e-20)
(0.599784 0.14417 -4.35033e-19)
(0.34427 0.0840372 2.58419e-19)
(0.0632761 0.01577 -3.1253e-19)
(0.257777 0.0787528 1.471e-19)
(1.18025 0.348609 -2.73544e-20)
(1.32004 0.396557 2.05723e-20)
(1.31208 0.406131 5.61351e-20)
(1.26779 0.406117 3.47821e-20)
(1.21699 0.403221 1.65636e-21)
(1.16202 0.397374 3.62132e-21)
(1.10326 0.387356 3.73028e-21)
(1.04117 0.371764 -2.45136e-20)
(0.976498 0.349015 0)
(0.91831 0.321942 -2.54624e-20)
(0.873505 0.296628 -1.49396e-21)
(0.839573 0.275057 -4.3005e-20)
(0.813206 0.257187 0)
(0.792024 0.242597 -3.33343e-20)
(0.7708 0.230101 -8.12253e-20)
(0.72459 0.213211 2.25211e-19)
(0.590139 0.172893 -2.24482e-19)
(0.342378 0.101229 3.18977e-19)
(0.0638583 0.0190582 -3.32605e-19)
(0.251227 0.089003 -4.2891e-22)
(1.17254 0.403594 3.33486e-20)
(1.31881 0.459705 9.80931e-20)
(1.31009 0.468309 -3.42436e-20)
(1.26418 0.465177 1.98079e-20)
(1.21137 0.458913 0)
(1.15402 0.449599 9.79723e-21)
(1.09247 0.436053 -2.1278e-21)
(1.02729 0.416869 -1.08863e-20)
(0.959303 0.390489 0)
(0.898296 0.360207 -2.47057e-20)
(0.851697 0.332522 -3.51229e-20)
(0.816806 0.309289 4.7072e-20)
(0.790091 0.290298 -3.02775e-20)
(0.769042 0.274942 -1.46865e-19)
(0.748741 0.261802 9.05006e-20)
(0.705656 0.243525 2.86925e-20)
(0.577138 0.198193 0)
(0.336002 0.115773 -3.0997e-19)
(0.0628502 0.021728 -1.13912e-20)
(0.246111 0.0987551 2.40114e-20)
(1.16212 0.455393 -3.82789e-20)
(1.31381 0.520108 -5.35692e-20)
(1.30465 0.528077 -1.05479e-19)
(1.25753 0.522193 9.56717e-20)
(1.20313 0.512914 -5.19919e-20)
(1.14381 0.500435 -2.06766e-20)
(1.07993 0.483616 -2.59786e-21)
(1.01207 0.46103 1.17362e-20)
(0.941163 0.431079 -8.58834e-20)
(0.877675 0.397437 -3.06244e-20)
(0.829658 0.367114 0)
(0.794057 0.341901 5.15006e-20)
(0.767156 0.321376 6.38506e-20)
(0.746308 0.304844 7.88177e-20)
(0.7268 0.29064 -9.87402e-20)
(0.685841 0.270562 -2.97621e-20)
(0.561368 0.220089 3.53064e-20)
(0.326304 0.127608 0)
(0.0607684 0.0237494 -2.48185e-20)
(0.242198 0.108141 -2.78045e-19)
(1.15037 0.504136 1.75114e-19)
(1.30612 0.577563 5.88372e-20)
(1.29662 0.585064 -8.03333e-20)
(1.24855 0.576813 5.69948e-20)
(1.19291 0.564856 -3.86224e-21)
(1.132 0.54953 2.04759e-20)
(1.06612 0.529732 -1.49196e-21)
(0.995901 0.503991 -1.9717e-20)
(0.92242 0.470597 1.59928e-22)
(0.856627 0.433534 -9.08918e-20)
(0.807194 0.400282 8.98313e-20)
(0.770924 0.372753 -5.77935e-20)
(0.743894 0.350352 7.21039e-20)
(0.72334 0.332281 0)
(0.704546 0.31673 -5.36116e-20)
(0.664948 0.294409 -1.27739e-21)
(0.543396 0.238662 -1.5439e-19)
(0.314167 0.137118 -2.28241e-20)
(0.0578218 0.0251309 0)
(0.239284 0.117262 0)
(1.13809 0.550086 1.89739e-19)
(1.29645 0.631903 1.36935e-19)
(1.28676 0.639171 9.05088e-20)
(1.23795 0.628856 5.51054e-20)
(1.18129 0.614536 0)
(1.11906 0.596681 1.85198e-20)
(1.05149 0.574202 -1.20907e-21)
(0.979161 0.54558 4.16811e-20)
(0.903129 0.508909 -1.03641e-20)
(0.835049 0.468434 -6.67288e-20)
(0.784168 0.432043 4.4833e-20)
(0.747282 0.401826 -1.93338e-21)
(0.720164 0.377239 7.58954e-20)
(0.699929 0.357346 4.98109e-20)
(0.681691 0.340123 -1.16821e-19)
(0.642894 0.315224 1.41556e-19)
(0.523463 0.254098 4.2313e-20)
(0.300052 0.144284 1.74998e-19)
(0.0541982 0.0258424 -4.68593e-19)
(0.237231 0.126245 -7.10953e-20)
(1.1258 0.593416 1.09315e-19)
(1.28551 0.683195 -8.50502e-20)
(1.27561 0.690364 -1.04781e-19)
(1.22618 0.678229 0)
(1.16871 0.661829 4.4558e-20)
(1.10537 0.641748 -5.3861e-20)
(1.0363 0.616892 -1.91278e-21)
(0.961996 0.585679 0)
(0.883501 0.546018 -1.62124e-19)
(0.81306 0.502219 1.82006e-19)
(0.760558 0.462596 0)
(0.722971 0.4294 6.84882e-20)
(0.695746 0.4023 -1.95014e-21)
(0.675747 0.380313 -1.57576e-19)
(0.657882 0.361099 6.19932e-20)
(0.619471 0.333234 0)
(0.501776 0.266542 2.29433e-19)
(0.28418 0.149127 0)
(0.0500497 0.0259462 -2.23391e-19)
(0.235849 0.135107 7.91722e-20)
(1.11375 0.634338 1.24746e-19)
(1.27384 0.731481 -8.91418e-20)
(1.26359 0.738673 0)
(1.21367 0.724934 7.5297e-20)
(1.15556 0.706707 0)
(1.09127 0.684674 6.97146e-20)
(1.02086 0.657744 8.31732e-21)
(0.944723 0.624259 3.69369e-21)
(0.863842 0.581892 -8.00479e-20)
(0.790847 0.534934 1.75624e-20)
(0.736389 0.492029 0)
(0.69772 0.455674 -1.45659e-19)
(0.670288 0.425758 2.01453e-21)
(0.65049 0.401353 0)
(0.632946 0.379874 2.428e-21)
(0.594628 0.348583 2.08544e-19)
(0.478218 0.275886 -2.01054e-19)
(0.266582 0.151582 5.93665e-20)
(0.0453777 0.0253872 0)
(0.23478 0.14373 0)
(1.10207 0.673018 1.39324e-19)
(1.26172 0.776853 1.04318e-19)
(1.25105 0.78418 -2.19056e-21)
(1.20076 0.769006 4.69116e-20)
(1.14213 0.749186 1.04844e-19)
(1.07704 0.725457 -2.2592e-20)
(1.00546 0.696744 3.91632e-21)
(0.927623 0.66131 2.40041e-20)
(0.844324 0.616605 -1.24299e-19)
(0.76861 0.566691 -3.06414e-21)
(0.711914 0.520461 -5.92549e-20)
(0.671694 0.480727 2.38949e-19)
(0.643797 0.447669 -2.41352e-21)
(0.624164 0.420586 -1.24443e-19)
(0.606839 0.39649 -2.27775e-19)
(0.568258 0.361384 0)
(0.452681 0.282221 0)
(0.247225 0.151517 6.52514e-20)
(0.0402959 0.0241439 -3.81571e-20)
(0.234268 0.152201 9.81937e-20)
(1.09094 0.70944 -3.04631e-19)
(1.24934 0.819461 -1.11659e-19)
(1.23825 0.826939 0)
(1.18769 0.810501 -1.49358e-21)
(1.12865 0.789294 1.25271e-19)
(1.06292 0.764106 -7.4478e-20)
(0.990298 0.733882 -3.64327e-20)
(0.91086 0.696831 2.30197e-20)
(0.825155 0.650158 -9.49922e-20)
(0.746514 0.597651 -1.53576e-19)
(0.687234 0.548252 1.57916e-19)
(0.6452 0.505043 0)
(0.616346 0.468563 -5.59682e-20)
(0.59663 0.438382 -1.36798e-19)
(0.579391 0.411269 -1.65213e-19)
(0.540132 0.371635 -2.00899e-19)
(0.424982 0.285408 6.01493e-20)
(0.225992 0.148577 -3.52987e-20)
(0.0347761 0.0221758 4.21451e-22)
(0.233816 0.160441 0)
(1.08057 0.743588 0)
(1.23691 0.859453 2.44217e-21)
(1.22541 0.86706 0)
(1.17467 0.849513 -1.75576e-19)
(1.11531 0.827089 -1.10209e-19)
(1.04906 0.800647 0)
(0.975533 0.76917 -8.27202e-21)
(0.894615 0.730823 2.54128e-20)
(0.806536 0.682592 -2.18054e-19)
(0.724764 0.62788 0)
(0.662447 0.575566 -1.01066e-19)
(0.618182 0.528881 -2.97565e-21)
(0.587933 0.488717 -2.46169e-21)
(0.56788 0.454966 1.46074e-19)
(0.550466 0.424267 -4.13297e-22)
(0.510099 0.379312 -4.36824e-19)
(0.394788 0.285156 1.31273e-19)
(0.202966 0.142784 3.89756e-20)
(0.0288585 0.0195035 0)
(0.233362 0.168429 -3.60355e-19)
(1.07066 0.775934 -1.86804e-19)
(1.22455 0.896929 -2.78914e-19)
(1.21268 0.904648 3.89528e-19)
(1.16182 0.886111 -3.28511e-19)
(1.10226 0.862633 0)
(1.0356 0.835127 -6.24269e-20)
(0.961303 0.802635 1.56895e-20)
(0.879035 0.763304 3.67052e-21)
(0.788638 0.713925 1.73529e-20)
(0.703558 0.657491 1.91697e-19)
(0.63779 0.602611 -3.44801e-20)
(0.5906 0.552473 -1.47425e-19)
(0.558415 0.508308 -6.65596e-20)
(0.537655 0.470516 8.14759e-20)
(0.519868 0.435499 -3.50207e-22)
(0.477988 0.384281 1.20033e-19)
(0.361842 0.281261 -2.84954e-19)
(0.177837 0.133788 3.39593e-19)
(0.0227279 0.0162647 4.91812e-20)
(0.232797 0.17606 1.32191e-19)
(1.06119 0.806503 -1.02089e-19)
(1.2124 0.932017 5.88144e-21)
(1.20017 0.939824 2.19631e-19)
(1.14927 0.9204 7.65547e-20)
(1.08958 0.895996 2.19412e-19)
(1.02264 0.867597 -2.73345e-20)
(0.947709 0.834298 7.42124e-20)
(0.864223 0.794262 -5.6932e-21)
(0.771586 0.744144 -1.17492e-19)
(0.683119 0.686516 0)
(0.613518 0.629523 -1.55305e-19)
(0.562695 0.576179 2.14026e-19)
(0.527747 0.527831 0)
(0.505709 0.485289 -1.74378e-19)
(0.487287 0.444902 1.08364e-19)
(0.443656 0.386007 -1.29771e-19)
(0.326744 0.273252 -1.56336e-19)
(0.151679 0.121945 -2.76708e-19)
(0.0165767 0.012543 -2.159e-19)
(0.232405 0.18344 -1.45184e-19)
(1.052 0.8353 1.09148e-19)
(1.20052 0.964809 2.59433e-19)
(1.18796 0.972687 3.0165e-19)
(1.13708 0.952474 -1.60248e-19)
(1.07737 0.927266 1.50802e-19)
(1.01025 0.898112 -8.51068e-20)
(0.934816 0.864203 9.04628e-20)
(0.850253 0.823718 2.82486e-21)
(0.755508 0.773248 1.10644e-19)
(0.663615 0.714978 4.05435e-19)
(0.589867 0.65644 0)
(0.5348 0.600317 0)
(0.495986 0.547845 -7.69963e-20)
(0.471658 0.499859 0)
(0.452008 0.452221 2.36214e-19)
(0.406612 0.383476 2.84018e-19)
(0.289951 0.260228 0)
(0.125705 0.107393 0)
(0.0109443 0.00873467 2.3536e-19)
(0.23175 0.190305 1.5992e-19)
(1.04313 0.862347 1.30347e-19)
(1.18897 0.995434 1.86323e-19)
(1.17611 1.00336 -2.68785e-19)
(1.12533 0.982436 -1.78332e-19)
(1.06566 0.956521 -1.99419e-19)
(0.99848 0.926736 1.25825e-19)
(0.922669 0.892379 3.5832e-22)
(0.837186 0.851675 -4.70453e-21)
(0.740484 0.801214 -5.94368e-21)
(0.645217 0.742849 2.04952e-19)
(0.567102 0.683378 0)
(0.507211 0.625084 2.15674e-19)
(0.463364 0.568923 1.62022e-19)
(0.435052 0.514923 4.15305e-19)
(0.412759 0.457583 1.2735e-19)
(0.365595 0.374787 -1.57171e-19)
(0.252772 0.239662 -9.24532e-20)
(0.103644 0.0900056 0)
(0.00719254 0.00548384 2.56088e-19)
(0.231294 0.197077 -3.51347e-19)
(1.03454 0.88776 0)
(1.17776 1.02397 2.078e-19)
(1.16465 1.03194 -2.19922e-19)
(1.11404 1.01038 2.01352e-19)
(1.05449 0.983848 2.90464e-19)
(0.987353 0.95353 -2.90217e-19)
(0.911288 0.918866 3.45503e-21)
(0.825041 0.878141 0)
(0.726575 0.828003 -1.00154e-19)
(0.628077 0.770077 -4.22395e-19)
(0.545482 0.710339 2.09733e-20)
(0.480362 0.650619 2.92253e-19)
(0.430309 0.591699 0)
(0.395576 0.531944 2.79856e-19)
(0.367552 0.462051 0)
(0.316577 0.357824 0)
(0.214778 0.203612 -1.03197e-19)
(0.0982944 0.0601185 0)
(0.0259387 0.0116035 6.92314e-20)
(0.23052 0.203216 -3.83533e-19)
(1.0262 0.911852 0)
(1.16688 1.05064 3.3617e-19)
(1.15356 1.05865 0)
(1.10319 1.03656 -1.09056e-19)
(1.04379 1.00952 0)
(0.976801 0.978796 -2.15386e-20)
(0.900575 0.943993 -1.54493e-20)
(0.813708 0.903466 -1.48833e-21)
(0.713645 0.853986 -9.59585e-20)
(0.612073 0.797061 1.08981e-20)
(0.524932 0.737847 1.73525e-19)
(0.454198 0.677391 2.82538e-19)
(0.396796 0.617114 4.05276e-20)
(0.352512 0.553083 2.18492e-19)
(0.313397 0.469193 0)
(0.247993 0.334764 3.43569e-19)
(0.151928 0.137921 -2.0422e-19)
(0.0598923 0.0638915 2.35193e-19)
(-0.064927 0.391201 -2.75405e-19)
(0.229749 0.209078 3.12419e-19)
(1.01791 0.934516 4.9402e-19)
(1.15625 1.07574 0)
(1.14272 1.0839 4.69217e-21)
(1.09261 1.06151 2.95871e-19)
(1.03334 1.03419 -5.59977e-19)
(0.966555 1.00329 -1.2722e-19)
(0.890183 0.96865 0)
(0.802738 0.928695 -3.26683e-20)
(0.701134 0.88043 -2.40347e-21)
(0.596449 0.825254 0)
(0.504486 0.76764 0)
(0.427578 0.707326 2.46878e-19)
(0.362014 0.647048 -1.26341e-19)
(0.304353 0.582488 -2.16923e-19)
(0.246501 0.487423 0)
(0.138929 0.319635 1.74167e-19)
(0.0288512 0.441243 -2.05917e-19)
(0.0470876 1.76012 -1.06486e-19)
(0.082291 2.74556 -1.3813e-19)
(0.228877 0.214094 -2.28384e-19)
(1.00992 0.955879 -6.2274e-19)
(1.14587 1.09926 1.93415e-19)
(1.13212 1.10753 1.86058e-19)
(1.08234 1.08503 0)
(1.02318 1.05758 -4.00318e-19)
(0.956778 1.02671 -2.12338e-19)
(0.880267 0.992426 1.01119e-20)
(0.792353 0.953325 -4.43094e-21)
(0.689367 0.906712 6.85303e-20)
(0.581753 0.85394 1.84471e-19)
(0.485086 0.799094 1.76004e-19)
(0.401748 0.739947 2.41017e-19)
(0.32836 0.679808 -2.86548e-19)
(0.257409 0.621318 -3.18975e-19)
(0.173859 0.524911 0)
(0.077146 0.806867 0)
(0.134615 2.45449 8.99097e-20)
(0.139687 3.15923 0)
(0.141124 3.37098 2.04574e-19)
(0.230313 0.21898 0)
(1.00273 0.976029 0)
(1.13551 1.12107 0)
(1.12156 1.12935 5.17436e-20)
(1.07209 1.10692 2.63731e-19)
(1.01309 1.07956 -3.04815e-19)
(0.947366 1.04896 -1.51741e-19)
(0.87078 1.01522 1.14171e-20)
(0.78252 0.977228 -7.31754e-20)
(0.678373 0.932688 -1.00316e-20)
(0.568122 0.882985 3.27861e-19)
(0.467066 0.831942 -2.06353e-20)
(0.377235 0.775769 2.68314e-20)
(0.297179 0.712897 4.05973e-20)
(0.217646 0.666461 1.04697e-21)
(0.140235 0.911405 1.7564e-21)
(0.182027 2.58151 -4.40666e-19)
(0.204861 3.26445 -1.66052e-19)
(0.186958 3.42383 7.621e-20)
(0.167656 3.45114 -7.70253e-20)
(0.14806 0.176538 1.30236e-19)
(0.988947 0.997968 0)
(1.12499 1.14135 -3.78346e-19)
(1.11181 1.15001 -4.80145e-19)
(1.06257 1.12792 5.48485e-19)
(1.00395 1.10076 3.23489e-19)
(0.938226 1.07014 1.77055e-19)
(0.861812 1.03716 -1.93708e-19)
(0.773411 1.00051 7.70673e-20)
(0.668519 0.958328 0)
(0.556162 0.912201 1.37797e-19)
(0.451285 0.865597 -1.29353e-19)
(0.35501 0.816164 0)
(0.269104 0.750169 3.52876e-20)
(0.20242 0.847695 8.40721e-20)
(0.18696 2.22358 -1.04722e-19)
(0.276931 3.30127 1.16282e-19)
(0.253576 3.44539 5.4308e-20)
(0.212174 3.47258 6.16978e-20)
(0.184063 3.48524 7.1022e-20)
(0.270726 0.253073 -2.42233e-19)
(0.971153 1.00353 0)
(1.10523 1.16329 3.86535e-19)
(1.09807 1.18043 4.97083e-19)
(1.04723 1.15846 -5.63562e-19)
(0.988571 1.13186 -3.43008e-19)
(0.922543 1.10264 -2.71719e-19)
(0.846093 1.0709 -1.43586e-20)
(0.757141 1.03656 -1.08475e-19)
(0.650589 0.998574 -1.06154e-20)
(0.534786 0.959447 4.85818e-21)
(0.424167 0.921891 9.65298e-20)
(0.317434 0.887216 2.12798e-20)
(0.24462 0.983287 -3.07843e-20)
(0.280068 2.12367 -7.20934e-20)
(0.357161 3.29804 4.58299e-20)
(0.345326 3.48609 -3.65187e-20)
(0.303012 3.5129 -1.99649e-20)
(0.259476 3.54507 1.74243e-20)
(0.196739 3.53661 7.54673e-22)
(0.257133 0.248618 0)
(0.967001 1.0231 1.01674e-19)
(1.09688 1.1845 -7.65876e-20)
(1.08813 1.2016 -5.54253e-20)
(1.0377 1.17973 -3.69993e-19)
(0.979334 1.15334 3.3483e-19)
(0.913288 1.12428 1.82607e-19)
(0.837143 1.09336 -1.50148e-20)
(0.748397 1.06057 1.33435e-19)
(0.641658 1.02558 -1.38716e-20)
(0.52477 0.991525 -1.60115e-19)
(0.411963 0.961009 1.35981e-20)
(0.307048 0.948516 -1.80454e-20)
(0.291164 1.37155 -2.46477e-20)
(0.394303 2.96371 1.87804e-20)
(0.43706 3.47142 7.24712e-22)
(0.386157 3.55507 -6.39989e-20)
(0.342926 3.58385 -7.12347e-20)
(0.284726 3.61097 9.47199e-20)
(0.213018 3.60518 4.15261e-20)
(0.239814 0.245753 2.4928e-19)
(0.960861 1.04498 6.84244e-19)
(1.08785 1.20739 -2.18615e-19)
(1.07776 1.22411 -2.10384e-19)
(1.02769 1.20209 0)
(0.969686 1.17573 4.89234e-19)
(0.903943 1.14689 2.78158e-19)
(0.828402 1.11675 -1.57472e-20)
(0.740213 1.08556 1.38767e-20)
(0.633845 1.05373 7.7143e-20)
(0.516687 1.02493 -4.01364e-20)
(0.403522 1.00236 -8.8402e-20)
(0.31345 1.04899 -1.13741e-19)
(0.371713 1.94 1.2454e-19)
(0.496118 3.33478 4.4534e-20)
(0.497446 3.54876 0)
(0.436543 3.60437 0)
(0.394396 3.66024 8.90358e-20)
(0.313604 3.73335 0)
(0.226617 3.69989 1.91014e-19)
(0.227756 0.245834 -3.63617e-19)
(0.952782 1.06771 -5.68887e-19)
(1.07733 1.23117 0)
(1.06618 1.24728 5.34446e-21)
(1.01652 1.22487 -3.59635e-19)
(0.959004 1.19839 7.26222e-19)
(0.893911 1.16978 1.8676e-19)
(0.819202 1.14031 -1.94427e-20)
(0.731852 1.11062 1.47273e-19)
(0.626294 1.08185 -7.91397e-21)
(0.509686 1.05842 0)
(0.398156 1.04524 0)
(0.340657 1.2198 -7.74013e-20)
(0.47487 2.58225 2.13221e-20)
(0.588811 3.48209 -2.53245e-20)
(0.553062 3.59403 0)
(0.509163 3.65947 2.00609e-19)
(0.452782 3.75147 -3.09572e-19)
(0.399576 3.765 -2.79309e-19)