/*--------------------------------*- C++ -*----------------------------------*\
  =========                 |
  \\      /  F ield         | OpenFOAM: The Open Source CFD Toolbox
   \\    /   O peration     | Website:  https://openfoam.org
    \\  /    A nd           | Version:  10
     \\/     M anipulation  |
\*---------------------------------------------------------------------------*/
FoamFile
{
    format      ascii;
    class       volScalarField;
    location    "66";
    object      p;
}
// * * * * * * * * * * * * * * * * * * * * * * * * * * * * * * * * * * * * * //

dimensions      [0 2 -2 0 0 0 0];

internalField   nonuniform List<scalar> 
918
(
0.557059
1.1841
0.000865623
0.556506
-0.00945756
1.15109
-0.509921
0.66372
0.537258
-0.10979
-0.0486842
0.539284
1.01189
0.778155
-1.12373
-0.011109
0.651701
-0.381444
0.536371
-0.0580575
0.691791
0.543798
0.546823
0.537401
0.598245
0.751816
0.893182
0.0231348
0.0115283
0.00501271
-0.0144404
-0.0361364
-0.0309088
1.03473
1.08583
1.10853
0.505017
0.33324
-0.3754
-0.448142
-0.435943
-0.544688
0.660977
0.659636
-0.210634
0.667092
0.669416
0.524284
0.536627
0.537539
0.538558
0.537543
0.538924
0.403997
-0.109766
-0.141037
-0.0912456
-0.0843876
0.0526955
-0.0505245
-0.0526086
-0.0469754
-0.0470416
0.454149
0.533524
0.529924
0.543639
0.553804
1.12365
1.09556
1.12171
1.03543
1.05189
0.989865
0.962511
0.798457
0.820495
0.763948
0.749741
-1.55546
-2.5067
-0.53396
-0.283278
-0.0153758
-0.00886837
-0.00293454
0.648603
0.649876
0.651175
0.65359
1.0801
-0.378903
-0.479254
0.536513
0.535324
0.543642
0.544343
0.540363
0.539453
-0.049653
-0.0467222
-0.048687
-0.0545943
-0.0527832
0.680219
0.680852
0.537929
0.534933
0.561307
0.581071
0.571344
0.277842
0.60895
0.624984
0.58447
0.744384
0.738604
0.747295
0.866804
0.831023
0.930043
0.953181
0.017295
-0.00112828
-0.0156316
-0.0193862
-0.0179934
0.500846
0.493383
0.520834
0.508454
0.510963
0.249973
0.116588
0.418172
0.443045
-0.294328
-0.360531
-0.428958
-0.459512
-0.567888
0.611942
0.657828
0.656165
-0.22105
-0.149169
-0.282241
-0.0761092
-0.138978
0.514543
0.521561
0.516557
0.532116
0.526581
0.528545
0.540899
0.537969
0.539529
0.466214
0.589876
0.330139
0.294722
-0.242919
-0.155854
-0.242872
-0.0734493
-0.0699045
0.0667711
0.0923565
0.0395378
0.0277579
-0.0642341
-0.0564584
-0.0601018
-0.0451736
-0.0451091
0.4469
0.435695
0.466843
0.474409
0.519948
0.521506
0.526019
0.523793
0.913253
0.935661
0.943232
0.916917
-3.49627
-6.27807
0.0411859
0.177557
-0.00647467
-0.0108933
0.0045632
-0.0104049
-0.00324088
-0.00441529
-0.00795075
-0.00893065
-0.00382211
-0.00240123
0.64294
0.644149
1.00225
1.00902
0.977944
0.930814
0.524735
0.526805
0.5323
0.528184
-0.0446617
-0.045183
-0.0440761
0.67275
0.678089
0.675678
0.239369
0.14969
0.328884
0.358004
0.636785
0.62538
0.635062
0.645436
0.682325
0.960596
0.978826
0.977029
0.985358
1.02932
1.04567
1.01113
0.480251
0.490255
0.485189
0.523929
0.521708
0.522605
0.518652
0.519787
0.517854
-0.0338628
-0.413891
0.49036
0.507302
0.492626
0.495097
0.692126
0.77079
0.653344
0.655188
0.6546
-0.00705686
-0.0655433
0.249935
0.215822
0.386442
0.422859
0.401826
0.88461
0.844709
0.894918
0.868136
0.829344
0.855463
-0.365483
-1.86501
-0.984148
0.527347
0.341643
0.429118
0.0096104
-0.00721209
-0.00268591
1.00169
1.07404
0.645711
0.82067
0.823338
0.716409
0.744988
0.805349
0.732226
0.766327
0.799124
0.776635
0.567904
0.503432
0.519372
0.839972
0.895766
0.119644
0.0582322
0.0143194
0.111243
0.16857
0.14266
1.0341
0.949597
1.01985
0.534694
0.535415
-0.00450729
-0.0186361
0.539661
0.539717
-0.0165592
-0.0038724
0.411501
-0.831593
0.0993569
0.528244
0.51814
0.535275
-0.0940781
0.355434
-0.0487388
0.0481453
-0.00793262
0.530336
0.465291
0.424365
-0.000297746
-0.0197438
-0.049873
-0.213168
0.532364
0.530668
0.534742
0.535684
0.536365
-0.0186365
-0.0137029
-0.0101165
-0.0466967
-0.0405529
-0.0520548
0.499178
0.518475
-0.170118
0.53489
0.537025
0.536843
0.530107
0.535736
0.533989
-0.0111141
-0.0170643
-0.0184051
0.219786
0.351561
0.650519
0.737545
0.622371
0.398686
0.16371
0.554333
0.617104
0.523284
0.676458
0.653799
0.664113
0.164891
0.0146807
0.173597
0.115221
0.526105
0.524823
0.516394
0.513354
0.530143
0.528256
0.532815
0.529837
0.532788
0.534168
-0.0500984
-0.0782146
-0.0867536
-0.154116
0.310245
0.57153
0.254074
0.283923
0.141703
-0.043376
-0.0440795
-0.04738
-0.0558476
0.000519066
-0.0233489
0.0430661
0.0433002
0.0152253
-0.010363
-0.00774971
-0.0185655
-0.0134062
0.523952
0.523826
0.527345
0.536261
0.474945
0.478733
0.443564
0.464321
0.449579
0.388297
0.423593
0.398819
-0.00818885
0.00160132
-0.00533769
-0.017419
-0.0134104
-0.0332109
-0.0297548
-0.0254851
-0.0214231
-0.0280908
-0.0441098
-0.0462527
-0.171123
-0.287004
0.988586
0.90989
0.13713
0.52151
0.527967
0.524728
0.529654
0.532782
0.533582
0.531291
0.527838
0.518735
0.52018
0.517145
0.518151
-0.101684
-0.242911
-0.0711565
-0.145394
0.144949
0.62788
0.363463
0.299003
0.294265
0.522854
0.916599
0.700108
0.672028
0.675727
-0.342973
0.0460832
-0.279174
0.335419
0.162935
0.651682
0.699307
0.719329
0.668693
0.622371
-0.101484
0.555841
-0.07265
-0.0205863
0.180762
0.0571538
0.664291
0.641182
0.647594
0.656995
0.671987
0.645372
0.630491
0.627933
0.651644
0.654298
0.484528
0.250526
0.201372
0.162895
0.642297
0.518638
0.570157
0.490735
0.521361
0.523922
0.522569
0.504016
0.511611
0.507126
0.513728
0.517306
0.525862
0.526333
0.521602
0.523733
-0.0577283
-0.0637837
-0.0279668
-0.135584
-0.128642
-0.190676
-0.061022
0.076674
0.037923
0.237625
0.341817
0.0531895
-0.0571607
-0.030003
0.0125466
0.180693
0.208658
0.0743196
0.161954
0.153121
0.134623
0.237155
0.240606
-0.0278046
-0.0306922
-0.0346205
-0.0362904
0.0189083
0.0899929
0.0995464
-0.00600662
-0.0120211
-0.0420235
-0.0426199
-0.020891
-0.0275178
-0.0225904
0.00764698
-0.0527079
-0.0200997
-0.0061461
-0.00313322
-0.00486799
-0.0103423
0.518202
0.52024
0.52044
0.527027
0.540638
0.555558
0.520384
0.497176
0.487951
0.490974
0.463824
0.474149
0.469877
0.483548
0.50454
0.513828
0.511822
0.514695
0.49669
0.498519
0.485051
0.48872
0.463732
0.444448
0.432533
-0.0425935
-0.00449042
-0.0120066
-0.0384078
-0.0094257
-0.0211774
-0.010059
0.00839254
-0.00781824
-0.00897847
-0.0188184
-0.0257868
-0.0253419
-0.0729658
0.0137253
-0.184071
-0.219872
-0.292734
0.89073
1.01485
0.810303
0.58339
0.603538
0.84662
0.931284
0.543432
0.735802
0.758945
0.586715
0.854304
0.526359
0.525956
0.523555
0.523036
0.524257
-0.00712198
0.098937
0.0976939
0.160645
0.276667
0.388359
0.318862
0.194078
0.324279
0.326754
0.620662
0.632896
0.588319
0.612507
0.612718
0.425135
0.50071
0.552464
0.512962
0.565101
0.58654
0.540551
0.573409
0.523345
0.478617
0.474643
0.424583
0.444234
0.419966
0.403057
0.515192
0.493058
0.503465
0.494139
0.514444
0.542582
0.538998
0.561435
0.576249
0.497833
0.452756
0.462134
0.492362
0.453638
0.469128
0.485313
0.232167
0.134007
0.216959
-0.0684089
0.00293584
-0.00973026
-0.0582823
-0.00742392
0.27686
-0.41443
-0.390995
-1.01837
0.503214
0.95391
0.598129
0.572628
0.671766
0.655611
0.661538
0.678302
0.678765
0.630662
0.640447
0.645259
0.600557
0.621559
0.640217
0.636462
0.524685
0.383403
0.382231
0.330543
0.200718
0.240371
0.436974
0.360945
0.285949
0.286125
0.456761
0.343514
0.413294
0.447067
0.378486
0.333074
0.535543
0.601555
0.59521
0.568386
0.480149
0.49262
0.516883
0.550618
0.574994
0.606244
0.513121
0.519062
0.520291
0.517762
0.515044
0.518131
0.518407
0.520961
0.521569
0.524576
0.523635
-0.0505636
-0.0367935
-0.0505348
-0.0610613
-0.0198051
-0.0217398
0.023848
0.00841161
-0.0145557
-0.0090323
-0.0323869
-0.0371142
-0.0334653
-0.0250028
0.101021
0.11378
0.0979503
0.0583488
0.251563
0.380846
0.455286
0.330654
0.224578
0.247676
0.266942
-0.0112574
0.0133762
0.000550839
0.0401646
0.0325539
-0.0369775
-0.0404078
-0.0370981
-0.0299744
-0.0208943
-0.0367679
-0.0417468
-0.0326393
-0.0373558
-0.0400153
-0.0435174
0.499439
0.492878
0.494541
0.488357
0.487086
0.501539
0.505844
0.507799
0.513357
0.515808
0.505593
0.511288
0.515352
-0.0111638
-0.0341684
-0.037763
-0.0280738
-0.0305006
-0.0281665
-0.0295767
0.123482
0.054359
0.0583661
0.0107661
-0.121319
-0.0632892
0.491401
0.490131
0.479577
0.720911
0.570175
0.490783
0.587786
0.693532
0.276017
0.472863
0.307853
0.888456
0.784885
0.931252
0.542378
0.245302
0.408617
0.451826
0.265013
0.340485
0.325015
0.213985
0.244785
0.282592
0.381624
0.265381
0.242058
-0.00126793
0.189196
0.301454
0.283267
0.407963
0.46866
0.266137
0.185849
0.140967
0.605634
0.625109
0.638257
0.611096
0.632246
0.580327
0.572366
0.587971
0.595993
0.590396
-0.746513
-0.452914
-1.39959
-0.721523
-0.266561
0.533674
0.505043
0.769231
0.646231
0.683385
0.668412
0.627146
0.596821
0.620444
0.643677
0.341695
0.452451
0.427669
0.433221
0.335673
0.266111
0.563875
0.560663
0.593411
0.616685
0.589084
0.618569
0.510953
0.510682
0.510126
0.50636
0.504627
0.507002
0.0575205
0.0253798
0.0642942
0.046005
0.0226137
0.0091493
-0.00903197
-0.0189298
-0.0261874
-0.02594
-0.0118429
-0.00782717
0.171392
0.109077
0.0296107
0.0586517
-0.00211521
-0.0705715
-0.0895051
0.0156221
0.111705
0.101902
0.405381
0.655148
0.475154
0.642639
0.485106
0.540936
0.468105
0.459522
0.4845
0.379439
0.459881
0.248291
-0.259573
-0.168629
0.793694
0.804903
0.580897
0.40512
0.173381
0.352102
0.541987
0.472414
0.507995
0.576966
0.564398
0.0280626
0.0862113
0.371644
0.598435
0.240049
0.231136
0.224641
0.408386
0.326956
)
;

boundaryField
{
    wall-4
    {
        type            zeroGradient;
    }
    velocity-inlet-5
    {
        type            zeroGradient;
    }
    velocity-inlet-6
    {
        type            zeroGradient;
    }
    pressure-outlet-7
    {
        type            fixedValue;
        value           uniform 0;
    }
    wall-8
    {
        type            zeroGradient;
    }
    frontAndBackPlanes
    {
        type            empty;
    }
}


// ************************************************************************* //
