# vtk DataFile Version 2.0
tracks
ASCII
DATASET POLYDATA
POINTS 12065 float
-0.0206 0.000999956 1e-05 -0.02058 0.000999959 1e-05 -0.02056 0.000999965 1e-05 -0.02054 0.000999974
1e-05 -0.02052 0.000999985 1e-05 -0.0205 0.001 1e-05 -0.0202034 0.00100022 1e-05
-0.0199069 0.00100067 1e-05 -0.0196103 0.00100132 1e-05 -0.0193137 0.00100219 1e-05 -0.0190172
0.00100326 1e-05 -0.0187132 0.00100467 1e-05 -0.0184093 0.00100589 1e-05 -0.0181054 0.0010071
1e-05 -0.0178015 0.00100832 1e-05 -0.0174976 0.00100954 1e-05 -0.0172058 0.00101083 1e-05
-0.016914 0.00101194 1e-05 -0.0166222 0.00101304 1e-05 -0.0163305 0.00101414 1e-05 -0.0160387
0.00101523 1e-05 -0.0157586 0.00101638 1e-05 -0.0154784 0.00101746 1e-05 -0.0151983 0.00101858
1e-05 -0.0149182 0.00101973 1e-05 -0.0146381 0.00102092 1e-05 -0.014376 0.0010221 1e-05
-0.0141139 0.00102328 1e-05 -0.0138518 0.0010245 1e-05 -0.0135897 0.00102574 1e-05 -0.0133685
0.00102682 1e-05 -0.0133535 0.00102689 1e-05 -0.0133385 0.00102697 1e-05 -0.0133234 0.00102704
1e-05 -0.0133084 0.00102712 1e-05 -0.0132934 0.00102719 1e-05 -0.0130353 0.00102848 1e-05
-0.0127771 0.00102979 1e-05 -0.0125189 0.00103111 1e-05 -0.0122607 0.00103245 1e-05 -0.0120025
0.00103381 1e-05 -0.0117547 0.00103512 1e-05 -0.0115068 0.00103644 1e-05 -0.0112589 0.00103777
1e-05 -0.0110111 0.0010391 1e-05 -0.0107632 0.00104043 1e-05 -0.0105252 0.00104172 1e-05
-0.0102873 0.001043 1e-05 -0.0100493 0.00104429 1e-05 -0.00981133 0.00104557 1e-05 -0.00957337
0.00104686 1e-05 -0.00934491 0.00104809 1e-05 -0.00911645 0.00104932 1e-05 -0.008888 0.00105055
1e-05 -0.00865954 0.00105178 1e-05 -0.00843108 0.001053 1e-05 -0.00821175 0.00105417 1e-05
-0.00799242 0.00105534 1e-05 -0.00777309 0.00105651 1e-05 -0.00755376 0.00105767 1e-05 -0.00733443
0.00105883 1e-05 -0.00712387 0.00105994 1e-05 -0.0069133 0.00106104 1e-05 -0.00670273 0.00106215
1e-05 -0.00649216 0.00106325 1e-05 -0.0062816 0.00106435 1e-05 -0.00607944 0.00106539 1e-05
-0.00587729 0.00106644 1e-05 -0.00567514 0.00106749 1e-05 -0.00547298 0.00106853 1e-05 -0.00527083
0.00106958 1e-05 -0.00507675 0.00107057 1e-05 -0.00488267 0.00107156 1e-05 -0.0046886 0.00107256
1e-05 -0.00449452 0.00107355 1e-05 -0.00430044 0.00107455 1e-05 -0.00411412 0.0010755 1e-05
-0.0039278 0.00107645 1e-05 -0.00374147 0.00107741 1e-05 -0.00355515 0.00107836 1e-05 -0.00336883
0.00107932 1e-05 -0.00318995 0.00108023 1e-05 -0.00301107 0.00108116 1e-05 -0.00283219 0.00108209
1e-05 -0.00265331 0.00108302 1e-05 -0.00247443 0.00108396 1e-05 -0.0023027 0.00108487 1e-05
-0.00213097 0.00108578 1e-05 -0.00195924 0.00108671 1e-05 -0.00178751 0.00108765 1e-05 -0.00161577
0.0010886 1e-05 -0.0014509 0.00108951 1e-05 -0.00128603 0.00109045 1e-05 -0.00112116 0.00109141
1e-05 -0.00095629 0.00109239 1e-05 -0.000791418 0.00109339 1e-05 -0.000633135 0.00109438 1e-05
-0.000474851 0.0010954 1e-05 -0.000316568 0.00109645 1e-05 -0.000158285 0.00109753 1e-05 0
0.00109864 1e-05 0.000105677 0.00109939 1e-05 0.000211355 0.00110016 1e-05 0.000317032 0.00110093
1e-05 0.000422709 0.00110171 1e-05 0.000528387 0.0011025 1e-05 0.000634886 0.00110329 1e-05
0.000741385 0.00110407 1e-05 0.000847885 0.00110485 1e-05 0.000954384 0.00110562 1e-05 0.00106088
0.00110638 1e-05 0.00116821 0.00110713 1e-05 0.00127554 0.00110787 1e-05 0.00138286 0.0011086
1e-05 0.00149019 0.0011093 1e-05 0.00159752 0.00111 1e-05 0.00170568 0.00111068 1e-05
0.00181384 0.00111135 1e-05 0.001922 0.001112 1e-05 0.00203016 0.00111263 1e-05 0.00213833
0.00111325 1e-05 0.00224733 0.00111385 1e-05 0.00235633 0.00111445 1e-05 0.00246533 0.00111502
1e-05 0.00257434 0.00111559 1e-05 0.00268334 0.00111613 1e-05 0.00279319 0.00111666 1e-05
0.00290304 0.00111718 1e-05 0.00301289 0.00111769 1e-05 0.00312274 0.00111818 1e-05 0.00323259
0.00111866 1e-05 0.00334329 0.00111912 1e-05 0.003454 0.00111957 1e-05 0.0035647 0.00112001
1e-05 0.0036754 0.00112043 1e-05 0.00378611 0.00112084 1e-05 0.00389767 0.00112123 1e-05
0.00400924 0.00112162 1e-05 0.0041208 0.00112199 1e-05 0.00423237 0.00112235 1e-05 0.00434393
0.00112269 1e-05 0.00445636 0.00112301 1e-05 0.00456879 0.00112333 1e-05 0.00468123 0.00112364
1e-05 0.00479366 0.00112393 1e-05 0.00490609 0.0011242 1e-05 0.0050194 0.00112446 1e-05
0.0051327 0.00112471 1e-05 0.00524601 0.00112495 1e-05 0.00535932 0.00112518 1e-05 0.00547262
0.00112539 1e-05 0.00558681 0.00112558 1e-05 0.005701 0.00112577 1e-05 0.00581518 0.00112595
1e-05 0.00592937 0.00112611 1e-05 0.00604356 0.00112626 1e-05 0.00615863 0.00112639 1e-05
0.00627371 0.00112651 1e-05 0.00638878 0.00112663 1e-05 0.00650386 0.00112673 1e-05 0.00661893
0.00112682 1e-05 0.0067349 0.00112689 1e-05 0.00685087 0.00112695 1e-05 0.00696684 0.00112701
1e-05 0.00708281 0.00112705 1e-05 0.00719878 0.00112708 1e-05 0.00731565 0.00112709 1e-05
0.00743252 0.0011271 1e-05 0.00754939 0.00112709 1e-05 0.00766626 0.00112708 1e-05 0.00778313
0.00112705 1e-05 0.00790091 0.001127 1e-05 0.00801869 0.00112695 1e-05 0.00813647 0.00112689
1e-05 0.00825425 0.00112681 1e-05 0.00837203 0.00112673 1e-05 0.00843708 0.00112667 1e-05
0.00850212 0.00112661 1e-05 0.00856716 0.00112655 1e-05 0.00863221 0.00112649 1e-05 0.00869479
0.00112642 1e-05 0.00874894 0.00112636 1e-05 0.00880308 0.0011263 1e-05 0.00885722 0.00112624
1e-05 0.00891137 0.00112617 1e-05 0.00896551 0.0011261 1e-05 0.00908513 0.00112594 1e-05
0.00920475 0.00112577 1e-05 0.00932437 0.00112559 1e-05 0.00944398 0.0011254 1e-05 0.0095636
0.00112519 1e-05 0.00968415 0.00112497 1e-05 0.0098047 0.00112474 1e-05 0.00992525 0.0011245
1e-05 0.0100458 0.00112425 1e-05 0.0101663 0.00112399 1e-05 0.0102878 0.0011237 1e-05
0.0104093 0.00112341 1e-05 0.0105308 0.00112311 1e-05 0.0106523 0.0011228 1e-05 0.0107738
0.00112247 1e-05 0.0108962 0.00112213 1e-05 0.0110186 0.00112177 1e-05 0.0111411 0.00112141
1e-05 0.0112635 0.00112104 1e-05 0.0113859 0.00112065 1e-05 0.0115093 0.00112024 1e-05
0.0116327 0.00111982 1e-05 0.0117561 0.0011194 1e-05 0.0118795 0.00111896 1e-05 0.0120028
0.00111851 1e-05 0.0121272 0.00111804 1e-05 0.0122515 0.00111756 1e-05 0.0123759 0.00111706
1e-05 0.0125002 0.00111656 1e-05 0.0126245 0.00111604 1e-05 0.0127498 0.00111551 1e-05
0.0128752 0.00111496 1e-05 0.0130005 0.00111441 1e-05 0.0131258 0.00111384 1e-05 0.0132511
0.00111325 1e-05 0.0133774 0.00111265 1e-05 0.0135036 0.00111204 1e-05 0.0136299 0.00111141
1e-05 0.0137562 0.00111077 1e-05 0.0138825 0.00111012 1e-05 0.0140098 0.00110946 1e-05
0.014137 0.00110877 1e-05 0.0142643 0.00110808 1e-05 0.0143915 0.00110737 1e-05 0.0145188
0.00110665 1e-05 0.0146471 0.00110591 1e-05 0.0147753 0.00110516 1e-05 0.0149036 0.00110439
1e-05 0.0150318 0.00110361 1e-05 0.0151601 0.00110282 1e-05 0.0152893 0.00110202 1e-05
0.0154186 0.00110119 1e-05 0.0155478 0.00110035 1e-05 0.0156771 0.0010995 1e-05 0.0158063
0.00109863 1e-05 0.0159366 0.00109776 1e-05 0.0160668 0.00109686 1e-05 0.0161971 0.00109594
1e-05 0.0163273 0.00109501 1e-05 0.0164576 0.00109407 1e-05 0.0165889 0.00109312 1e-05
0.0167201 0.00109214 1e-05 0.0168514 0.00109115 1e-05 0.0169827 0.00109013 1e-05 0.0171139
0.00108911 1e-05 0.0172462 0.00108809 1e-05 0.0173785 0.00108704 1e-05 0.0175108 0.00108596
1e-05 0.0176431 0.00108487 1e-05 0.0177754 0.00108377 1e-05 0.0179087 0.00108267 1e-05
0.018042 0.00108153 1e-05 0.0181753 0.00108037 1e-05 0.0183087 0.00107919 1e-05 0.018442
0.00107801 1e-05 0.0185763 0.00107682 1e-05 0.0187107 0.0010756 1e-05 0.018845 0.00107435
1e-05 0.0189794 0.00107308 1e-05 0.0191137 0.00107181 1e-05 0.0192491 0.00107054 1e-05
0.0193845 0.00106923 1e-05 0.0195199 0.00106788 1e-05 0.0196553 0.00106652 1e-05 0.0197907
0.00106516 1e-05 0.0199272 0.0010638 1e-05 0.0200636 0.0010624 1e-05 0.0202001 0.00106096
1e-05 0.0203365 0.00105951 1e-05 0.020473 0.00105806 1e-05 0.0206105 0.00105661 1e-05
0.020748 0.00105511 1e-05 0.0208855 0.00105358 1e-05 0.021023 0.00105203 1e-05 0.0211606
0.00105049 1e-05 0.0212991 0.00104893 1e-05 0.0214377 0.00104734 1e-05 0.0215763 0.00104571
1e-05 0.0217149 0.00104405 1e-05 0.0218535 0.00104241 1e-05 0.0219931 0.00104075 1e-05
0.0221328 0.00103905 1e-05 0.0222724 0.00103731 1e-05 0.0224121 0.00103555 1e-05 0.0225517
0.0010338 1e-05 0.0226925 0.00103203 1e-05 0.0228332 0.00103023 1e-05 0.022974 0.00102838
1e-05 0.0231147 0.00102651 1e-05 0.0232555 0.00102464 1e-05 0.0233973 0.00102277 1e-05
0.0235391 0.00102084 1e-05 0.023681 0.00101888 1e-05 0.0238228 0.0010169 1e-05 0.0239647
0.00101492 1e-05 0.0241076 0.00101292 1e-05 0.0242505 0.00101088 1e-05 0.0243935 0.0010088
1e-05 0.0245364 0.0010067 1e-05 0.0246794 0.0010046 1e-05 0.0248234 0.00100248 1e-05
0.0249675 0.00100032 1e-05 0.0251115 0.000998122 1e-05 0.0252556 0.000995905 1e-05 0.0253996
0.000993676 1e-05 0.0255448 0.000991427 1e-05 0.02569 0.000989133 1e-05 0.0258351 0.000986808
1e-05 0.0259803 0.000984461 1e-05 0.0261255 0.000982097 1e-05 0.0262718 0.00097971 1e-05
0.0264181 0.000977276 1e-05 0.0265644 0.000974814 1e-05 0.0267107 0.000972328 1e-05 0.026857
0.000969821 1e-05 0.0270044 0.000967289 1e-05 0.0271519 0.00096471 1e-05 0.0272993 0.000962106
1e-05 0.0274467 0.000959478 1e-05 0.0275942 0.000956825 1e-05 0.0277428 0.000954143 1e-05
0.0278914 0.000951417 1e-05 0.0280399 0.000948666 1e-05 0.0281885 0.000945889 1e-05 0.0283371
0.000943087 1e-05 0.0284869 0.000940249 1e-05 0.0286366 0.00093737 1e-05 0.0287863 0.000934465
1e-05 0.0289361 0.000931532 1e-05 0.0290858 0.000928573 1e-05 0.0292367 0.000925571 1e-05
0.0293876 0.000922532 1e-05 0.0295385 0.000919465 1e-05 0.0296894 0.000916369 1e-05 0.0298403
0.000913244 1e-05 0.0299893 0.000910137 1e-05 0.0301382 0.000906996 1e-05 0.0302871 0.000903827
1e-05 0.0304361 0.00090063 1e-05 0.0305748 0.000897626 1e-05 0.03058 0.000897513 1e-05
0.0305852 0.000897399 1e-05 0.0305904 0.000897286 1e-05 0.0305955 0.000897173 1e-05 0.0306007
0.000897059 1e-05 0.030754 0.000893708 1e-05 0.0309072 0.000890325 1e-05 0.0310605 0.000886911
1e-05 0.0312138 0.000883466 1e-05 0.031367 0.00087999 1e-05 0.0315215 0.00087646 1e-05
[...]
POINT_DATA 12065
FIELD attributes 4
age 1 12065 float
-9.99973e-06 -7.99975e-06 -5.99979e-06 -3.99984e-06 -1.99991e-06 0 2.96554e-05 5.93049e-05 8.89484e-05 0.000118586 0.000148218
0.000178569 0.000208911 0.00023924 0.000269556 0.000299858 0.000328933 0.000357999 0.000387054 0.000416097 0.000445128
0.000472989 0.000500843 0.000528691 0.000556532 0.000584366 0.000610404 0.000636438 0.000662468 0.000688495 0.000710463
0.000711953 0.000713442 0.000714932 0.000716421 0.00071791 0.000743542 0.000769172 0.000794801 0.000820429 0.000846056
0.000870657 0.000895259 0.000919862 0.000944466 0.000969071 0.000992694 0.00101632 0.00103995 0.00106358 0.00108721
0.0011099 0.00113259 0.00115529 0.00117799 0.00120069 0.0012225 0.0012443 0.00126611 0.00128792 0.00130974
0.00133069 0.00135164 0.0013726 0.00139356 0.00141453 0.00143467 0.0014548 0.00147494 0.00149509 0.00151524
0.0015346 0.00155395 0.00157331 0.00159268 0.00161205 0.00163066 0.00164926 0.00166787 0.00168649 0.00170511
0.001723 0.00174088 0.00175877 0.00177667 0.00179457 0.00181177 0.00182896 0.00184615 0.00186335 0.00188056
0.0018971 0.00191362 0.00193015 0.00194669 0.00196322 0.00197912 0.001995 0.00201088 0.00202676 0.00204265
0.00205327 0.00206387 0.00207448 0.00208508 0.00209569 0.00210639 0.00211707 0.00212776 0.00213844 0.00214913
0.00215991 0.00217068 0.00218145 0.00219222 0.00220299 0.00221386 0.00222472 0.00223558 0.00224644 0.0022573
0.00226826 0.00227921 0.00229016 0.00230112 0.00231208 0.00232314 0.00233419 0.00234524 0.00235629 0.00236735
0.00237852 0.00238967 0.00240082 0.00241199 0.00242315 0.00243442 0.00244568 0.00245695 0.00246822 0.00247949
0.00249088 0.00250225 0.00251363 0.00252501 0.00253641 0.00254791 0.0025594 0.0025709 0.00258241 0.00259392
0.00260555 0.00261717 0.00262879 0.00264043 0.00265207 0.00266382 0.00267557 0.00268733 0.0026991 0.00271087
0.00272276 0.00273465 0.00274654 0.00275845 0.00277037 0.00278239 0.00279442 0.00280646 0.00281851 0.00283058
0.00284275 0.00285493 0.00286712 0.00287932 0.00289153 0.00289829 0.00290504 0.0029118 0.00291857 0.00292508
0.00293071 0.00293635 0.00294199 0.00294764 0.00295329 0.00296577 0.00297827 0.00299078 0.0030033 0.00301584
0.0030285 0.00304117 0.00305384 0.00306654 0.00307925 0.00309209 0.00310493 0.00311778 0.00313065 0.00314354
0.00315657 0.00316959 0.00318262 0.00319567 0.00320874 0.00322196 0.00323517 0.00324839 0.00326163 0.00327488
0.0032883 0.00330169 0.00331511 0.00332854 0.00334199 0.0033556 0.00336919 0.0033828 0.00339643 0.00341008
0.00342389 0.00343768 0.00345149 0.00346532 0.00347917 0.00349319 0.00350719 0.00352121 0.00353524 0.0035493
0.00356353 0.00357774 0.00359196 0.00360621 0.00362048 0.00363492 0.00364934 0.00366378 0.00367824 0.00369273
0.00370739 0.00372203 0.00373669 0.00375136 0.00376607 0.00378095 0.00379582 0.00381069 0.00382559 0.00384052
0.00385561 0.00387071 0.0038858 0.00390092 0.00391608 0.0039314 0.00394672 0.00396204 0.00397738 0.00399276
0.00400831 0.00402386 0.00403941 0.00405498 0.00407059 0.00408637 0.00410214 0.00411792 0.00413373 0.00414957
0.00416558 0.00418159 0.0041976 0.00421364 0.00422971 0.00424595 0.0042622 0.00427845 0.00429472 0.00431103
0.00432751 0.00434399 0.00436048 0.00437699 0.00439353 0.00441024 0.00442696 0.00444369 0.00446044 0.00447723
0.00449418 0.00451114 0.00452811 0.0045451 0.00456212 0.00457931 0.00459652 0.00461373 0.00463097 0.00464823
0.00466567 0.00468312 0.00470058 0.00471806 0.00473558 0.00475326 0.00477095 0.00478867 0.0048064 0.00482416
0.00484209 0.00486003 0.004878 0.00489598 0.00491399 0.00493217 0.00495037 0.00496859 0.00498683 0.00500509
0.00502353 0.00504198 0.00506046 0.00507896 0.00509748 0.00511617 0.00513489 0.00515362 0.00517238 0.00519116
0.00521012 0.0052291 0.0052481 0.00526712 0.00528616 0.00530539 0.00532463 0.0053439 0.00536319 0.0053825
0.00540159 0.0054207 0.00543984 0.005459 0.00547686 0.00547753 0.0054782 0.00547887 0.00547954 0.00548021
0.00549997 0.00551976 0.00553958 0.00555942 0.00557929 0.00559934 0.00561942 0.00563952 0.00565965 0.0056798
0.00570014 0.0057205 0.0057409 0.00576132 0.00578177 0.00580239 0.00582305 0.00584374 0.00586446 0.00588521
0.00590614 0.0059271 0.00594809 0.00596911 0.00599016 0.0060114 0.00603266 0.00605397 0.0060753 0.00609666
0.00611821 0.00613979 0.00616141 0.00618306 0.00620474 0.00622661 0.00624851 0.00627046 0.00629243 0.00631444
0.00633663 0.00635887 0.00638115 0.00640346 0.0064258 0.00644834 0.00647091 0.00649353 0.00651619 0.00653887
0.00656175 0.00658468 0.00660765 0.00663066 0.00665369 0.00667694 0.00670023 0.00672356 0.00674692 0.00677032
0.00679394 0.0068176 0.0068413 0.00686504 0.00688881 0.00691281 0.00693685 0.00696093 0.00698505 0.00700922
0.0070336 0.00705804 0.00708252 0.00710703 0.00713159 0.00715638 0.00718122 0.0072061 0.00723103 0.007256
0.00725917 0.00726234 0.00726552 0.0072687 0.00727185 0.00729391 0.00731601 0.00733814 0.00736031 0.00738252
0.00740815 0.00743384 0.00745957 0.00748536 0.00751119 0.00753726 0.00756339 0.00758957 0.00761581 0.00764209
0.00766862 0.00769521 0.00772185 0.00774854 0.00777529 0.00780228 0.00782933 0.00785645 0.00788362 0.00791084
0.0079383 0.00796584 0.00799344 0.00802109 0.00804879 0.00807675 0.00810477 0.00813287 0.00816101 0.00818921
0.00821766 0.00824619 0.00827479 0.00830344 0.00833213 0.00836109 0.00839013 0.00841923 0.00844839 0.0084776
0.00850708 0.00853663 0.00856625 0.00859591 0.00862564 0.00865564 0.00868572 0.00871585 0.00874603 0.00877628
0.0088068 0.0088374 0.00886805 0.00889875 0.00892952 0.00893018 0.00893085 0.00893152 0.00893218 0.00893285
0.00896325 0.0089937 0.00902421 0.00905477 0.00908538 0.00911696 0.0091486 0.0091803 0.00921206 0.00924387
0.00927597 0.00930813 0.00934035 0.00937263 0.00940496 0.00943757 0.00947025 0.00950299 0.00953578 0.00956861
0.00960173 0.00963492 0.00966816 0.00970145 0.00973478 0.0097684 0.00980207 0.00983581 0.00986959 0.00990339
0.00993749 0.00997165 0.0100059 0.0100401 0.0100744 0.0101089 0.0101436 0.0101782 0.0102129 0.0102477
0.0102827 0.0103177 0.0103528 0.010388 0.0104231 0.0104586 0.0104941 0.0105296 0.0105651 0.0106007
0.0106366 0.0106725 0.0107084 0.0107443 0.0107803 0.0108165 0.0108528 0.0108891 0.0109254 0.0109618
0.0109984 0.0110351 0.0110717 0.0111084 0.0111451 0.0111633 0.0111816 0.0111999 0.0112181 0.0112375
0.011256 0.0112745 0.011293 0.0113116 0.0113301 0.0113674 0.0114047 0.011442 0.0114794 0.0115167
0.0115543 0.011592 0.0116296 0.0116672 0.0117049 0.0117428 0.0117807 0.0118186 0.0118565 0.0118945
0.0119327 0.0119709 0.0120091 0.0120473 0.0120855 0.012124 0.0121625 0.0122009 0.0122394 0.0122779
0.0123166 0.0123554 0.0123941 0.0124329 0.0124716 0.0125106 0.0125497 0.0125887 0.0126277 0.0126667
0.012706 0.0127452 0.0127845 0.0128238 0.012863 0.0129026 0.0129421 0.0129817 0.0130212 0.0130607
0.0131005 0.0131404 0.0131801 0.0132199 0.0132597 0.0132998 0.0133399 0.01338 0.01342 0.0134601
0.0135005 0.0135409 0.0135812 0.0136216 0.0136619 0.0137026 0.0137432 0.0137839 0.0138245 0.0138652
0.0139062 0.0139472 0.0139881 0.0140291 0.0140701 0.0141114 0.0141527 0.014194 0.0142353 0.0142766
0.0143182 0.0143599 0.0144015 0.0144432 0.0144849 0.0145269 0.0145689 0.014611 0.014653 0.0146951
0.0147193 0.0147435 0.0147676 0.0147918 0.014813 0.0148319 0.0148508 0.0148696 0.0148885 0.0149074
0.0149503 0.0149932 0.0150361 0.015079 0.0151219 0.0151653 0.0152086 0.015252 0.0152954 0.0153389
0.0153827 0.0154265 0.0154704 0.0155143 0.0155584 0.0156028 0.0156472 0.0156916 0.0157361 0.0157808
0.0158258 0.0158708 0.0159159 0.015961 0.0160063 0.0160519 0.0160977 0.0161434 0.0161893 0.0162353
0.0162501 0.016265 0.0162798 0.0162947 0.0163087 0.0163405 0.0163724 0.0164042 0.0164361 0.0164681
0.0165153 0.0165626 0.0166099 0.0166574 0.016705 0.0167531 0.0168012 0.0168495 0.0168978 0.0169464
0.0169955 0.0170446 0.0170938 0.0171432 0.0171929 0.0172214 0.01725 0.0172786 0.0173072 0.0173334
0.0173556 0.0173779 0.0174003 0.0174226 0.0174451 0.0174963 0.0175477 0.0175993 0.017651 0.0177031
0.0177557 0.0178084 0.0178613 0.0179144 0.0179679 0.0180125 0.0180572 0.0181021 0.0181471 0.018187
0.0181977 0.0182083 0.018219 0.0182297 0.0182404 0.018296 0.0183518 0.0184079 0.0184641 0.0185209
0.0185783 0.0186359 0.0186938 0.0187519 0.0188106 0.0188411 0.0188716 0.0189023 0.0189329 0.0189617
0.0189914 0.0190212 0.019051 0.0190809 0.019111 0.0191725 0.0192344 0.0192965 0.0193589 0.0194223
0.0194787 0.0195355 0.0195925 0.0196499 0.0197017 0.0197106 0.0197196 0.0197285 0.0197374 0.0197464
0.019813 0.01988 0.0199475 0.0200153 0.0200842 0.0201538 0.0202239 0.0202944 0.0203654 0.0204344
0.020435 0.0204357 0.0204363 0.020437 0.0204376 0.0205105 0.0205839 0.0206579 0.0207324 0.0208082
0.0208828 0.0209579 0.0210336 0.0211099 0.0211801 0.0211837 0.0211872 0.0211907 0.0211943 0.0211978
0.0212785 0.0213597 0.0214416 0.0215242 0.0216083 0.021678 0.0217481 0.0218188 0.0218899 0.0219573
0.0219743 0.0219912 0.0220082 0.0220252 0.0220423 0.0221322 0.0222229 0.0223143 0.0224066 0.0225005
0.0225572 0.0226141 0.0226713 0.0227289 0.0227849 0.022825 0.0228652 0.0229056 0.0229461 0.0229869
0.0230876 0.0231892 0.0232917 0.0233952 0.0235003 0.0235369 0.0235735 0.0236103 0.0236472 0.0236838
0.023755 0.0238267 0.0238988 0.0239715 0.0240447 0.0241551 0.0242666 0.0243792 0.0244927 0.0246056
0.0246083 0.024611 0.0246137 0.0246164 0.0246191 0.0247382 0.0248583 0.0249796 0.025102 0.0252253
0.025298 0.0253711 0.0254445 0.0255184 0.0255931 0.025647 0.0257011 0.0257554 0.0258099 0.0258645
0.0259962 0.026129 0.0262629 0.0263979 0.0265333 0.0265601 0.026587 0.0266139 0.0266409 0.0266681
0.0267798 0.0268922 0.0270052 0.0271189 0.0272325 0.0273544 0.0274771 0.0276006 0.0277248 0.0278568
0.0278772 0.0278975 0.0279179 0.0279383 0.0279587 0.0281073 0.0282569 0.0284073 0.0285586 0.028709
0.0288046 0.0289005 0.0289968 0.0290934 0.0291964 0.0292532 0.0293101 0.0293671 0.0294241 0.029481
0.0296379 0.0297954 0.0299536 0.0301123 0.0302695 0.030362 0.0304546 0.0305473 0.0306402 0.0307406
0.0308068 0.0308731 0.0309394 0.0310057 0.0310718 0.0312339 0.0313963 0.031559 0.0317219 0.0318831
0.032017 0.0321509 0.032285 0.0324191 0.0325719 0.0325976 0.0326232 0.0326489 0.0326746 0.0327002
0.0328645 0.0330288 0.0331931 0.0333573 0.0335197 0.0336841 0.0338484 0.0340125 0.0341765 0.0343388
0.0344362 0.0345336 0.0346309 0.0347281 0.0348366 0.0349003 0.034964 0.0350277 0.0350913 0.0351546
0.0353179 0.0354807 0.0356432 0.0358054 0.0359661 0.0361282 0.0362899 0.0364512 0.036612 0.0367715
0.0369323 0.0370926 0.0372524 0.0374117 0.0375699 0.0376207 0.0376715 0.0377221 0.0377728 0.0378267
0.0379339 0.0380409 0.0381476 0.0382541 0.0383601 0.0385177 0.0386748 0.0388314 0.0389875 0.0391426
0.0392986 0.0394541 0.0396091 0.0397635 0.039917 0.0400714 0.0402253 0.0403786 0.0405313 0.0406833
0.0408361 0.0409884 0.0411401 0.0412913 0.0414418 0.041593 0.0417437 0.041894 0.0420437 0.0421927
0.0422072 0.0422217 0.0422362 0.0422507 0.0422655 0.0424004 0.042535 0.0426692 0.0428029 0.0429361
0.0430845 0.0432323 0.0433797 0.0435266 0.0436729 0.0438199 0.0439665 0.0441125 0.0442581 0.0444032
0.044549 0.0446944 0.0448392 0.0449836 0.0451276 0.0452722 0.0454165 0.0455602 0.0457035 0.0458464
0.04599 0.0461332 0.046276 0.0464183 0.0465602 0.0467028 0.0468451 0.0469869 0.0471283 0.0472694
0.0474111 0.0475525 0.0476935 0.0478341 0.0479744 0.0481153 0.048256 0.0483962 0.0485361 0.0486756
0.0488159 0.0489558 0.0490954 0.0492347 0.0493736 0.0495133 0.0496526 0.0497916 0.0499304 0.0500687
0.0502079 0.0503467 0.0504853 0.0506235 0.0507615 0.0508546 0.0509477 0.0510406 0.0511334 0.0512438
0.0512855 0.0513271 0.0513688 0.0514104 0.051452 0.0515904 0.0517285 0.0518664 0.052004 0.0521414
0.0522796 0.0524175 0.0525552 0.0526927 0.0528299 0.052968 0.0531059 0.0532435 0.053381 0.0535182
0.0536563 0.0537943 0.053932 0.0540695 0.0542068 0.0543451 0.0544831 0.0546209 0.0547585 0.054896
0.0550343 0.0551724 0.0553102 0.0554476 0.0555847 0.0557171 0.0558491 0.0559807 0.0561118 0.0562426
0.0563778 0.0565123 0.0566461 0.0567792 0.0569118 0.0570488 0.057185 0.0573204 0.0574551 0.0575893
0.0577281 0.0578661 0.0580033 0.0581399 0.0582759 0.0584166 0.0585565 0.0586956 0.0588341 0.0589719
0.0591145 0.0592562 0.0593971 0.0595373 0.0596768 0.0598211 0.0599646 0.0601072 0.0602491 0.0603903
0.0605363 0.0606814 0.0608258 0.0609693 0.0611122 0.0612599 0.0614067 0.0615527 0.0616979 0.0618423
0.0619916 0.06214 0.0622876 0.0624344 0.0625804 0.0627312 0.0628812 0.0630303 0.0631785 0.063326
0.0634784 0.0636298 0.0637803 0.06393 0.0640789 0.0642326 0.0643854 0.0645374 0.0646884 0.0648385
0.0648846 0.0649305 0.0649764 0.0650222 0.0650708 0.0651783 0.0652852 0.0653918 0.0654978 0.0656035
0.0657598 0.0659151 0.0660694 0.0662227 0.0663752 0.0665326 0.066689 0.0668443 0.0669987 0.0671521
0.0673105 0.0674678 0.067624 0.0677793 0.0679335 0.0680928 0.0682509 0.0684079 0.0685638 0.0687187
0.0688787 0.0690374 0.069195 0.0693514 0.0695069 0.0696674 0.0698267 0.0699847 0.0701415 0.0702973
0.0704582 0.0706176 0.0707757 0.0709327 0.0710886 0.0712497 0.0714095 0.0715679 0.071725 0.0718808
0.0720415 0.0722006 0.072358 0.0725142 0.0726698 0.0728308 0.0729906 0.0731493 0.0733063 0.0734611
0.0736196 0.0737753 0.0739285 0.0740806 0.0742328 -9.99997e-06 -7.99997e-06 -5.99998e-06 -3.99998e-06 -1.99999e-06
0 2.96566e-05 5.93127e-05 8.89677e-05 0.000118621 0.000148273 0.000178657 0.000209038 0.000239415 0.000269789
0.000300159 0.00032931 0.000358456 0.000387598 0.000416734 0.000445866 0.000473828 0.000501785 0.000529738 0.000557686
0.000585629 0.000612452 0.00063927 0.000666084 0.000692894 0.000719699 0.00074543 0.000771156 0.000796879 0.000822598
0.000848313 0.000872997 0.000897677 0.000922354 0.000947027 0.000971697 0.000995378 0.00101906 0.00104273 0.0010664
0.00109007 0.00111279 0.00113551 0.00115822 0.00118093 0.00120364 0.00122544 0.00124724 0.00126903 0.00129082
0.00131261 0.00133353 0.00135444 0.00137535 0.00139626 0.00141717 0.00143724 0.00145731 0.00147737 0.00149744
0.0015175 0.00153676 0.00155601 0.00157527 0.00159452 0.00161377 0.00163225 0.00165073 0.00166921 0.00168768
0.00170615 0.00172389 0.00174162 0.00175935 0.00177708 0.0017948 0.00181182 0.00182883 0.00184585 0.00186286
0.00187987 0.0018962 0.00191252 0.00192885 0.00194517 0.00196149 0.00197716 0.00199282 0.00200849 0.00202415
0.00203981 0.00205026 0.00206072 0.00207117 0.00208162 0.00209207 0.0021026 0.00211313 0.00212366 0.00213419
0.00214472 0.00215532 0.00216593 0.00217654 0.00218714 0.00219774 0.00220843 0.00221911 0.0022298 0.00224048
0.00225116 0.00226193 0.00227269 0.00228345 0.00229421 0.00230498 0.00231582 0.00232666 0.00233751 0.00234835
0.00235919 0.00237011 0.00238104 0.00239196 0.00240288 0.0024138 0.00242481 0.00243582 0.00244682 0.00245783
0.00246883 0.00247992 0.00249101 0.0025021 0.00251318 0.00252427 0.00253544 0.00254662 0.00255779 0.00256896
0.00258013 0.00259139 0.00260265 0.0026139 0.00262516 0.00263642 0.00264776 0.0026591 0.00267045 0.00268179
0.00269313 0.00270456 0.00271599 0.00272742 0.00273885 0.00275028 0.00276179 0.00277331 0.00278483 0.00279634
0.00280786 0.00281947 0.00283107 0.00284268 0.00285428 0.00286589 0.00287758 0.00288928 0.00290097 0.00291266
0.00292436 0.00293614 0.00294793 0.00295971 0.00297149 0.00298328 0.00299515 0.00300703 0.0030189 0.00303078
0.00304265 0.00305462 0.00306658 0.00307855 0.00309052 0.00310248 0.00311454 0.0031266 0.00313865 0.00315071
0.00316277 0.00317492 0.00318707 0.00319922 0.00321137 0.00322352 0.00323577 0.00324801 0.00326025 0.0032725
0.00328474 0.00329708 0.00330942 0.00332176 0.00333409 0.00334643 0.00335886 0.0033713 0.00338373 0.00339616
0.00340859 0.00342112 0.00343365 0.00344618 0.0034587 0.00347123 0.00348386 0.00349648 0.0035091 0.00352173
0.00353435 0.00354707 0.00355979 0.00357251 0.00358523 0.00359795 0.00361077 0.00362359 0.00363641 0.00364923
0.00366204 0.00367496 0.00368788 0.00370079 0.00371371 0.00372662 0.00373723 0.00374783 0.00375843 0.00376903
0.00377951 0.00378195 0.00378439 0.00378682 0.00378926 0.0037917 0.00380481 0.00381793 0.00383104 0.00384416
0.00385727 0.00387049 0.00388371 0.00389692 0.00391014 0.00392335 0.00393667 0.00394999 0.0039633 0.00397662
0.00398994 0.00400336 0.00401678 0.00403019 0.00404361 0.00405703 0.00407056 0.00408408 0.0040976 0.00411112
0.00412464 0.00413827 0.0041519 0.00416553 0.00417915 0.00419278 0.00420651 0.00422024 0.00423397 0.00424771
0.00426144 0.00427528 0.00428911 0.00430295 0.00431679 0.00433063 0.00434458 0.00435852 0.00437247 0.00438641
0.00440036 0.00441441 0.00442847 0.00444252 0.00445657 0.00447063 0.0044848 0.00449896 0.00451312 0.00452728
0.00454145 0.00455573 0.00457 0.00458428 0.00459855 0.00461283 0.00462722 0.0046416 0.00465599 0.00467038
0.00468477 0.00469927 0.00471377 0.00472827 0.00474277 0.00475728 0.0047719 0.00478651 0.00480113 0.00481574
0.00483036 0.0048451 0.00485983 0.00487457 0.0048893 0.00490404 0.00491889 0.00493375 0.0049486 0.00496345
0.0049783 0.00499328 0.00500825 0.00502323 0.0050382 0.00505318 0.00506827 0.00508337 0.00509846 0.00511356
0.00512866 0.00514388 0.0051591 0.00517432 0.00518954 0.00520477 0.00522012 0.00523546 0.00525081 0.00526616
0.00528151 0.00529699 0.00531246 0.00532794 0.00534342 0.0053589 0.00537451 0.00539011 0.00540572 0.00542133
0.00543694 0.00545268 0.00546842 0.00548417 0.00549991 0.00551566 0.00553154 0.00554741 0.00556329 0.00557918
0.00559506 0.00560188 0.0056087 0.00561552 0.00562234 0.00562909 0.00563831 0.00564752 0.00565674 0.00566595
0.00567517 0.00569133 0.00570749 0.00572365 0.00573982 0.00575599 0.0057723 0.00578861 0.00580492 0.00582124
0.00583756 0.00585403 0.00587048 0.00588694 0.00590341 0.00591988 0.00593652 0.00595313 0.00596974 0.00598637
0.006003 0.00601979 0.00603657 0.00605335 0.00607013 0.00608693 0.0061039 0.00612085 0.00613779 0.00615473
0.00617171 0.00618885 0.00620598 0.00622309 0.0062402 0.00625736 0.00627469 0.006292 0.00630928 0.00632657
0.00634391 0.00636143 0.00637893 0.0063964 0.00641389 0.00643142 0.00644913 0.00646682 0.00648449 0.00650217
0.0065199 0.00653782 0.00655571 0.00657358 0.00659147 0.0066094 0.00662753 0.00664563 0.00666371 0.00668181
0.00669996 0.0067183 0.00673662 0.00675493 0.00677326 0.00679162 0.00681019 0.00682873 0.00684727 0.00686584
0.00688443 0.00690323 0.006922 0.00694079 0.0069596 0.00697843 0.00699746 0.00701648 0.00703551 0.00705458
0.00707366 0.00709294 0.00711221 0.00713151 0.00715083 0.00717017 0.00718971 0.00720925 0.00722881 0.0072484
0.00726802 0.00728346 0.0072989 0.00731436 0.00732984 0.00734543 0.00734979 0.00735416 0.00735852 0.00736288
0.00736725 0.00738733 0.00740742 0.00742755 0.0074477 0.00746788 0.00748825 0.00750865 0.00752907 0.00754951
0.00756999 0.00759067 0.00761136 0.00763208 0.00765283 0.00767361 0.0076946 0.0077156 0.00773663 0.00775769
0.00777879 0.00780009 0.00782142 0.00784277 0.00786415 0.00788556 0.0079072 0.00792885 0.00795052 0.00797223
0.00799397 0.00801594 0.00803793 0.00805993 0.00808197 0.00810405 0.00812636 0.00814868 0.00817102 0.0081934
0.00821582 0.00823847 0.00826114 0.00828383 0.00830655 0.00832932 0.00835231 0.00837532 0.00839836 0.00842143
0.00844455 0.00846789 0.00849126 0.00851465 0.00853807 0.00856153 0.00858523 0.00860894 0.00863269 0.00865646
0.00868028 0.00870432 0.00872839 0.00875249 0.00877662 0.00880079 0.00882519 0.00884961 0.00887406 0.00889854
0.00892306 0.00894781 0.00897258 0.00899738 0.00902222 0.00904708 0.00907218 0.0090973 0.00912245 0.00914763
0.00917284 0.00919829 0.00922376 0.00924925 0.00927478 0.00930033 0.00932612 0.00935193 0.00937776 0.00940363
0.00942952 0.00944811 0.00946672 0.00948534 0.00950397 0.00952202 0.0095297 0.00953738 0.00954505 0.00955274
0.00956042 0.00958688 0.00961336 0.00963987 0.0096664 0.00969296 0.00971975 0.00974656 0.0097734 0.00980026
0.00982714 0.00985426 0.0098814 0.00990856 0.00993575 0.00996296 0.0099904 0.0100179 0.0100453 0.0100729
0.0101004 0.0101282 0.0101559 0.0101837 0.0102116 0.0102394 0.0102675 0.0102956 0.0103237 0.0103519
0.01038 0.0104084 0.0104369 0.0104653 0.0104938 0.0105223 0.010551 0.0105797 0.0106085 0.0106373