/*--------------------------------*- C++ -*----------------------------------*\
  =========                 |
  \\      /  F ield         | OpenFOAM: The Open Source CFD Toolbox
   \\    /   O peration     | Website:  https://openfoam.org
    \\  /    A nd           | Version:  10
     \\/     M anipulation  |
\*---------------------------------------------------------------------------*/
FoamFile
{
    format      ascii;
    class       volScalarField;
    location    "71";
    object      p;
}
// * * * * * * * * * * * * * * * * * * * * * * * * * * * * * * * * * * * * * //

dimensions      [0 2 -2 0 0 0 0];

internalField   nonuniform List<scalar> 
2200
(
0.772568
0.75107
0.735167
0.719506
0.704903
0.692397
0.68206
0.673979
0.668297
0.66541
0.66595
0.669768
0.676157
0.684746
0.695444
0.70823
0.723032
0.738966
0.755014
0.776513
0.704985
0.701728
0.698806
0.694694
0.689242
0.682782
0.676184
0.67026
0.665798
0.663479
0.664015
0.667361
0.672566
0.679044
0.686049
0.692816
0.698487
0.702589
0.705441
0.708804
0.665041
0.665264
0.667332
0.668686
0.669086
0.668246
0.666284
0.663638
0.661136
0.659695
0.660303
0.662829
0.66615
0.669407
0.671758
0.672768
0.672501
0.671505
0.669864
0.669617
0.642537
0.643992
0.646589
0.649044
0.651499
0.653536
0.654713
0.654974
0.654644
0.654419
0.655099
0.656554
0.657804
0.658229
0.657571
0.65592
0.653777
0.651601
0.648996
0.647593
0.628136
0.630108
0.632932
0.635782
0.638658
0.64151
0.643999
0.6459
0.647171
0.648013
0.648831
0.64937
0.649192
0.648138
0.646311
0.643962
0.641432
0.638719
0.635933
0.634011
0.620744
0.622342
0.624554
0.627097
0.62978
0.632471
0.635093
0.637552
0.639627
0.641213
0.642177
0.642289
0.641519
0.640058
0.638205
0.636095
0.633787
0.631453
0.629359
0.627784
0.617261
0.618284
0.619562
0.621444
0.623611
0.625808
0.628044
0.63039
0.632682
0.634619
0.63575
0.635862
0.635164
0.634019
0.632676
0.631154
0.629482
0.627922
0.626815
0.625798
0.614526
0.615194
0.615834
0.617153
0.618791
0.620512
0.622313
0.624306
0.62646
0.628525
0.629904
0.630329
0.630104
0.629556
0.628836
0.627937
0.626919
0.626017
0.625581
0.624902
0.61119
0.611634
0.61204
0.613055
0.614346
0.61577
0.617322
0.619066
0.621029
0.623125
0.62479
0.625714
0.626086
0.62612
0.625906
0.625488
0.624948
0.624446
0.624272
0.623806
0.607031
0.607326
0.607691
0.608579
0.609718
0.611031
0.612524
0.614213
0.616132
0.61832
0.620365
0.621844
0.622753
0.623247
0.623421
0.623356
0.623115
0.622824
0.622711
0.622384
0.602185
0.602385
0.602763
0.603612
0.604738
0.606093
0.607682
0.609514
0.611611
0.614032
0.616516
0.618535
0.619915
0.620761
0.621212
0.621392
0.62134
0.621208
0.62112
0.620879
0.596848
0.596993
0.597373
0.598203
0.599375
0.600851
0.602627
0.604708
0.607141
0.609995
0.613045
0.615604
0.617407
0.618591
0.619297
0.619664
0.619829
0.619848
0.619795
0.6196
0.591042
0.591149
0.591533
0.592371
0.593632
0.595277
0.597306
0.599741
0.602655
0.606122
0.609814
0.612955
0.615218
0.616756
0.617763
0.618398
0.618785
0.618943
0.618934
0.61876
0.584827
0.58489
0.585284
0.586163
0.587539
0.589376
0.591679
0.594516
0.597992
0.602191
0.606705
0.610552
0.613361
0.615357
0.616771
0.61773
0.618366
0.618679
0.618712
0.618543
0.578055
0.57809
0.578518
0.579436
0.580955
0.582999
0.585607
0.588909
0.593071
0.598155
0.603654
0.608359
0.611853
0.614444
0.616347
0.617704
0.618617
0.619095
0.619178
0.619009
0.570612
0.570568
0.571007
0.572043
0.573794
0.576128
0.579136
0.583007
0.587958
0.594111
0.600725
0.606462
0.610852
0.614142
0.616631
0.618432
0.619657
0.620306
0.620439
0.620263
0.562244
0.562247
0.562683
0.563804
0.565805
0.568467
0.571953
0.576493
0.582352
0.589719
0.597814
0.604824
0.61028
0.61445
0.617617
0.619955
0.621539
0.622364
0.622552
0.622361
0.552724
0.55274
0.553196
0.554469
0.556772
0.559869
0.563989
0.569391
0.5764
0.58523
0.594984
0.60357
0.61027
0.61546
0.619416
0.622338
0.624329
0.625351
0.625592
0.625383
0.541708
0.54168
0.542255
0.54375
0.546402
0.550084
0.555031
0.561521
0.569945
0.580641
0.592367
0.602768
0.610902
0.617222
0.622053
0.625686
0.628142
0.629351
0.629636
0.629399
0.528568
0.5285
0.529192
0.531069
0.534289
0.538757
0.544783
0.552706
0.562956
0.575865
0.590015
0.602402
0.612171
0.619784
0.62565
0.630041
0.632987
0.634399
0.634714
0.634447
0.512998
0.512885
0.513664
0.515908
0.519912
0.525507
0.532998
0.542803
0.555401
0.571028
0.587933
0.602686
0.61426
0.623266
0.630234
0.635481
0.638948
0.640523
0.640847
0.640547
0.494116
0.49404
0.495061
0.497839
0.502794
0.509822
0.519276
0.531581
0.547167
0.566128
0.586158
0.603498
0.616999
0.627593
0.635823
0.641998
0.645972
0.647703
0.647998
0.647667
0.470767
0.47062
0.471959
0.475601
0.482059
0.491233
0.503446
0.519096
0.538405
0.561267
0.584926
0.60507
0.620736
0.632925
0.642413
0.649515
0.653947
0.655773
0.655996
0.655645
0.440697
0.440724
0.44285
0.447964
0.456821
0.469241
0.485352
0.505302
0.529086
0.556442
0.584127
0.607358
0.625239
0.639144
0.649981
0.657951
0.662711
0.664557
0.664669
0.664306
0.401143
0.401394
0.404968
0.413023
0.425882
0.443238
0.464688
0.490097
0.519283
0.551845
0.58393
0.610331
0.630515
0.646187
0.658299
0.66704
0.671971
0.673706
0.673687
0.673337
0.348404
0.348891
0.356053
0.36942
0.388875
0.413549
0.442075
0.474208
0.509692
0.547951
0.584598
0.614241
0.63671
0.65404
0.667375
0.676606
0.681307
0.682608
0.682453
0.68217
0.279594
0.282315
0.297671
0.319584
0.348072
0.381684
0.418439
0.458058
0.500385
0.544913
0.586628
0.619962
0.645096
0.664481
0.679013
0.688608
0.692908
0.693596
0.693484
0.693267
0.201338
0.211165
0.236788
0.268374
0.307064
0.349928
0.394965
0.442283
0.491858
0.543124
0.59041
0.627891
0.656082
0.67744
0.693268
0.702882
0.70654
0.706684
0.706699
0.706562
0.131414
0.146069
0.178478
0.219244
0.267688
0.319434
0.37255
0.427656
0.484499
0.54229
0.594953
0.636339
0.667191
0.690347
0.707028
0.716321
0.719465
0.71935
0.719499
0.719414
0.0781903
0.0919893
0.128884
0.175728
0.231705
0.291143
0.351792
0.414189
0.477871
0.542003
0.599972
0.645106
0.678248
0.702915
0.720357
0.729898
0.732427
0.732584
0.732836
0.732799
0.0341524
0.0471359
0.0880707
0.138922
0.200427
0.265891
0.332986
0.401854
0.471857
0.542081
0.605071
0.653731
0.689322
0.715624
0.733975
0.743776
0.746581
0.747087
0.747153
0.74723
-0.00298445
0.00993952
0.0535551
0.107402
0.173261
0.243553
0.31614
0.390731
0.466474
0.542248
0.609915
0.662078
0.700226
0.728095
0.747667
0.75809
0.761392
0.761902
0.76189
0.761963
-0.0355052
-0.0223166
0.0234557
0.0799135
0.149447
0.223802
0.301096
0.380644
0.461478
0.542317
0.614613
0.670265
0.710672
0.740265
0.761072
0.771802
0.77537
0.775855
0.775889
0.775939
-0.0640728
-0.0510387
-0.00349325
0.0553959
0.128124
0.20597
0.287322
0.371188
0.456644
0.542397
0.619358
0.67823
0.720633
0.75153
0.773265
0.784464
0.788228
0.788799
0.788832
0.788871
-0.0901674
-0.077098
-0.0282248
0.0330053
0.108568
0.189512
0.274453
0.362184
0.45201
0.542597
0.623798
0.685485
0.72985
0.762072
0.784217
0.795827
0.79992
0.800554
0.800585
0.800604
-0.114083
-0.101004
-0.0512735
0.0121672
0.0902492
0.173974
0.26214
0.353463
0.447371
0.542213
0.627241
0.691994
0.738382
0.771483
0.793962
0.806138
0.810307
0.811035
0.811049
0.811048
-0.136646
-0.123222
-0.0728879
-0.00747895
0.0727865
0.15905
0.250187
0.344747
0.442183
0.540846
0.630026
0.69789
0.746007
0.780227
0.802924
0.8152
0.819496
0.820279
0.820279
0.82026
-0.157934
-0.144181
-0.093314
-0.0261863
0.0559648
0.144519
0.238272
0.335638
0.436246
0.538736
0.632186
0.703174
0.753246
0.788309
0.811157
0.823446
0.827597
0.8284
0.828376
0.828337
-0.178026
-0.164292
-0.112715
-0.0441329
0.0396026
0.130155
0.226198
0.326072
0.429678
0.535921
0.63347
0.707876
0.760147
0.796278
0.819035
0.830727
0.834784
0.835492
0.83547
0.835409
-0.197226
-0.183395
-0.131259
-0.0614897
0.0235822
0.115863
0.21391
0.31609
0.422529
0.532293
0.633893
0.712019
0.767055
0.804186
0.826633
0.837712
0.841287
0.841683
0.84167
0.841593
-0.215986
-0.201697
-0.149111
-0.0783466
0.00785195
0.101619
0.201463
0.305792
0.414836
0.527854
0.633485
0.715596
0.773793
0.812621
0.834704
0.844479
0.847038
0.847083
0.847054
0.84705
-0.234312
-0.219329
-0.166409
-0.0947727
-0.00758771
0.087488
0.188928
0.295188
0.406573
0.522559
0.632118
0.71858
0.780521
0.821639
0.843684
0.851922
0.85238
0.851932
0.851559
0.85143
-0.252237
-0.23654
-0.183236
-0.110765
-0.0227004
0.073512
0.176338
0.284285
0.397754
0.516431
0.629717
0.720775
0.787007
0.831552
0.854718
0.860814
0.858829
0.857287
0.857254
0.858239
-0.269543
-0.253304
-0.199589
-0.126321
-0.0374633
0.0597323
0.163723
0.273097
0.388395
0.509493
0.626186
0.721941
0.793191
0.842163
0.867989
0.87339
0.868373
0.861421
0.856923
0.856339
-0.286277
-0.269631
-0.215437
-0.141401
-0.0518408
0.046174
0.15111
0.261676
0.378584
0.501821
0.621487
0.721766
0.798363
0.853266
0.883833
0.89039
0.884836
0.874908
0.875699
0.879882
-0.302354
-0.285375
-0.230711
-0.155984
-0.065818
0.0328714
0.138564
0.25012
0.368409
0.493472
0.615635
0.720026
0.802268
0.86387
0.901198
0.912192
0.905168
0.876004
0.839463
0.807994
-0.317791
-0.300579
-0.245448
-0.170135
-0.0794894
0.0197054
0.125957
0.238285
0.357691
0.48426
0.608446
0.716285
0.803732
0.873129
0.919697
0.938056
0.944074
0.916252
0.933917
0.99694
-0.332508
-0.315205
-0.259718
-0.184011
-0.0930522
0.00645407
0.113037
0.225855
0.345989
0.473595
0.599266
0.709701
0.801776
0.878034
0.931046
0.954509
0.951792
0.921238
0.875912
0.894047
-0.346518
-0.329288
-0.273495
-0.197548
-0.106415
-0.00677446
0.0999286
0.212949
0.333399
0.461516
0.588057
0.699919
0.794026
0.873945
0.928867
0.953236
0.929687
0.8685
0.801591
0.788292
-0.359783
-0.342757
-0.286755
-0.210752
-0.119582
-0.0199773
0.0866451
0.199581
0.319924
0.447983
0.574636
0.686524
0.7801
0.856955
0.907005
0.905306
0.863625
0.780712
0.703247
0.676473
-0.372362
-0.355671
-0.299534
-0.223627
-0.132556
-0.0331568
0.0731806
0.185745
0.305583
0.433009
0.558891
0.669204
0.758275
0.823969
0.849366
0.830197
0.763189
0.65733
0.567252
0.542169
-0.384672
-0.368351
-0.312178
-0.236531
-0.145687
-0.0466272
0.0592621
0.17122
0.290206
0.41643
0.540573
0.647396
0.729401
0.778617
0.770662
0.730661
0.611652
0.484944
0.374683
0.344868
-0.397567
-0.381652
-0.325403
-0.250046
-0.159501
-0.0608416
0.0444977
0.155679
0.273543
0.398044
0.519408
0.620572
0.695266
0.718657
0.683677
0.589094
0.428234
0.271925
0.13959
0.109607
-0.411532
-0.395823
-0.339441
-0.264409
-0.174193
-0.0759389
0.0288001
0.139092
0.255603
0.37787
0.495331
0.589691
0.653657
0.647367
0.593842
0.438367
0.235285
0.0200664
-0.161883
-0.21255
-0.426711
-0.411123
-0.354443
-0.279628
-0.189713
-0.0918728
0.0122089
0.12149
0.236438
0.355991
0.46834
0.556107
0.604682
0.566567
0.476716
0.285432
0.0525935
-0.237555
-0.558734
-0.709034
-0.443149
-0.42746
-0.370429
-0.295826
-0.206172
-0.108739
-0.00535881
0.102815
0.215997
0.332425
0.438652
0.519617
0.549725
0.481237
0.34123
0.134146
-0.100135
-0.444243
-1.02867
-1.59911
-0.460963
-0.44514
-0.387591
-0.313038
-0.223546
-0.1265
-0.0238526
0.0831351
0.194429
0.307548
0.40744
0.480253
0.490621
0.406004
0.211343
-0.0228618
-0.225629
-0.459758
-1.01025
-2.50838
-0.480147
-0.463992
-0.405897
-0.331428
-0.242059
-0.145399
-0.0435371
0.062175
0.171408
0.280985
0.374557
0.437541
0.426397
0.346739
0.117677
-0.120171
-0.268473
-0.306121
-0.295121
-0.678496
-0.50066
-0.484459
-0.425678
-0.351248
-0.262028
-0.165875
-0.0649977
0.0391678
0.145989
0.251448
0.339091
0.391214
0.363554
0.295341
0.0676409
-0.134569
-0.245745
-0.254295
-0.20176
-0.241707
-0.522367
-0.506064
-0.446741
-0.372615
-0.283645
-0.188139
-0.0884567
0.0139228
0.11796
0.218726
0.301162
0.342905
0.30847
0.240381
0.0348293
-0.125495
-0.208129
-0.216498
-0.264205
-0.268248
-0.545236
-0.529105
-0.469227
-0.395473
-0.306787
-0.212132
-0.113901
-0.0136143
0.0872894
0.18322
0.26059
0.292281
0.260483
0.178198
0.00645888
-0.116316
-0.187153
-0.16411
-0.184565
-0.186245
-0.56897
-0.552563
-0.492752
-0.419783
-0.331453
-0.237895
-0.141349
-0.0433578
0.0541176
0.14528
0.217715
0.238242
0.218695
0.11031
-0.0291203
-0.111944
-0.151516
-0.199479
-0.173648
-0.182308
-0.59354
-0.576718
-0.51743
-0.445302
-0.357263
-0.26516
-0.170525
-0.0750732
0.0185957
0.105258
0.173359
0.183301
0.175321
0.0489779
-0.0663635
-0.13033
-0.108416
-0.167954
-0.148441
-0.153498
-0.617721
-0.600708
-0.542909
-0.471713
-0.384066
-0.29384
-0.201269
-0.108469
-0.0190444
0.0635413
0.128764
0.130958
0.122796
-0.00228504
-0.0935209
-0.144997
-0.132279
-0.148133
-0.153274
-0.151582
-0.641341
-0.624464
-0.568705
-0.498289
-0.411355
-0.323431
-0.233057
-0.143112
-0.058279
0.0204853
0.0842448
0.0826956
0.0656333
-0.0448208
-0.107069
-0.139175
-0.17701
-0.14877
-0.154357
-0.148781
-0.663193
-0.647041
-0.59333
-0.524147
-0.439019
-0.35356
-0.26551
-0.178518
-0.0982882
-0.0235714
0.0397027
0.0388895
0.00953184
-0.0794007
-0.119775
-0.113848
-0.186291
-0.128876
-0.143969
-0.136078
-0.682798
-0.667772
-0.616181
-0.548338
-0.466382
-0.383291
-0.297853
-0.214064
-0.138119
-0.068184
-0.00531804
-0.001596
-0.0356265
-0.0979984
-0.126758
-0.0873592
-0.133204
-0.114867
-0.120914
-0.117597
-0.698411
-0.684996
-0.636073
-0.570456
-0.492463
-0.411866
-0.329404
-0.249032
-0.176854
-0.112538
-0.0506466
-0.0394922
-0.0670665
-0.0992498
-0.115011
-0.0923944
-0.106238
-0.110362
-0.111703
-0.111813
-0.709329
-0.698053
-0.652548
-0.589605
-0.515561
-0.43816
-0.359196
-0.282569
-0.213736
-0.155476
-0.095086
-0.0746321
-0.0894043
-0.09581
-0.105188
-0.114539
-0.108292
-0.112744
-0.111618
-0.112725
-0.714089
-0.705188
-0.663873
-0.604567
-0.534728
-0.461223
-0.386189
-0.313529
-0.247934
-0.19528
-0.136142
-0.108709
-0.116728
-0.095392
-0.106683
-0.135067
-0.118167
-0.123068
-0.117622
-0.118834
-0.712804
-0.705979
-0.669083
-0.613838
-0.548456
-0.479555
-0.409186
-0.340873
-0.278797
-0.230173
-0.172575
-0.140878
-0.139291
-0.106319
-0.114158
-0.149508
-0.122482
-0.133233
-0.127739
-0.129449
-0.704529
-0.69728
-0.66544
-0.616007
-0.556197
-0.492426
-0.42692
-0.362873
-0.304375
-0.258527
-0.203478
-0.168841
-0.152834
-0.115259
-0.0699217
-0.0590338
-0.062698
-0.0710634
-0.0736256
-0.0769379
-0.683396
-0.675093
-0.651609
-0.60982
-0.556441
-0.498437
-0.438583
-0.37871
-0.323011
-0.278454
-0.226321
-0.185728
-0.161706
-0.15243
-0.146379
-0.178142
-0.190553
-0.187918
-0.184056
-0.178649
-0.64051
-0.63278
-0.624657
-0.595116
-0.550239
-0.498424
-0.443682
-0.386884
-0.332341
-0.287419
-0.237135
-0.188315
-0.21611
-0.293178
-0.469559
-0.627971
-0.646991
-0.632058
-0.579206
-0.528535
-0.600464
-0.597798
-0.596275
-0.57377
-0.537916
-0.493342
-0.443059
-0.388362
-0.332049
-0.282588
-0.233425
-0.163165
-0.180746
-0.2635
-0.386668
-0.430725
-0.388111
-0.325342
-0.280572
-0.259505
-0.577232
-0.579061
-0.568783
-0.55589
-0.527545
-0.486844
-0.437979
-0.383598
-0.322879
-0.262672
-0.206439
-0.0993007
0.0259431
0.206472
0.37694
0.552562
0.68485
0.76057
0.802932
0.839591
-0.546667
-0.5462
-0.543619
-0.542605
-0.518839
-0.48186
-0.4337
-0.377039
-0.310458
-0.235296
-0.159195
-0.0296548
0.169481
0.471307
0.760558
1.00519
1.18111
1.28112
1.32743
1.34226
-0.535037
-0.533176
-0.536508
-0.528284
-0.511687
-0.477982
-0.4293
-0.370142
-0.299435
-0.212507
-0.117886
0.00712314
0.23363
0.547901
0.853095
1.10979
1.30101
1.41083
1.45931
1.47581
-0.52083
-0.519271
-0.522787
-0.514433
-0.510738
-0.477502
-0.427488
-0.365286
-0.291472
-0.197989
-0.0942792
0.0121476
0.230595
0.509192
0.782541
1.0184
1.20345
1.31458
1.36401
1.37764
-0.509683
-0.509549
-0.508734
-0.507913
-0.506062
-0.476733
-0.428736
-0.365734
-0.289527
-0.194693
-0.0915358
-0.00721441
0.179302
0.417371
0.644405
0.839644
0.997488
1.09416
1.13642
1.14683
-0.50622
-0.506995
-0.505014
-0.509076
-0.502674
-0.476296
-0.429433
-0.36824
-0.293878
-0.203057
-0.104444
-0.0373144
0.110709
0.310946
0.493667
0.64567
0.768389
0.844859
0.877212
0.884953
-0.500598
-0.50156
-0.500299
-0.504526
-0.500369
-0.482315
-0.43719
-0.375278
-0.302603
-0.218168
-0.125138
-0.0685077
0.04231
0.207298
0.351778
0.46672
0.557793
0.615666
0.640297
0.645624
-0.490239
-0.489397
-0.486398
-0.484425
-0.47777
-0.477478
-0.442309
-0.383337
-0.312622
-0.235006
-0.147561
-0.0969661
-0.0179692
0.115572
0.228374
0.314549
0.381085
0.424204
0.441037
0.445203
-0.49968
-0.495996
-0.4907
-0.484831
-0.481469
-0.483042
-0.445472
-0.38779
-0.318424
-0.248568
-0.167624
-0.120925
-0.0676499
0.0391789
0.126295
0.190549
0.239947
0.272144
0.283933
0.288105
-0.534677
-0.532087
-0.531162
-0.532418
-0.535132
-0.522152
-0.461186
-0.392468
-0.320121
-0.256587
-0.182882
-0.139448
-0.104068
-0.0192636
0.0470213
0.0950958
0.132837
0.157564
0.166937
0.16938
-0.591178
-0.595043
-0.605705
-0.615849
-0.612537
-0.571656
-0.47959
-0.396601
-0.316861
-0.257596
-0.192114
-0.151947
-0.126798
-0.0598251
-0.0101178
0.0256142
0.0537217
0.0710038
0.0786439
0.0807153
-0.578645
-0.584076
-0.59819
-0.61414
-0.611034
-0.562164
-0.471798
-0.385376
-0.306098
-0.248734
-0.193359
-0.157389
-0.136232
-0.0851878
-0.0490873
-0.0229159
-0.00327599
0.00795997
0.012536
0.0132201
-0.462261
-0.469112
-0.485201
-0.496125
-0.495872
-0.463498
-0.40531
-0.343298
-0.279728
-0.228921
-0.185561
-0.155776
-0.135331
-0.0986145
-0.0732444
-0.0555913
-0.0434806
-0.0372518
-0.0353942
-0.035889
-0.294372
-0.299697
-0.30756
-0.316133
-0.320097
-0.310687
-0.290454
-0.26422
-0.229617
-0.196767
-0.167935
-0.146252
-0.128298
-0.103182
-0.0866561
-0.0760744
-0.0698219
-0.0676259
-0.0679553
-0.0690479
-0.137183
-0.139821
-0.144968
-0.15385
-0.163665
-0.17078
-0.175231
-0.175574
-0.167038
-0.155699
-0.141588
-0.129105
-0.11716
-0.101424
-0.0920179
-0.0870473
-0.0851342
-0.0855814
-0.0871072
-0.0884576
-0.0229224
-0.0243924
-0.0279957
-0.036463
-0.0505199
-0.0675702
-0.0850419
-0.100149
-0.108423
-0.113315
-0.110688
-0.107072
-0.102488
-0.0945973
-0.0909103
-0.0900968
-0.0910276
-0.0930458
-0.0949885
-0.0963862
0.0427314
0.0416723
0.0390456
0.0310196
0.0153279
-0.00576614
-0.0278564
-0.0481944
-0.063265
-0.076415
-0.080591
-0.0834295
-0.0856172
-0.0832256
-0.0844406
-0.0869838
-0.0897463
-0.0924092
-0.094328
-0.0956475
0.0712858
0.0706039
0.0686257
0.0616497
0.0470221
0.0262743
0.00377425
-0.0176729
-0.0342961
-0.0494406
-0.0557823
-0.061631
-0.0681282
-0.0698764
-0.0747044
-0.07938
-0.0832192
-0.0861387
-0.0879041
-0.0890856
0.0778917
0.0773931
0.0758741
0.0703318
0.0583504
0.0406477
0.020223
-0.000449517
-0.0170038
-0.0321049
-0.0386835
-0.0447414
-0.0520654
-0.0573364
-0.063902
-0.0694877
-0.0737237
-0.0767382
-0.078272
-0.0792679
0.0730097
0.0726716
0.0715326
0.0673943
0.0583043
0.0445412
0.0277408
0.00937549
-0.00612726
-0.0209347
-0.027568
-0.0328586
-0.0398286
-0.0463558
-0.053238
-0.0588035
-0.0629806
-0.0658757
-0.0670982
-0.0678917
0.0631106
0.0629069
0.0620703
0.0591083
0.0524828
0.0423205
0.0294973
0.0146233
0.00142032
-0.0126511
-0.0196105
-0.0244222
-0.0306953
-0.0368466
-0.0432711
-0.0483532
-0.0521252
-0.0547126
-0.0556698
-0.0562937
0.0516077
0.0515068
0.0509168
0.0489026
0.044245
0.036966
0.0275929
0.0163139
0.00628708
-0.00602011
-0.0129116
-0.017679
-0.023178
-0.0283916
-0.0340545
-0.0384639
-0.0417544
-0.0440005
-0.044736
-0.0452068
0.0402059
0.0401814
0.0397753
0.038476
0.0353161
0.030248
0.0235574
0.0151991
0.00818575
-0.00150737
-0.00707398
-0.0113292
-0.0162072
-0.0207373
-0.0256783
-0.0294365
-0.0322331
-0.034113
-0.0347134
-0.0350795
0.0296283
0.0296367
0.029355
0.0285539
0.0264886
0.0231242
0.0185187
0.0124473
0.00780804
0.000700107
-0.00292381
-0.00602186
-0.00997213
-0.0139038
-0.0182145
-0.0213153
-0.0235684
-0.0250439
-0.0254929
-0.0257749
0.0201051
0.020117
0.0199413
0.0195031
0.0182292
0.0161473
0.0132381
0.00901628
0.00621815
0.00123291
-0.000789301
-0.00263783
-0.00542571
-0.00836595
-0.011829
-0.0142186
-0.0158951
-0.0169451
-0.0172846
-0.0175247
0.0113588
0.0113785
0.0113417
0.0112231
0.0105941
0.00948815
0.00800505
0.00534174
0.00400901
0.000821511
-4.6019e-05
-0.000878765
-0.0025451
-0.00424709
-0.00682567
-0.0083944
-0.00946636
-0.0100621
-0.010139
-0.0103091
0.00356249
0.00357918
0.00360864
0.00370924
0.00362276
0.00329378
0.00294289
0.00169057
0.00154917
6.88199e-05
0.000198439
0.000166359
-0.000749814
-0.00122739
-0.00295816
-0.0038439
-0.00473495
-0.00519066
-0.00497541
-0.00495739
-1.07645
-0.242147
0.0276361
0.301636
0.480039
0.632169
0.752701
0.87602
1.01384
1.0995
-0.102093
0.301761
0.315524
0.502003
0.622323
0.730242
0.822604
0.90533
0.931904
0.890891
0.269364
0.481031
0.513449
0.648653
0.731873
0.809472
0.87355
0.921773
0.923416
0.938082
0.495117
0.635681
0.669801
0.769308
0.825464
0.881341
0.925322
0.957226
0.966078
0.98997
0.670096
0.769577
0.799186
0.864905
0.909135
0.948997
0.980624
1.0047
1.01433
1.04607
0.811328
0.879011
0.909076
0.951015
0.986645
1.01626
1.04024
1.06095
1.07492
1.10334
0.929164
0.979102
1.00442
1.03195
1.05922
1.08275
1.10255
1.12178
1.13656
1.16317
1.03212
1.06881
1.08969
1.11011
1.13068
1.14993
1.16727
1.18538
1.20023
1.22392
1.12562
1.15457
1.17079
1.18595
1.20195
1.21795
1.23347
1.25037
1.26399
1.28631
1.21362
1.23401
1.2488
1.26191
1.27545
1.28918
1.30268
1.31727
1.32881
1.34845
1.29893
1.31469
1.32849
1.34029
1.35219
1.36382
1.37495
1.38662
1.3943
1.41109
1.38412
1.39665
1.41036
1.4221
1.43273
1.44252
1.45135
1.4596
1.46316
1.47439
1.47285
1.48368
1.49715
1.50667
1.51423
1.52153
1.5287
1.53516
1.53627
1.54362
1.57125
1.57586
1.58405
1.58877
1.59217
1.59664
1.60264
1.61028
1.61419
1.62407
1.68452
1.67141
1.66412
1.65842
1.65569
1.65703
1.66333
1.6757
1.69053
1.72021
1.80649
1.75044
1.71942
1.70223
1.69401
1.69393
1.70281
1.72244
1.7542
1.82349
)
;

boundaryField
{
    wall-4
    {
        type            zeroGradient;
    }
    pressure-outlet-7
    {
        type            fixedValue;
        value           uniform 0;
    }
    velocity-inlet-6
    {
        type            zeroGradient;
    }
    velocity-inlet-5
    {
        type            zeroGradient;
    }
    frontAndBackPlanes
    {
        type            empty;
    }
}


// ************************************************************************* //
