/*--------------------------------*- C++ -*----------------------------------*\
  =========                 |
  \\      /  F ield         | OpenFOAM: The Open Source CFD Toolbox
   \\    /   O peration     | Website:  https://openfoam.org
    \\  /    A nd           | Version:  10
     \\/     M anipulation  |
\*---------------------------------------------------------------------------*/
FoamFile
{
    format      ascii;
    class       surfaceScalarField;
    location    "71";
    object      phi;
}
// * * * * * * * * * * * * * * * * * * * * * * * * * * * * * * * * * * * * * //

dimensions      [0 3 -1 0 0 0 0];

internalField   nonuniform List<scalar> 
4262
(
0.107134
0.470855
0.0955686
0.705151
0.0693794
0.858492
0.0473568
1.02079
0.0309681
1.21491
0.0197553
1.44943
0.0123285
1.73329
0.00710081
2.07626
0.00315752
2.48919
-0.000652272
2.9861
-0.00438844
2.98603
-0.00811098
2.48897
-0.0130696
2.07599
-0.0202142
1.73301
-0.0311292
1.44913
-0.0471777
1.21456
-0.0689218
1.02051
-0.0951906
0.858572
-0.107063
0.705458
0.470925
0.112858
0.357997
0.13525
0.682758
0.120351
0.873392
0.0978138
1.04332
0.0745657
1.23815
0.0528235
1.47117
0.0344425
1.75167
0.0202712
2.09044
0.00903804
2.50042
-0.000886631
2.99603
-0.0109662
2.99611
-0.0223155
2.50032
-0.036458
2.09014
-0.054754
1.7513
-0.0766064
1.47099
-0.100358
1.23832
-0.123534
1.04368
-0.137039
0.872076
-0.113576
0.681996
0.357349
0.0920326
0.265964
0.124946
0.649845
0.121059
0.877279
0.104742
1.05964
0.0860698
1.25683
0.0669173
1.49033
0.047896
1.77069
0.0297307
2.1086
0.0130202
2.51713
-0.00291697
3.01196
-0.0185928
3.01178
-0.034456
2.51618
-0.0519117
2.10759
-0.0703316
1.76972
-0.0886459
1.4893
-0.105808
1.25548
-0.119875
1.05775
-0.12527
0.877471
-0.0923767
0.649103
0.264972
0.0639522
0.202012
0.104739
0.609058
0.106496
0.875521
0.0951193
1.07102
0.0811933
1.27075
0.0664489
1.50507
0.0503404
1.7868
0.033241
2.1257
0.0156344
2.53474
-0.00307387
3.03067
-0.0216975
3.03041
-0.0391434
2.53362
-0.0556513
2.1241
-0.0708207
1.78489
-0.0845732
1.50305
-0.0982631
1.26917
-0.110039
1.06953
-0.107039
0.874471
-0.0649047
0.606968
0.200067
0.0374633
0.164549
0.0806651
0.565856
0.0908848
0.865302
0.0836301
1.07827
0.0709617
1.28342
0.0590578
1.51698
0.0459676
1.79989
0.0308603
2.14081
0.0137029
2.55189
-0.00551465
3.04989
-0.0240341
3.04893
-0.0397598
2.54935
-0.0535731
2.13791
-0.0657196
1.79704
-0.0770048
1.51434
-0.0889347
1.2811
-0.09525
1.07584
-0.0833654
0.862587
-0.0384524
0.562055
0.161615
0.019431
0.145118
0.057097
0.52819
0.0724382
0.84996
0.0702983
1.08041
0.0614753
1.29224
0.0505904
1.52786
0.0394442
1.81104
0.0268988
2.15335
0.0119503
2.56684
-0.00576295
3.0676
-0.0233139
3.06648
-0.0378419
2.56388
-0.0493782
2.14945
-0.0592039
1.80687
-0.0689822
1.52412
-0.0765934
1.28871
-0.0773681
1.07662
-0.0601632
0.845382
-0.0204359
0.522328
0.141179
0.0105871
0.134531
0.0422338
0.496543
0.0582796
0.833915
0.0584939
1.0802
0.0522474
1.29849
0.042754
1.53735
0.0322242
1.82157
0.0206632
2.16491
0.00716183
2.58034
-0.00883659
3.0836
-0.0239465
3.08159
-0.0355349
2.57547
-0.0452568
2.15917
-0.0541735
1.81578
-0.0620855
1.53203
-0.0665927
1.29322
-0.0645604
1.07458
-0.0460683
0.82689
-0.0117533
0.488013
0.129426
0.00652955
0.128001
0.032804
0.470269
0.0489623
0.817756
0.0504063
1.07875
0.0453159
1.30358
0.0369783
1.54569
0.0273707
1.83118
0.0165453
2.17574
0.00451905
2.59237
-0.00945962
3.09758
-0.0232086
3.09534
-0.0343073
2.58657
-0.0434704
2.16834
-0.0510224
1.82333
-0.0574087
1.53842
-0.060511
1.29632
-0.0567732
1.07085
-0.0374789
0.807596
-0.00794565
0.45848
0.12148
0.00466405
0.123337
0.0263986
0.448534
0.0420981
0.802057
0.0440896
1.07676
0.0392896
1.30838
0.0314443
1.55354
0.022098
1.84052
0.011301
2.18654
-0.000532815
2.6042
-0.0135755
3.11062
-0.0252595
3.10702
-0.0346329
2.59594
-0.04278
2.17648
-0.0496785
1.83023
-0.0550678
1.5438
-0.0572236
1.29847
-0.0520614
1.06568
-0.0322355
0.78777
-0.00643596
0.43268
0.115044
0.00368852
0.119648
0.0214839
0.430739
0.0364768
0.787064
0.0391336
1.07411
0.034734
1.31278
0.0273594
1.56091
0.0185883
1.84929
0.00860621
2.19652
-0.00269778
2.61551
-0.0151463
3.12307
-0.0269182
3.11879
-0.0364712
2.60549
-0.043817
2.18383
-0.0495926
1.83601
-0.0541611
1.54837
-0.0552945
1.29961
-0.048791
1.05918
-0.0286049
0.767584
-0.00585376
0.409929
0.10919
0.00298366
0.116665
0.0173195
0.416403
0.0310796
0.773304
0.0338933
1.07129
0.0295769
1.3171
0.02222
1.56827
0.0133523
1.85816
0.00297106
2.2069
-0.00861375
2.62709
-0.0205552
3.13501
-0.0309572
3.12919
-0.0388653
2.6134
-0.0453988
2.19036
-0.0507466
1.84136
-0.0544669
1.55209
-0.0544225
1.29956
-0.0463982
1.05116
-0.0259928
0.747178
-0.00563003
0.389566
0.10356
0.00228652
0.114378
0.0135497
0.40514
0.0258906
0.760963
0.02879
1.06839
0.0246656
1.32122
0.0175054
1.57543
0.00899844
1.86667
-0.000507693
2.21641
-0.0111358
2.63772
-0.023472
3.14735
-0.0346411
3.14036
-0.0427694
2.62153
-0.0483822
2.19597
-0.052423
1.8454
-0.0549954
1.55467
-0.0542458
1.29881
-0.0447655
1.04168
-0.0241573
0.72657
-0.0055125
0.370921
0.0980479
0.00163492
0.112743
0.0102992
0.396476
0.0209428
0.750319
0.0234512
1.06588
0.0192074
1.32546
0.0119841
1.58265
0.00313351
1.87552
-0.00730691
2.22685
-0.0191584
2.64957
-0.0310265
3.15922
-0.040424
3.14976
-0.0469188
2.62802
-0.0517118
2.20077
-0.0552422
1.84893
-0.0568019
1.55623
-0.0549975
1.29701
-0.0440937
1.03077
-0.0230717
0.705548
-0.00548878
0.353338
0.0925591
0.000719766
0.112024
0.00672589
0.390469
0.0154933
0.741552
0.0173453
1.06403
0.0127171
1.33009
0.00512845
1.59024
-0.00385
1.8845
-0.0136153
2.23661
-0.0239283
2.65989
-0.035376
3.17066
-0.0456177
3.16
-0.0522085
2.63461
-0.055911
2.20447
-0.0584441
1.85146
-0.0590678
1.55685
-0.0561905
1.29413
-0.0438902
1.01847
-0.0224097
0.684068
-0.00546305
0.336392
0.0870961
6.35144e-05
0.11196
0.00388334
0.38665
0.0104521
0.734983
0.0113906
1.06309
0.00635738
1.33513
-0.00153099
1.59813
-0.0110022
1.89397
-0.0218552
2.24746
-0.0340763
2.67211
-0.0461613
3.18275
-0.054535
3.16838
-0.059242
2.63932
-0.0621791
2.20741
-0.0639387
1.85322
-0.0635271
1.55644
-0.0589896
1.28959
-0.0448126
1.0043
-0.0224266
0.661681
-0.00557834
0.319544
0.0815178
-0.00088854
0.112849
0.000307695
0.385453
0.00470793
0.730583
0.00442568
1.06338
-0.00151435
1.34107
-0.0105079
1.60712
-0.0209596
1.90442
-0.0320462
2.25855
-0.0430317
2.68309
-0.0536615
3.19338
-0.0619151
3.17663
-0.066546
2.64395
-0.0685689
2.20943
-0.0696643
1.85432
-0.0684575
1.55523
-0.0622904
1.28343
-0.0462413
0.988247
-0.0228042
0.638244
-0.00573148
0.302471
0.0757863
-0.00187108
0.11472
-0.00307939
0.386662
-0.00174926
0.729253
-0.00358921
1.06522
-0.0103158
1.34779
-0.0197946
1.6166
-0.0307308
1.91536
-0.0427404
2.27056
-0.0555277
2.69588
-0.0678446
3.2057
-0.0753955
3.18418
-0.0785022
2.64706
-0.0795489
2.21048
-0.0789122
1.85368
-0.0758806
1.5522
-0.0676406
1.27519
-0.0490552
0.969661
-0.0239002
0.613089
-0.00606006
0.284631
0.0697262
-0.00316799
0.117888
-0.00674502
0.390239
-0.0087674
0.731275
-0.0124652
1.06891
-0.0204017
1.35573
-0.0313412
1.62754
-0.0438326
1.92785
-0.0571487
2.28388
-0.0701494
2.70888
-0.0803992
3.21595
-0.0863785
3.19016
-0.0891599
2.64984
-0.0893707
2.21069
-0.0882345
1.85254
-0.0843536
1.54832
-0.0737884
1.26462
-0.0524602
0.948333
-0.0253515
0.585981
-0.00644199
0.265721
0.0632842
-0.00457092
0.122459
-0.0111737
0.396841
-0.0166703
0.736772
-0.0233904
1.07563
-0.0326841
1.36502
-0.0447532
1.63961
-0.0582204
1.94131
-0.0725096
2.29817
-0.0864943
2.72287
-0.098965
3.22842
-0.106025
3.19722
-0.107143
2.65096
-0.105693
2.20924
-0.102099
1.84895
-0.0956429
1.54186
-0.0823123
1.25129
-0.0574478
0.923468
-0.0274538
0.555987
-0.00694233
0.24521
0.0563419
-0.00594995
0.128409
-0.0159638
0.406855
-0.0253883
0.746196
-0.0350062
1.08525
-0.0466926
1.37671
-0.0610555
1.65397
-0.0767516
1.95701
-0.0931044
2.31452
-0.108685
2.73845
-0.120358
3.24009
-0.12419
3.20105
-0.124013
2.65078
-0.121163
2.20639
-0.116748
1.84453
-0.109051
1.53417
-0.092161
1.2344
-0.0630228
0.89433
-0.0297987
0.522763
-0.00745249
0.222864
0.0488894
-0.00827811
0.136687
-0.0230665
0.421644
-0.0381397
0.761269
-0.0510765
1.09819
-0.0645181
1.39015
-0.0809032
1.67036
-0.0985592
1.97467
-0.116364
2.33232
-0.132162
2.75424
-0.143452
3.25138
-0.148093
3.20569
-0.147065
2.64975
-0.142968
2.20229
-0.136301
1.83787
-0.125078
1.52294
-0.1042
1.21352
-0.0700541
0.860184
-0.0325066
0.485215
-0.00796055
0.198317
0.0409288
-0.0107744
0.147461
-0.0302237
0.441093
-0.0511586
0.782204
-0.0693711
1.1164
-0.0867351
1.40751
-0.10617
1.68979
-0.126575
1.99507
-0.146565
2.35231
-0.163907
2.77159
-0.175563
3.26304
-0.177704
3.20783
-0.173132
2.64518
-0.166124
2.19528
-0.157378
1.82912
-0.143929
1.50949
-0.117734
1.18733
-0.0772058
0.819656
-0.0349862
0.442995
-0.00831843
0.17165
0.0326104
-0.0154775
0.162939
-0.0424729
0.468088
-0.0702709
0.810002
-0.0932495
1.13938
-0.114137
1.4284
-0.1374
1.71306
-0.160664
2.01834
-0.182221
2.37387
-0.199229
2.78859
-0.208471
3.27228
-0.207886
3.20725
-0.202777
2.64007
-0.19513
2.18764
-0.184201
1.81819
-0.165701
1.49099
-0.133356
1.15498
-0.0855261
0.771826
-0.0374161
0.394885
-0.00856576
0.142799
0.0240446
-0.0196804
0.182619
-0.055721
0.504129
-0.0934118
0.847693
-0.124211
1.17018
-0.15118
1.45537
-0.178893
1.74077
-0.204994
2.04444
-0.227486
2.39636
-0.243703
2.80481
-0.250676
3.27925
-0.247636
3.20421
-0.238209
2.63064
-0.225913
2.17534
-0.211613
1.80389
-0.189427
1.46881
-0.149118
1.11468
-0.0920673
0.714775
-0.0384612
0.341279
-0.0082729
0.112611
0.0157718
-0.0330871
0.215706
-0.0827284
0.55377
-0.131099
0.896063
-0.168747
1.20783
-0.201071
1.48769
-0.232693
1.77239
-0.259478
2.07122
-0.280784
2.41767
-0.293986
2.81801
-0.296458
3.28172
-0.28815
3.1959
-0.275959
2.61845
-0.263201
2.16258
-0.245764
1.78646
-0.21575
1.43879
-0.165837
1.06476
-0.0990535
0.647992
-0.0392535
0.281479
-0.00790868
0.0812663
0.00786308
-0.0473955
0.263102
-0.121637
0.628011
-0.185821
0.960247
-0.231701
1.25371
-0.270194
1.52619
-0.303052
1.80525
-0.328078
2.09625
-0.345833
2.43542
-0.354222
2.8264
-0.350322
3.27782
-0.336563
3.18214
-0.319958
2.60185
-0.301196
2.14382
-0.278272
1.76353
-0.241467
1.40199
-0.179427
1.00272
-0.100181
0.568745
-0.03714
0.218439
-0.00750156
0.0516278
0.000361522
-0.0345065
0.297608
-0.0989637
0.692469
-0.157939
1.01922
-0.206658
1.30243
-0.251447
1.57098
-0.291529
1.84533
-0.329435
2.13415
-0.364344
2.47033
-0.392457
2.85452
-0.411077
3.29644
-0.415893
3.18696
-0.409114
2.59507
-0.396983
2.13169
-0.371367
1.73792
-0.315147
1.34577
-0.221776
0.909352
-0.11395
0.460919
-0.041008
0.145497
-0.00875795
0.0193778
-0.00839643
-0.0126025
0.310211
-0.0479911
0.727857
-0.0907903
1.06202
-0.131161
1.3428
-0.171242
1.61106
-0.207721
1.88181
-0.242268
2.1687
-0.272785
2.50085
-0.296248
2.87798
-0.307694
3.30789
-0.302776
3.18204
-0.291626
2.58392
-0.273303
2.11337
-0.242074
1.70669
-0.193299
1.29699
-0.124289
0.840342
-0.056688
0.393318
-0.0212975
0.110107
-0.00486448
0.00294481
-0.0132609
-0.000324693
0.310535
-0.0240049
0.751537
-0.0539761
1.09199
-0.0855786
1.3744
-0.118826
1.6443
-0.150806
1.91379
-0.180473
2.19837
-0.206002
2.52638
-0.223876
2.89585
-0.229577
3.31359
-0.222685
3.17515
-0.206693
2.56793
-0.185079
2.09175
-0.157881
1.67949
-0.115114
1.25423
-0.0623241
0.787552
-0.0247462
0.35574
-0.0107066
0.096067
-0.00310336
-0.00465844
-0.0163643
0.00114859
0.309387
-0.014011
0.766697
-0.0353044
1.11329
-0.0595165
1.39861
-0.0856336
1.67042
-0.112609
1.94077
-0.138313
2.22407
-0.15998
2.54804
-0.174136
2.91001
-0.176317
3.31577
-0.1651
3.16393
-0.146398
2.54923
-0.122589
2.06794
-0.0897579
1.64666
-0.0542234
1.21869
-0.0228327
0.756161
-0.00691688
0.339824
-0.00395214
0.0931022
-0.00189209
-0.0067185
-0.0182564
0.00520619
0.30418
-0.00254446
0.774448
-0.0212189
1.13196
-0.043269
1.42066
-0.0662072
1.69336
-0.0888006
1.96336
-0.110041
2.24531
-0.127733
2.56574
-0.138494
2.92077
-0.137347
3.31462
-0.123302
3.14989
-0.101388
2.52731
-0.0741163
2.04067
-0.0479056
1.62045
-0.0186522
1.18944
0.0043842
0.733125
0.00777614
0.336432
0.00332059
0.0975578
0.000278716
-0.00367663
-0.0179777
0.00511781
0.299063
-0.000903828
0.780469
-0.0164025
1.14746
-0.0342521
1.43851
-0.05329
1.7124
-0.0728167
1.98289
-0.0915964
2.26409
-0.107217
2.58136
-0.115929
2.92948
-0.112773
3.31147
-0.0971186
3.13423
-0.0750562
2.50525
-0.0498296
2.01544
-0.0196015
1.59022
0.00509647
1.16474
0.0171033
0.721118
0.0158072
0.337728
0.0077777
0.105587
0.00181122
0.00228985
-0.0161664
0.00526772
0.293795
0.00181039
0.783927
-0.0111193
1.16039
-0.0280528
1.45545
-0.0459054
1.73025
-0.0635632
2.00054
-0.0801482
2.28068
-0.0936469
2.59486
-0.100677
2.93651
-0.0970599
3.30785
-0.0810625
3.11824
-0.0568988
2.48109
-0.030269
1.98881
-0.00846257
1.56841
0.0112964
1.14498
0.0226782
0.709736
0.018435
0.341971
0.00943259
0.11459
0.00242828
0.00929417
-0.0137382
0.00276734
0.291028
-0.000335071
0.787029
-0.0115777
1.17163
-0.0259143
1.46978
-0.0416196
1.74596
-0.0576861
2.01661
-0.0730907
2.29608
-0.0858398
2.6076
-0.0925656
2.94324
-0.0887539
3.30404
-0.0725059
3.10199
-0.0509302
2.45951
-0.0283445
1.96623
-0.00199429
1.54206
0.0165182
1.12647
0.0227974
0.703457
0.0188542
0.345915
0.00990101
0.123543
0.00270902
0.0164862
-0.0110291
0.00208251
0.288945
-0.000133838
0.789245
-0.0105744
1.18207
-0.0241628
1.48337
-0.0393697
1.76116
-0.054607
2.03185
-0.0691548
2.31063
-0.0812786
2.61973
-0.0881127
2.95007
-0.085366
3.30129
-0.0701022
3.08672
-0.0476063
2.43701
-0.0231022
1.94172
-0.00463761
1.5236
0.011932
1.1099
0.0210586
0.69433
0.0170311
0.349942
0.00924842
0.131325
0.00265082
0.0230838
-0.00837833
-0.00047716
0.289422
-0.00416412
0.792932
-0.0131368
1.19105
-0.0249669
1.4952
-0.0387361
1.77493
-0.0530918
2.0462
-0.0672524
2.32479
-0.0797458
2.63222
-0.0874843
2.95781
-0.0853703
3.29918
-0.0702714
3.07162
-0.0510913
2.41783
-0.0316316
1.92227
-0.00786573
1.49983
0.00906221
1.09297
0.015118
0.688275
0.0136195
0.351441
0.00758533
0.13736
0.00228975
0.0283793
-0.00608858
-0.000721272
0.290143
-0.00459583
0.796807
-0.0134771
1.19993
-0.0250431
1.50677
-0.0384979
1.78839
-0.0524983
2.0602
-0.066617
2.33891
-0.0792627
2.64487
-0.0874894
2.96604
-0.0872815
3.29897
-0.0748631
3.05921
-0.0549851
2.39796
-0.032474
1.89975
-0.0154545
1.48281
0.00030601
1.07721
0.0101069
0.678474
0.00953466
0.352013
0.00575681
0.141137
0.00185448
0.0322817
-0.0042341
-0.00228305
0.292427
-0.00766434
0.802188
-0.0160322
1.20829
-0.0266295
1.51736
-0.039172
1.80093
-0.0527006
2.07373
-0.0666461
2.35285
-0.0797049
2.65793
-0.0893583
2.97569
-0.0910371
3.30065
-0.079314
3.04748
-0.0621452
2.38079
-0.0440517
1.88166
-0.0214799
1.46024
-0.00480735
1.06054
0.0028284
0.670838
0.00563082
0.34921
0.00379521
0.142973
0.00137811
0.0346988
-0.00285599
-0.003363
0.29579
-0.00799727
0.806822
-0.0163415
1.21664
-0.0270032
1.52803
-0.0394064
1.81333
-0.0526643
2.08699
-0.0666932
2.36688
-0.0802916
2.67152
-0.0911359
2.98653
-0.0951414
3.30465
-0.0869551
3.0393
-0.0698362
2.36367
-0.0466208
1.85845
-0.0291319
1.44275
-0.013106
1.04451
-0.00111202
0.658844
0.00216038
0.345938
0.0023097
0.142824
0.00096979
0.0360387
-0.0018862
-0.00403966
0.299829
-0.0100418
0.812825
-0.0182745
1.22487
-0.0282666
1.53802
-0.0400383
1.8251
-0.0529875
2.09994
-0.066968
2.38086
-0.0810878
2.68564
-0.0934352
2.99888
-0.0995594
3.31078
-0.0931686
3.03291
-0.077408
2.34791
-0.0585742
1.83961
-0.0341244
1.4183
-0.015448
1.02584
-0.00530027
0.648696
-0.000131572
0.340769
0.00103359
0.141659
0.000694376
0.0363779
-0.00119182
-0.00402426
0.303853
-0.0098629
0.818663
-0.0181549
1.23316
-0.0282242
1.54809
-0.0399185
1.8368
-0.0526612
2.11268
-0.0667893
2.39499
-0.0815257
2.70038
-0.0951431
3.0125
-0.104017
3.31965
-0.101823
3.03071
-0.0867752
2.33286
-0.0617194
1.81456
-0.0398178
1.3964
-0.0197692
1.00579
-0.00558213
0.634509
-0.000665817
0.335853
0.000413863
0.140579
-0.000286455
0.0370782
-0.00147828
-0.00420654
0.30806
-0.0110378
0.825495
-0.0192672
1.24139
-0.0287941
1.55761
-0.0400026
1.84801
-0.0525608
2.12524
-0.0666914
2.40912
-0.0818352
2.71552
-0.0967567
3.02742
-0.107747
3.33064
-0.107206
3.03017
-0.0940016
2.31966
-0.0739118
1.79447
-0.0435593
1.36605
-0.0176176
0.979845
-0.00320788
0.620099
0.00462964
0.328016
0.00531427
0.139894
0.00268977
0.0397027
0.00121149
-0.00411004
0.31217
-0.0105459
0.83193
-0.0186496
1.2495
-0.0282204
1.56718
-0.0393602
1.85915
-0.0517265
2.13761
-0.0659192
2.42331
-0.0815609
2.73117
-0.0976388
3.0435
-0.111208
3.34421
-0.115341
3.0343
-0.104163
2.30848
-0.0778573
1.76816
-0.0485331
1.33672
-0.0172673
0.948579
0.00615453
0.596678
0.0139795
0.320191
0.00757661
0.146297
-0.00174477
0.0490241
-0.000533283
-0.00425598
0.316426
-0.0111998
0.838874
-0.0191251
1.25742
-0.0281849
1.57624
-0.0388594
1.86982
-0.0510364
2.14978
-0.0651784
2.43746
-0.0810835
2.74707
-0.0981465
3.06056
-0.113486
3.35955
-0.119704
3.04052
-0.111146
2.29992
-0.0911526
1.74817
-0.0533363
1.29891
-0.0114134
0.906656
0.0213918
0.563872
0.0444013
0.297181
0.0492884
0.14141
0.029667
0.0686454
0.0291338
-0.00411316
0.320539
-0.0105269
0.845288
-0.0181983
1.26509
-0.0272121
1.58526
-0.0377477
1.88036
-0.049675
2.16171
-0.0637435
2.45152
-0.079972
2.7633
-0.097936
3.07853
-0.115576
3.37719
-0.126196
3.05114
-0.121565
2.29529
-0.0969749
1.72358
-0.0608399
1.26277
-0.0114333
0.85725
0.0353506
0.517088
0.0687621
0.26377
0.0561718
0.154
0.0242935
0.100524
0.0534273
-0.00408498
0.324624
-0.0108098
0.852013
-0.0182588
1.27254
-0.0267295
1.59373
-0.0367944
1.89042
-0.0484797
2.1734
-0.0624343
2.46548
-0.0787825
2.77965
-0.0973896
3.09713
-0.116399
3.3962
-0.128204
3.06295
-0.127648
2.29473
-0.112486
1.70842
-0.0716359
1.22192
-0.0149544
0.800568
0.0552753
0.446859
0.149729
0.169316
0.21018
0.0935487
0.187397
0.123307
0.240825
-0.00392837
0.328552
-0.010207
0.858291
-0.0175732
1.27991
-0.0262642
1.60242
-0.0366738
1.90083
-0.0487925
2.18552
-0.0636253
2.48031
-0.0815944
2.79762
-0.102877
3.11841
-0.126567
3.41989
-0.145211
3.08159
-0.150949
2.30047
-0.132858
1.69032
-0.0950121
1.18407
-0.0278817
0.733438
0.031999
0.386978
-0.0390265
0.240342
-0.351637
0.406159
-0.94616
0.71783
0.902723
-1.60806
-0.00383743
0.33239
-0.0103816
0.864836
-0.0176321
1.28716
-0.0259863
1.61077
-0.0361536
1.911
-0.0484107
2.19777
-0.0637279
2.49563
-0.0826524
2.81654
-0.105765
3.14153
-0.13259
3.44672
-0.155139
3.10414
-0.165793
2.31113
-0.166167
1.6907
-0.13378
1.15169
-0.0949727
0.694631
-0.199915
0.49192
-0.693985
0.734412
-1.45698
1.16916
-2.06094
1.32179
1.21533
-2.37355
-0.00360584
0.335996
-0.0095799
0.87081
-0.0165665
1.29415
-0.0249425
1.61915
-0.0351737
1.92123
-0.0475306
2.21013
-0.0632327
2.51133
-0.0831206
2.83643
-0.108208
3.16661
-0.139316
3.47782
-0.169624
3.13445
-0.189559
2.33106
-0.189552
1.69069
-0.165981
1.12812
-0.251985
0.780635
-0.752805
0.99274
-1.56283
1.54444
-2.11853
1.72485
-2.3554
1.55866
1.32867
-2.46873
-0.00351081
0.339507
-0.00952898
0.876828
-0.0163294
1.30095
-0.0243287
1.62715
-0.0342554
1.93116
-0.0466772
2.22255
-0.0627733
2.52743
-0.0835192
2.85718
-0.110395
3.19349
-0.144875
3.51231
-0.180154
3.16973
-0.207195
2.3581
-0.226828
1.71032
-0.29748
1.19877
-0.671548
1.1547
-1.44884
1.77003
-2.03306
2.12865
-2.27116
1.96296
-2.38337
1.67087
1.3918
-2.4465
-0.00319812
0.342705
-0.00856892
0.882199
-0.0150011
1.30738
-0.0229354
1.63508
-0.0329235
1.94114
-0.0453851
2.23501
-0.0617247
2.54377
-0.083258
2.87871
-0.111983
3.22221
-0.15082
3.55114
-0.19503
3.21394
-0.235006
2.39808
-0.268876
1.74419
-0.451727
1.38162
-1.09824
1.80121
-1.79583
2.46763
-2.11113
2.44395
-2.2579
2.10973
-2.33958
1.75255
1.45798
-2.40577
-0.00320792
0.345913
-0.00883279
0.887823
-0.0153261
1.31387
-0.0231365
1.64289
-0.0331817
1.95119
-0.0459565
2.24779
-0.0628995
2.56071
-0.085449
2.90126
-0.116029
3.25279
-0.158307
3.59342
-0.208116
3.26375
-0.250913
2.44087
-0.335149
1.82843
-0.735873
1.78235
-1.4947
2.56004
-1.96322
2.93614
-2.16273
2.64346
-2.26849
2.21549
-2.34575
1.82981
1.52105
-2.40881
-0.00326341
0.349176
-0.00875442
0.893314
-0.0155062
1.32062
-0.023949
1.65134
-0.0347194
1.96196
-0.0481801
2.26125
-0.0659566
2.57849
-0.0897876
2.92509
-0.122554
3.28556
-0.169408
3.64027
-0.225887
3.32022
-0.285239
2.50023
-0.4706
2.01379
-1.04515
2.3569
-1.68106
3.19595
-1.95226
3.20735
-2.09843
2.78963
-2.21227
2.32933
-2.30599
1.92354
1.58256
-2.3675
-0.00340608
0.352582
-0.00969585
0.899604
-0.0169844
1.32791
-0.0256593
1.66001
-0.0366881
1.97299
-0.0507701
2.27533
-0.0695272
2.59724
-0.0947496
2.95031
-0.129587
3.3204
-0.179997
3.69068
-0.24108
3.38131
-0.32403
2.58318
-0.60759
2.29735
-1.26377
3.01308
-1.74994
3.68212
-1.95699
3.41439
-2.09604
2.92868
-2.22001
2.45329
-2.3301
2.03363
1.64125
-2.38879
-0.00333897
0.355921
-0.00933625
0.905601
-0.0169294
1.3355
-0.0264435
1.66953
-0.0383877
1.98493
-0.0532636
2.29021
-0.0729137
2.61689
-0.0994506
2.97685
-0.13645
3.3574
-0.19083
3.74506
-0.258429
3.44891
-0.381619
2.70637
-0.770302
2.68603
-1.40965
3.65243
-1.75917
4.03163
-1.93153
3.58676
-2.03308
3.03022
-2.12177
2.54199
-2.18831
2.10017
1.63383
-2.1809
-0.00336751
0.359289
-0.0103772
0.912611
-0.0186496
1.34378
-0.0283539
1.67923
-0.0405053
1.99708
-0.0560022
2.3057
-0.0766851
2.63758
-0.104675
3.00484
-0.143685
3.39641
-0.200123
3.8015
-0.276774
3.52556
-0.445874
2.87547
-0.902484
3.14264
-1.45955
4.20949
-1.71978
4.29186
-1.87092
3.7379
-1.9646
3.1239
-1.9652
2.54258
-1.89512
2.0301
1.59581
-1.85711
-0.00314456
0.362433
-0.00953521
0.919002
-0.017991
1.35223
-0.028624
1.68986
-0.04176
2.01022
-0.0579163
2.32186
-0.0790442
2.6587
-0.107463
3.03326
-0.147129
3.43607
-0.203962
3.85834
-0.289356
3.61095
-0.492951
3.07906
-0.985866
3.63556
-1.42586
4.64948
-1.59012
4.45613
-1.65669
3.80447
-1.66107
3.12828
-1.51351
2.39502
-1.0144
1.53099
0.581416
-0.00276045
0.365194
-0.010496
0.926737
-0.0198115
1.36155
-0.0306511
1.7007
-0.0441729
2.02374
-0.0614287
2.33912
-0.0844826
2.68176
-0.115757
3.06453
-0.159432
3.47975
-0.222175
3.92108
-0.324191
3.71297
-0.578168
3.33304
-1.1206
4.17799
-1.4776
5.00648
-1.57631
4.55484
-1.57447
3.80263
-1.47103
3.02483
-1.23241
2.15641
-0.629798
0.928376
-0.0483815
-0.00247014
0.367664
-0.00879719
0.933064
-0.0180769
1.37083
-0.0302524
1.71288
-0.0454926
2.03898
-0.0643942
2.35802
-0.0893362
2.7067
-0.123206
3.0984
-0.171303
3.52785
-0.241354
3.99113
-0.364241
3.83586
-0.67838
3.64718
-1.23886
4.73846
-1.4973
5.26492
-1.55624
4.61379
-1.53407
3.78046
-1.3325
2.82327
-0.780488
1.60439
-0.108342
0.256231
-0.156724
-0.00149732
0.369161
-0.00940649
0.940974
-0.0196412
1.38106
-0.0318115
1.72505
-0.0470746
2.05425
-0.0668445
2.37779
-0.0936838
2.73354
-0.130603
3.13532
-0.182483
3.57973
-0.259473
4.06812
-0.407513
3.98389
-0.779911
4.01958
-1.31553
5.27408
-1.49169
5.44108
-1.52236
4.64446
-1.43459
3.69269
-1.09884
2.48751
-0.312327
0.817885
0.0247528
-0.0808491
-0.131971
-0.00097203
0.370133
-0.00622101
0.946223
-0.015863
1.3907
-0.0294809
1.73867
-0.0466797
2.07144
-0.0682734
2.39938
-0.0970554
2.76232
-0.136282
3.17455
-0.191408
3.63485
-0.278105
4.15482
-0.452914
4.1587
-0.890734
4.4574
-1.36097
5.74432
-1.47572
5.55582
-1.479
4.64775
-1.25543
3.46912
-0.684905
1.91699
-0.0630528
0.196032
0.0300189
-0.173921
-0.101952
0.000104506
0.370029
-0.00595956
0.952287
-0.0163966
1.40114
-0.0297244
1.75199
-0.0462304
2.08795
-0.0682785
2.42143
-0.0985652
2.79261
-0.140381
3.21636
-0.198473
3.69294
-0.2933
4.24964
-0.494015
4.35942
-0.981448
4.94483
-1.35428
6.11715
-1.42031
5.62185
-1.37411
4.60154
-1.08609
3.1811
-0.323203
1.1541
0.00349999
-0.130671
0.0141969
-0.184618
-0.0877552
0.00327969
0.366749
0.000945204
0.954621
-0.00909862
1.41119
-0.0238768
1.76677
-0.042291
2.10636
-0.0663522
2.44549
-0.0983977
2.82465
-0.141817
3.25978
-0.202919
3.75405
-0.306992
4.35372
-0.533439
4.58587
-1.04479
5.45618
-1.32044
6.39281
-1.35896
5.66036
-1.2203
4.46289
-0.7706
2.7314
-0.0698072
0.453311
0.0436515
-0.244129
0.023762
-0.164728
-0.0639932
0.00426639
0.362482
0.00225519
0.956632
-0.00768848
1.42113
-0.0211303
1.78021
-0.0378516
2.12309
-0.061653
2.46929
-0.0942235
2.85722
-0.139428
3.30499
-0.202906
3.81752
-0.313831
4.46464
-0.570795
4.84283
-1.06499
5.95037
-1.25353
6.58135
-1.26486
5.67169
-1.04684
4.24487
-0.459981
2.14454
-0.0182613
0.0115913
-0.00663139
-0.255759
0.00478707
-0.176147
-0.0592061
0.00871851
0.353764
0.0106423
0.954708
0.00453161
1.42724
-0.00884993
1.7936
-0.0279162
2.14215
-0.0533929
2.49477
-0.0871371
2.89097
-0.132675
3.35052
-0.197933
3.88278
-0.316067
4.58278
-0.593093
5.11986
-1.04285
6.40013
-1.16853
6.70703
-1.15144
5.6546
-0.892036
3.98547
-0.265046
1.51755
-0.0703957
-0.183059
-0.0388573
-0.287297
-0.0144382
-0.200566
-0.0736443
0.0112727
0.342491
0.0158039
0.950177
0.0106763
1.43237
0.000652125
1.80362
-0.0169436
2.15975
-0.0403133
2.51814
-0.0727619
2.92342
-0.118393
3.39616
-0.184157
3.94854
-0.305143
4.70376
-0.591454
5.40617
-0.978491
6.78716
-1.04038
6.76892
-0.974185
5.58841
-0.676508
3.68779
-0.071794
0.912833
0.0142777
-0.26913
-0.000520469
-0.272499
-0.00198721
-0.199099
-0.0756315
0.0185139
0.323977
0.0307776
0.937914
0.0307583
1.43239
0.0202829
1.81409
0.00266304
2.17737
-0.0205994
2.5414
-0.0531446
2.95596
-0.0975522
3.44056
-0.161857
4.01285
-0.283263
4.82517
-0.560402
5.68331
-0.866127
7.09289
-0.904402
6.8072
-0.799806
5.48381
-0.441548
3.32953
0.0684321
0.402853
0.0798247
-0.280523
0.0596295
-0.252304
0.0221858
-0.161655
-0.0534457
0.0242205
0.299757
0.0422607
0.919873
0.0452076
1.42944
0.0388392
1.82046
0.0271457
2.18906
0.00669566
2.56185
-0.0221665
2.98482
-0.0634032
3.4818
-0.124569
4.07402
-0.239298
4.9399
-0.487643
5.93165
-0.709345
7.31459
-0.732392
6.83024
-0.634237
5.38566
-0.300604
2.9959
0.00909644
0.0931518
0.0246462
-0.296073
0.035427
-0.263085
0.0168037
-0.143032
-0.0366419
0.0351882
0.264569
0.0660388
0.889023
0.0785453
1.41693
0.0760773
1.82293
0.0652524
2.19989
0.0456836
2.58142
0.0180855
3.01242
-0.0203757
3.52026
-0.0754615
4.1291
-0.175185
5.03962
-0.375037
6.1315
-0.529043
7.4686
-0.555337
6.85654
-0.460602
5.29092
-0.192755
2.72805
-0.0761079
-0.0234955
-0.0530619
-0.319119
-0.0191356
-0.297011
-0.000160909
-0.162007
-0.0368028
0.0446825
0.219886
0.0873068
0.846398
0.107471
1.39677
0.112375
1.81803
0.108962
2.2033
0.0959024
2.59448
0.0757985
3.03253
0.044581
3.55148
-0.00635367
4.18004
-0.0804326
5.1137
-0.218506
6.26958
-0.308158
7.55825
-0.317492
6.86587
-0.257962
5.23139
-0.102505
2.5726
-0.11285
-0.0131506
-0.0898165
-0.342152
-0.0542474
-0.33258
-0.0152011
-0.201053
-0.0520039
0.0580418
0.161845
0.121521
0.782919
0.160035
1.35825
0.173777
1.80429
0.174131
2.20294
0.163724
2.60489
0.147953
3.0483
0.124575
3.57486
0.0892961
4.21532
0.0400977
5.1629
-0.013096
6.32277
-0.043491
7.58864
-0.042993
6.86537
-0.00264267
5.19104
0.0422139
2.52774
-0.107991
0.137054
-0.115953
-0.33419
-0.0741572
-0.374376
-0.0115053
-0.263705
-0.0635092
0.0598022
0.102042
0.151184
0.691537
0.208391
1.30105
0.236089
1.77659
0.248399
2.19063
0.248636
2.60465
0.242957
3.05398
0.231456
3.58636
0.212529
4.23424
0.190706
5.18472
0.231712
6.28176
0.28587
7.53448
0.322721
6.82852
0.281653
5.23211
0.110793
2.6986
-0.142429
0.390276
-0.21493
-0.261689
-0.151373
-0.437933
-0.042323
-0.372755
-0.105832
0.0490329
0.0530095
0.184731
0.555838
0.282839
1.20294
0.331105
1.72832
0.351809
2.16993
0.359627
2.59683
0.357903
3.0557
0.358654
3.58561
0.360349
4.23255
0.372777
5.17229
0.521437
6.1331
0.658071
7.39785
0.659023
6.82757
0.438672
5.45246
-0.0539427
3.19121
-0.427953
0.764286
-0.485172
-0.20447
-0.378823
-0.544282
-0.187486
-0.564092
-0.293319
0.0341816
0.0188279
0.219031
0.370989
0.348263
1.07371
0.427463
1.64912
0.469553
2.12784
0.494002
2.57238
0.503821
3.04588
0.517645
3.57178
0.540281
4.20991
0.591292
5.12128
0.807731
5.91667
1.12968
7.0759
1.25983
6.69742
1.26178
5.45051
0.765094
3.6879
0.0266304
1.50275
-0.399337
0.221497
-0.500866
-0.442752
-0.279901
-0.785057
-0.57322
0.0303934
-0.0115655
0.233362
0.168021
0.451445
0.855626
0.571315
1.52925
0.626294
2.07286
0.657768
2.54091
0.67712
3.02653
0.701045
3.54786
0.748196
4.16276
0.847265
5.02221
1.17446
5.58948
1.74677
6.50359
2.08655
6.35764
2.34356
5.19351
2.25146
3.77999
1.46825
2.28596
0.740762
0.948989
0.226024
0.0719858
-0.00863983
-0.550393
-0.581859
0.0228819
-0.0344474
0.154907
0.0359959
0.493995
0.516538
0.694795
1.32845
0.800805
1.96685
0.856314
2.4854
0.893857
2.98899
0.918466
3.52325
0.980767
4.10046
1.10701
4.89597
1.48294
5.21355
2.2469
5.73963
2.62981
5.97473
2.80873
5.01458
2.6597
3.92902
2.16147
2.78419
1.51002
1.60045
0.942145
0.639858
0.359589
0.0321627
-0.222271
0.00154196
-0.0359893
0.0756131
-0.0380753
0.407883
0.184268
0.721529
1.0148
0.868325
1.82006
0.905428
2.4483
0.913543
2.98087
0.898161
3.53863
0.896964
4.10166
0.932765
4.86017
1.09498
5.05134
1.53894
5.29567
1.71314
5.80053
1.75658
4.97115
1.66804
4.01755
1.41356
3.03867
1.00428
2.00973
0.58393
1.06021
0.246576
0.369516
0.0243059
0.00393472
-0.0399241
0.0420638
-0.0762044
0.203766
0.0225657
0.549684
0.668886
0.734745
1.63499
0.803893
2.37915
0.816371
2.96839
0.80909
3.54591
0.790912
4.11983
0.81008
4.841
0.892639
4.96878
1.20355
4.98476
1.38568
5.6184
1.40293
4.9539
1.34668
4.07381
1.18297
3.20237
0.893847
2.29886
0.563629
1.39043
0.233902
0.699243
0.258208
-1.62747e-05
-0.0399078
0.0104764
-0.086697
0.0781116
-0.0450695
0.378248
0.368749
0.591193
1.42205
0.68996
2.28038
0.714212
2.94414
0.713597
3.54653
0.685004
4.14843
0.679643
4.84636
0.70972
4.9387
0.900062
4.79442
1.07452
5.44394
1.07624
4.95218
1.02249
4.12755
0.89852
3.32634
0.689482
2.50789
0.428067
1.65184
0.174182
0.953128
0.432391
-0.00489119
-0.0350166
-0.00367967
-0.0879086
0.0304433
-0.0791925
0.239744
0.159449
0.470478
1.19132
0.572541
2.17832
0.598455
2.91823
0.599913
3.54507
0.572301
4.17604
0.548674
4.86999
0.552604
4.93477
0.661594
4.68542
0.802453
5.30308
0.792842
4.9618
0.735621
4.18477
0.639203
3.42276
0.491035
2.65606
0.30099
1.84189
0.115396
1.13872
0.547787
0.000713927
-0.0357305
0.0121534
-0.0993481
0.0445123
-0.111551
0.154363
0.0495977
0.355617
0.990062
0.471027
2.06291
0.49885
2.8904
0.49261
3.55131
0.465955
4.20269
0.438346
4.8976
0.423286
4.94983
0.48407
4.62464
0.579997