/*--------------------------------*- C++ -*----------------------------------*\
  =========                 |
  \\      /  F ield         | OpenFOAM: The Open Source CFD Toolbox
   \\    /   O peration     | Website:  https://openfoam.org
    \\  /    A nd           | Version:  10
     \\/     M anipulation  |
\*---------------------------------------------------------------------------*/
FoamFile
{
    format      ascii;
    class       volVectorField;
    location    "71";
    object      U;
}
// * * * * * * * * * * * * * * * * * * * * * * * * * * * * * * * * * * * * * //

dimensions      [0 1 -1 0 0 0 0];

internalField   nonuniform List<vector> 
2200
(
(0.878837 -0.0304121 0)
(1.00578 -0.0512788 0)
(1.00327 -0.035399 0)
(1.00023 -0.024433 0)
(0.99985 -0.0166521 0)
(1.00003 -0.010719 0)
(1.00003 -0.00682944 0)
(0.999976 -0.00416535 0)
(0.999865 -0.00216546 0)
(1.00018 -0.000640837 0)
(0.999984 0.00119017 0)
(1.00031 0.0027109 0)
(1.00038 0.00452491 0)
(1.00025 0.00713001 0)
(1.00005 0.0108459 0)
(0.999971 0.016668 0)
(1.00031 0.0243812 0)
(1.00346 0.0348714 0)
(1.00598 0.0513821 0)
(0.879043 0.0302966 0)
(0.712028 -0.03276 0)
(0.996646 -0.0630035 0)
(1.03333 -0.0561331 0)
(1.02495 -0.0464096 0)
(1.01592 -0.0361059 0)
(1.00965 -0.0263653 0)
(1.00593 -0.0181184 0)
(1.00383 -0.0114457 0)
(1.00275 -0.00607838 0)
(1.00231 -0.00165956 0)
(1.00219 0.00245678 0)
(1.00218 0.00693004 0)
(1.00323 0.0123893 0)
(1.00552 0.0189212 0)
(1.00944 0.0272318 0)
(1.01555 0.036976 0)
(1.02464 0.0474695 0)
(1.03315 0.057988 0)
(0.996698 0.0631491 0)
(0.711785 0.0330357 0)
(0.535582 -0.0238899 0)
(0.969935 -0.0569171 0)
(1.05643 -0.0547175 0)
(1.05221 -0.0487144 0)
(1.03623 -0.040372 0)
(1.02448 -0.0321926 0)
(1.0159 -0.0239128 0)
(1.01029 -0.015979 0)
(1.00692 -0.00864311 0)
(1.00532 -0.00188526 0)
(1.00533 0.00437545 0)
(1.00723 0.0109276 0)
(1.01049 0.0177849 0)
(1.01574 0.0255186 0)
(1.02404 0.0334824 0)
(1.03607 0.0414529 0)
(1.05215 0.0494441 0)
(1.05629 0.0533196 0)
(0.96918 0.0576619 0)
(0.534331 0.0239444 0)
(0.392428 -0.0136381 0)
(0.911924 -0.0463687 0)
(1.05756 -0.0468266 0)
(1.06967 -0.0442718 0)
(1.05494 -0.0381194 0)
(1.03936 -0.0314479 0)
(1.02763 -0.0246382 0)
(1.01926 -0.0174545 0)
(1.01407 -0.00998844 0)
(1.01151 -0.00251497 0)
(1.01129 0.00513284 0)
(1.01308 0.0125362 0)
(1.01802 0.0199592 0)
(1.02653 0.0267325 0)
(1.03848 0.0331396 0)
(1.05396 0.0395706 0)
(1.06819 0.0456407 0)
(1.05546 0.0482995 0)
(0.909883 0.0469933 0)
(0.389871 0.0137801 0)
(0.307845 -0.00451072 0)
(0.846833 -0.032361 0)
(1.04941 -0.0398937 0)
(1.07945 -0.0381167 0)
(1.06824 -0.033433 0)
(1.05176 -0.027795 0)
(1.03831 -0.0223922 0)
(1.02794 -0.0162712 0)
(1.02067 -0.00928388 0)
(1.01664 -0.00152346 0)
(1.01658 0.00620765 0)
(1.02059 0.0134931 0)
(1.02758 0.0197522 0)
(1.03733 0.0254924 0)
(1.05018 0.0304486 0)
(1.06662 0.0357851 0)
(1.07767 0.040127 0)
(1.04719 0.0417996 0)
(0.842855 0.0330035 0)
(0.30363 0.00474376 0)
(0.264501 0.000105743 0)
(0.789305 -0.0200436 0)
(1.03367 -0.031406 0)
(1.0838 -0.031956 0)
(1.07745 -0.0286622 0)
(1.06092 -0.023776 0)
(1.04736 -0.0192661 0)
(1.03664 -0.0142091 0)
(1.02903 -0.00820625 0)
(1.02467 -0.00127921 0)
(1.02408 0.00620709 0)
(1.02723 0.0130019 0)
(1.03426 0.0188356 0)
(1.04493 0.0232874 0)
(1.0586 0.0272133 0)
(1.07484 0.0315977 0)
(1.08027 0.0343252 0)
(1.02909 0.0334022 0)
(0.782424 0.020775 0)
(0.258574 0.00012793 0)
(0.240579 0.00107248 0)
(0.738651 -0.0122536 0)
(1.01383 -0.0249252 0)
(1.0841 -0.0266717 0)
(1.08312 -0.0243487 0)
(1.06793 -0.0201514 0)
(1.05431 -0.0161236 0)
(1.04326 -0.0115059 0)
(1.03482 -0.00601171 0)
(1.02964 0.00048346 0)
(1.02937 0.00711052 0)
(1.0339 0.01287 0)
(1.04162 0.0174133 0)
(1.05174 0.0214164 0)
(1.06466 0.024789 0)
(1.07936 0.028237 0)
(1.07983 0.0297897 0)
(1.00737 0.0273005 0)
(0.7286 0.0131725 0)
(0.23286 -0.000830807 0)
(0.226371 0.000966072 0)
(0.696061 -0.00800017 0)
(0.993572 -0.0206501 0)
(1.08259 -0.0229799 0)
(1.08711 -0.0211192 0)
(1.07356 -0.0175794 0)
(1.0601 -0.0137613 0)
(1.0496 -0.00950994 0)
(1.04185 -0.00456632 0)
(1.03708 0.00105957 0)
(1.03601 0.00709191 0)
(1.03898 0.0125237 0)
(1.04565 0.0169693 0)
(1.05571 0.0202916 0)
(1.06914 0.0232571 0)
(1.08183 0.0259455 0)
(1.07546 0.026919 0)
(0.983007 0.0235387 0)
(0.681379 0.00916766 0)
(0.216351 -0.000705069 0)
(0.216818 0.000628723 0)
(0.660643 -0.00563036 0)
(0.972944 -0.0175308 0)
(1.07972 -0.0200724 0)
(1.09042 -0.0184397 0)
(1.07841 -0.0152035 0)
(1.06502 -0.0114825 0)
(1.05444 -0.00716894 0)
(1.04624 -0.0022651 0)
(1.04082 0.00318022 0)
(1.04012 0.00851472 0)
(1.04395 0.0130578 0)
(1.05074 0.0166274 0)
(1.06004 0.019916 0)
(1.07239 0.022596 0)
(1.08323 0.0247605 0)
(1.07071 0.0251588 0)
(0.958866 0.021128 0)
(0.641141 0.00712067 0)
(0.204174 -0.000327282 0)
(0.209792 0.000305553 0)
(0.63245 -0.0041597 0)
(0.954457 -0.0148779 0)
(1.07698 -0.0177489 0)
(1.09379 -0.0163915 0)
(1.08324 -0.0134625 0)
(1.06974 -0.00983912 0)
(1.05925 -0.00580659 0)
(1.05158 -0.00116816 0)
(1.04676 0.003887 0)
(1.04512 0.00910595 0)
(1.04717 0.013656 0)
(1.053 0.0174285 0)
(1.06236 0.0200863 0)
(1.0754 0.0224441 0)
(1.08421 0.0241056 0)
(1.06354 0.024059 0)
(0.933883 0.0192844 0)
(0.605966 0.0059913 0)
(0.19361 5.09612e-05 0)
(0.204 9.39845e-05 0)
(0.609205 -0.00310145 0)
(0.936494 -0.0124305 0)
(1.07373 -0.0153964 0)
(1.09703 -0.0141818 0)
(1.08795 -0.0113185 0)
(1.07448 -0.00768184 0)
(1.06375 -0.00347444 0)
(1.05552 0.00138457 0)
(1.04981 0.00650402 0)
(1.04829 0.0111253 0)
(1.05112 0.0150804 0)
(1.05706 0.0180634 0)
(1.0659 0.0208045 0)
(1.07771 0.0228597 0)
(1.0844 0.0240778 0)
(1.05667 0.0232998 0)
(0.909837 0.0177911 0)
(0.575418 0.00535756 0)
(0.183853 0.000334888 0)
(0.199625 2.30138e-05 0)
(0.591423 -0.00221362 0)
(0.921521 -0.0100703 0)
(1.07117 -0.0131493 0)
(1.10065 -0.0120356 0)
(1.09297 -0.00928912 0)
(1.07927 -0.0056731 0)
(1.06821 -0.00177282 0)
(1.0598 0.00262433 0)
(1.05425 0.00746929 0)
(1.05186 0.0126383 0)
(1.05316 0.0166937 0)
(1.05842 0.0198092 0)
(1.0675 0.0217076 0)
(1.08 0.0234047 0)
(1.08406 0.0242081 0)
(1.04734 0.0228505 0)
(0.88493 0.0166399 0)
(0.547424 0.00500112 0)
(0.17423 0.000506033 0)
(0.196113 3.5577e-05 0)
(0.576828 -0.00151074 0)
(0.907094 -0.00795798 0)
(1.06836 -0.0108588 0)
(1.10421 -0.00970965 0)
(1.09804 -0.00690059 0)
(1.08438 -0.00327244 0)
(1.07302 0.000910364 0)
(1.06417 0.00583628 0)
(1.05783 0.0111673 0)
(1.0551 0.0154605 0)
(1.0567 0.0188899 0)
(1.062 0.0212464 0)
(1.07045 0.0232244 0)
(1.08126 0.0244225 0)
(1.08319 0.0247831 0)
(1.03797 0.0228047 0)
(0.860467 0.0158565 0)
(0.521785 0.0048641 0)
(0.164838 0.000597113 0)
(0.194203 7.35432e-05 0)
(0.566743 -0.000679756 0)
(0.896195 -0.0057041 0)
(1.06642 -0.00829248 0)
(1.10806 -0.00695251 0)
(1.10326 -0.00400772 0)
(1.08946 -0.000167824 0)
(1.07771 0.00383083 0)
(1.06826 0.00824728 0)
(1.06106 0.0127475 0)
(1.05745 0.0175668 0)
(1.05805 0.021231 0)
(1.06263 0.0235659 0)
(1.07141 0.0247024 0)
(1.08238 0.0256383 0)
(1.08101 0.0255153 0)
(1.02578 0.0229866 0)
(0.834694 0.0153835 0)
(0.496895 0.0048129 0)
(0.155346 0.000628247 0)
(0.193497 0.000109622 0)
(0.559496 -0.000156894 0)
(0.886339 -0.00366769 0)
(1.06498 -0.00580399 0)
(1.11224 -0.00425467 0)
(1.10895 -0.00111843 0)
(1.0952 0.00276077 0)
(1.08297 0.00708228 0)
(1.07294 0.0120803 0)
(1.06555 0.0176782 0)
(1.06136 0.0219308 0)
(1.06139 0.0246706 0)
(1.06577 0.0262779 0)
(1.07372 0.0274149 0)
(1.08211 0.0277041 0)
(1.07823 0.0271014 0)
(1.01329 0.0237956 0)
(0.808777 0.0153462 0)
(0.47288 0.00491373 0)
(0.145904 0.000656359 0)
(0.194195 7.31888e-05 0)
(0.555632 0.000920185 0)
(0.880237 -0.00144876 0)
(1.06461 -0.00294552 0)
(1.11685 -0.000949481 0)
(1.11473 0.00251136 0)
(1.10076 0.00692002 0)
(1.08817 0.0115192 0)
(1.07755 0.016399 0)
(1.06844 0.0208879 0)
(1.06281 0.0251684 0)
(1.06196 0.027868 0)
(1.06539 0.0293668 0)
(1.07346 0.0298984 0)
(1.08207 0.0300838 0)
(1.07341 0.0289435 0)
(0.997505 0.0247746 0)
(0.781032 0.0155989 0)
(0.448406 0.00507398 0)
(0.136109 0.000670109 0)
(0.1965 0.00031797 0)
(0.556156 0.00159926 0)
(0.876136 0.00098816 0)
(1.0658 0.000368028 0)
(1.12225 0.00269948 0)
(1.12135 0.00645727 0)
(1.10733 0.0109649 0)
(1.09393 0.0159065 0)
(1.0822 0.0212374 0)
(1.07274 0.0269183 0)
(1.06673 0.031243 0)
(1.06487 0.0334921 0)
(1.06774 0.0341656 0)
(1.07495 0.0344783 0)
(1.07993 0.033627 0)
(1.0677 0.0317145 0)
(0.98098 0.0265906 0)
(0.752293 0.0162915 0)
(0.423549 0.00539683 0)
(0.126013 0.000699741 0)
(0.200886 0.000686644 0)
(0.559192 0.00244923 0)
(0.876933 0.00362541 0)
(1.06855 0.00373842 0)
(1.12845 0.00684243 0)
(1.1285 0.0110463 0)
(1.11405 0.0163352 0)
(1.1002 0.0218826 0)
(1.08805 0.0277083 0)
(1.07699 0.0329171 0)
(1.06813 0.0361241 0)
(1.0649 0.0379995 0)
(1.06645 0.0388127 0)
(1.07289 0.0383422 0)
(1.07848 0.0376757 0)
(1.05974 0.0350003 0)
(0.960353 0.0285636 0)
(0.720719 0.0173149 0)
(0.397052 0.00578829 0)
(0.115189 0.00071862 0)
(0.207742 0.000911692 0)
(0.566873 0.00365163 0)
(0.881412 0.00611744 0)
(1.07382 0.00815473 0)
(1.13561 0.0117957 0)
(1.13661 0.016625 0)
(1.1218 0.0222764 0)
(1.10684 0.0283667 0)
(1.09277 0.034492 0)
(1.07974 0.0401703 0)
(1.07091 0.0447779 0)
(1.06684 0.0463709 0)
(1.0679 0.0460494 0)
(1.07341 0.0451774 0)
(1.07378 0.0430609 0)
(1.05002 0.0392363 0)
(0.938306 0.0316034 0)
(0.687084 0.0187742 0)
(0.368994 0.00629566 0)
(0.103715 0.000741936 0)
(0.216288 0.00107495 0)
(0.577968 0.00489972 0)
(0.889729 0.00915908 0)
(1.08174 0.0125269 0)
(1.14437 0.0174342 0)
(1.14584 0.0231289 0)
(1.13017 0.0298859 0)
(1.11422 0.0367442 0)
(1.09938 0.043846 0)
(1.08533 0.0499711 0)
(1.07295 0.0533253 0)
(1.0662 0.0536786 0)
(1.06504 0.0533314 0)
(1.06891 0.0513823 0)
(1.07037 0.0493246 0)
(1.03758 0.0445233 0)
(0.910582 0.0348135 0)
(0.648815 0.0205255 0)
(0.338018 0.00682322 0)
(0.0912176 0.000753805 0)
(0.229129 0.00142063 0)
(0.597233 0.00686208 0)
(0.905535 0.0137247 0)
(1.09332 0.0190437 0)
(1.15504 0.024564 0)
(1.15666 0.0313001 0)
(1.13995 0.0388479 0)
(1.12238 0.0465858 0)
(1.10489 0.0539364 0)
(1.08746 0.0599932 0)
(1.07322 0.063302 0)
(1.0665 0.0642242 0)
(1.06529 0.0629586 0)
(1.06823 0.06062 0)
(1.06229 0.057102 0)
(1.02203 0.0504406 0)
(0.880296 0.0391944 0)
(0.607349 0.0226035 0)
(0.304671 0.00735983 0)
(0.077993 0.000752779 0)
(0.245048 0.00201571 0)
(0.621106 0.00866855 0)
(0.927106 0.0182255 0)
(1.10916 0.0258937 0)
(1.16799 0.0334988 0)
(1.16915 0.0414648 0)
(1.15058 0.0503801 0)
(1.13091 0.0590816 0)
(1.11141 0.0673812 0)
(1.09216 0.0738971 0)
(1.07579 0.077206 0)
(1.06525 0.0761835 0)
(1.06083 0.0736813 0)
(1.06108 0.0700434 0)
(1.05566 0.065713 0)
(1.003 0.0578974 0)
(0.842263 0.0435508 0)
(0.558864 0.0247144 0)
(0.267438 0.00776157 0)
(0.0637777 0.000728666 0)
(0.267406 0.00284351 0)
(0.654343 0.0125061 0)
(0.956101 0.0250639 0)
(1.12946 0.035547 0)
(1.18392 0.0442155 0)
(1.18392 0.0542461 0)
(1.16309 0.0644327 0)
(1.14079 0.0742468 0)
(1.11794 0.0828854 0)
(1.09464 0.0889183 0)
(1.07425 0.0907236 0)
(1.06273 0.0890634 0)
(1.05903 0.086492 0)
(1.05852 0.0824778 0)
(1.04311 0.0764378 0)
(0.97857 0.0658669 0)
(0.799681 0.0491234 0)
(0.506144 0.0269701 0)
(0.227908 0.00802605 0)
(0.0492674 0.000707321 0)
(0.299193 0.00378237 0)
(0.700709 0.0156497 0)
(0.996335 0.0334096 0)
(1.15661 0.0473074 0)
(1.20333 0.0589884 0)
(1.20061 0.0711367 0)
(1.1759 0.0830901 0)
(1.14994 0.0937495 0)
(1.12358 0.102533 0)
(1.09715 0.107803 0)
(1.07457 0.10868 0)
(1.06067 0.106022 0)
(1.05259 0.101009 0)
(1.0481 0.09479 0)
(1.03091 0.0875502 0)
(0.949459 0.0750473 0)
(0.746554 0.0539306 0)
(0.443557 0.0284332 0)
(0.18447 0.00783802 0)
(0.0342379 0.000600423 0)
(0.33609 0.00716863 0)
(0.758974 0.0251214 0)
(1.04526 0.0470343 0)
(1.18932 0.0655386 0)
(1.22676 0.0788365 0)
(1.21973 0.0939125 0)
(1.19059 0.106679 0)
(1.16068 0.117375 0)
(1.12997 0.12521 0)
(1.09902 0.129089 0)
(1.0724 0.128174 0)
(1.05535 0.122945 0)
(1.04816 0.117204 0)
(1.04272 0.11074 0)
(1.01161 0.101005 0)
(0.911344 0.0842916 0)
(0.686172 0.0595077 0)
(0.378021 0.0298231 0)
(0.141313 0.00746165 0)
(0.0208035 0.000567146 0)
(0.417011 0.010906 0)
(0.847568 0.0358084 0)
(1.11347 0.0680976 0)
(1.23076 0.0909295 0)
(1.25455 0.10721 6.10925e-34)
(1.24044 0.124516 -2.76317e-34)
(1.2046 0.137542 0)
(1.16929 0.147254 0)
(1.13379 0.153502 0)
(1.09883 0.154743 0)
(1.06916 0.15028 0)
(1.05129 0.143201 0)
(1.03988 0.135421 0)
(1.0276 0.125816 0)
(0.990419 0.113901 0)
(0.866671 0.0938007 0)
(0.611977 0.0627904 0)
(0.298432 0.0286389 0)
(0.0928387 0.00675813 0)
(0.0064599 0.000718528 0)
(0.488867 0.026077 4.42766e-20)
(0.95002 0.0608081 -3.3576e-20)
(1.1831 0.102706 0)
(1.27223 0.130196 2.62643e-20)
(1.28342 0.14652 -2.12978e-20)
(1.25973 0.165402 2.91543e-34)
(1.21718 0.176277 0)
(1.17705 0.18375 1.56177e-20)
(1.13648 0.186993 -5.13263e-20)
(1.0964 0.185094 1.05018e-20)
(1.0633 0.178702 0)
(1.04136 0.169123 -2.67786e-20)
(1.03 0.158716 -3.22918e-20)
(1.01571 0.14865 5.65966e-20)
(0.952922 0.132452 -4.47006e-20)
(0.792194 0.103514 0)
(0.50436 0.0644805 -1.6051e-20)
(0.205517 0.026111 0)
(0.0447114 0.00634603 -8.88186e-20)
(-0.00877294 0.000271829 1.04675e-19)
(0.525634 0.0543228 -5.86926e-21)
(1.01783 0.103236 9.82431e-20)
(1.23696 0.154095 -4.87368e-21)
(1.30761 0.178561 -6.32534e-20)
(1.30946 0.195993 -4.48851e-20)
(1.27685 0.213182 7.30154e-20)
(1.22774 0.221575 0)
(1.18171 0.226397 0)
(1.13577 0.227278 8.14018e-20)
(1.09145 0.222844 0)
(1.05417 0.212508 9.61954e-20)
(1.03033 0.199295 2.87341e-20)
(1.01335 0.188356 6.17927e-22)
(0.983716 0.173611 -6.11998e-20)
(0.90789 0.151231 0)
(0.718671 0.115687 0)
(0.416105 0.0653788 -2.60719e-19)
(0.143852 0.0230724 6.55648e-19)
(0.011568 0.00410126 -3.8753e-19)
(-0.0200336 -0.00153363 -4.56394e-19)
(0.532519 0.0783872 -5.14755e-20)
(1.05024 0.159958 2.02692e-20)
(1.27113 0.213918 1.15473e-20)
(1.33443 0.237564 1.09725e-19)
(1.32931 0.25447 1.46861e-20)
(1.28919 0.267118 -1.89565e-19)
(1.23464 0.271021 6.48961e-20)
(1.18367 0.272199 0)
(1.13243 0.269413 -1.71589e-19)
(1.0822 0.260648 1.53036e-19)
(1.04017 0.2468 -2.59464e-19)
(1.01332 0.232875 1.21659e-19)
(0.994987 0.218435 -7.89274e-20)
(0.96608 0.201817 1.78104e-19)
(0.870345 0.175472 0)
(0.664261 0.127272 -6.47075e-20)
(0.361992 0.0670255 0)
(0.116818 0.0217068 3.56467e-19)
(-0.00352889 0.00157644 -8.44249e-19)
(-0.025919 -0.00358435 5.28385e-19)
(0.530522 0.108626 1.29683e-19)
(1.07792 0.220092 -5.82298e-20)
(1.29682 0.281384 -1.28973e-20)
(1.35286 0.303344 0)
(1.34256 0.3168 -8.1387e-20)
(1.29749 0.324069 1.00604e-19)
(1.23812 0.323536 -6.91649e-20)
(1.18194 0.320689 0)
(1.12589 0.313731 1.218e-19)
(1.07216 0.301058 -1.07428e-19)
(1.02758 0.283834 2.23917e-19)
(0.997895 0.266238 0)
(0.974931 0.249391 -1.67441e-19)
(0.933703 0.228195 9.445e-20)
(0.836057 0.193041 2.37117e-19)
(0.625792 0.139049 -2.08555e-19)
(0.336017 0.0721931 3.2863e-19)
(0.109272 0.0229514 -7.27667e-19)
(-0.010277 -0.000666299 4.59934e-19)
(-0.0301107 -0.0058791 -5.75083e-19)
(0.514539 0.132916 -3.57815e-20)
(1.07786 0.2709 2.51476e-20)
(1.30499 0.344735 -4.31109e-20)
(1.362 0.368462 9.0146e-20)
(1.34864 0.380973 -8.75398e-20)
(1.29967 0.383189 3.12151e-20)
(1.23675 0.377499 3.84928e-21)
(1.17717 0.369911 -1.36074e-19)
(1.11723 0.358338 -1.27065e-19)
(1.05838 0.340832 -2.29892e-19)
(1.00913 0.319165 -4.81141e-19)
(0.976271 0.298285 -1.48472e-19)
(0.952479 0.278031 2.23638e-21)
(0.915613 0.254776 -3.22318e-19)
(0.810062 0.217687 -4.79488e-21)
(0.601583 0.152647 3.0277e-19)
(0.329182 0.0793037 -9.04368e-20)
(0.110552 0.0258998 -5.257e-20)
(-0.00861133 -0.00263846 0)
(-0.0310442 -0.00764025 1.21941e-18)
(0.500436 0.155084 0)
(1.07885 0.324338 1.13204e-21)
(1.3098 0.410842 -5.20915e-21)
(1.36461 0.433734 -1.30376e-20)
(1.34874 0.443814 8.30145e-20)
(1.29778 0.441302 -7.36757e-20)
(1.2323 0.431357 7.50589e-20)
(1.16922 0.419583 2.23663e-19)
(1.10565 0.403688 -7.06774e-20)
(1.04398 0.381775 1.13487e-19)
(0.992998 0.356212 2.58456e-19)
(0.958348 0.332105 3.23683e-19)
(0.929797 0.309216 -1.94887e-19)
(0.883101 0.282051 3.48864e-19)
(0.782723 0.236412 -2.76397e-19)
(0.582244 0.169849 0)
(0.32472 0.0898275 -6.8696e-19)
(0.117792 0.0308553 9.26182e-19)
(-0.00107677 -0.00193025 6.90895e-20)
(-0.0284819 -0.00865366 -1.28952e-18)
(0.481444 0.173732 -5.20846e-21)
(1.06396 0.368773 -2.91298e-20)
(1.30428 0.469213 3.71231e-20)
(1.36185 0.494976 -6.16145e-20)
(1.34437 0.504974 7.05702e-20)
(1.29136 0.498551 -7.03875e-20)
(1.22365 0.484437 1.47506e-19)
(1.1584 0.468318 -6.6253e-20)
(1.09213 0.447902 -2.84658e-19)
(1.0269 0.421312 -3.63199e-23)
(0.972098 0.391789 -2.80854e-19)
(0.933723 0.363648 -3.48386e-19)
(0.904703 0.337435 2.15518e-19)
(0.86439 0.308779 -1.25356e-19)
(0.759409 0.263985 3.00867e-19)
(0.566645 0.186938 0)
(0.324496 0.103349 -4.2777e-19)
(0.126909 0.0379681 6.3181e-19)
(0.00829025 0.00075695 1.19453e-18)
(-0.0244985 -0.00875596 -1.40496e-18)
(0.469284 0.192772 -1.14024e-19)
(1.0562 0.4168 5.19028e-20)
(1.29865 0.529321 -1.75219e-20)
(1.35518 0.555257 6.28161e-20)
(1.33596 0.563626 1.22737e-20)
(1.28204 0.553455 -1.36644e-19)
(1.21298 0.535843 -8.61483e-20)
(1.1456 0.515971 -8.58302e-20)
(1.07697 0.491703 -1.61157e-19)
(1.00981 0.461266 2.59532e-19)
(0.952624 0.427461 2.83274e-19)
(0.912428 0.396114 5.52718e-19)
(0.881371 0.36834 0)
(0.831993 0.336347 6.33681e-21)
(0.734585 0.282488 -8.27566e-19)
(0.552012 0.206032 1.94687e-19)
(0.323899 0.116717 9.2938e-19)
(0.135644 0.0463697 -2.74264e-19)
(0.0182157 0.00464666 5.68511e-19)
(-0.0198377 -0.00811537 -4.73694e-20)
(0.455082 0.208386 5.90618e-21)
(1.03834 0.455809 6.93464e-20)
(1.28704 0.581957 3.56329e-22)
(1.34566 0.610945 5.44008e-20)
(1.32543 0.619469 -1.25485e-19)
(1.27026 0.606184 1.34457e-19)
(1.19977 0.585281 8.90199e-20)
(1.13108 0.56186 2.55368e-19)
(1.0604 0.533687 3.22513e-19)
(0.98961 0.499117 -3.01401e-19)
(0.928852 0.461453 0)
(0.8863 0.42636 -2.09796e-19)
(0.854609 0.394415 2.40871e-19)
(0.813238 0.361609 3.04328e-19)
(0.713359 0.310134 -1.76262e-19)
(0.538419 0.223279 -4.27182e-19)
(0.323379 0.131078 -1.27096e-19)
(0.143283 0.0555021 -2.06554e-21)
(0.0273783 0.00938936 0)
(-0.015167 -0.00697076 0)
(0.447435 0.225868 -9.44325e-20)
(1.02839 0.498526 0)
(1.27662 0.635891 1.62261e-20)
(1.33395 0.665611 -1.96788e-20)
(1.31239 0.672698 1.45649e-19)
(1.25673 0.65639 -3.63662e-20)
(1.18548 0.632635 9.04535e-20)
(1.11522 0.60601 -1.72292e-19)
(1.04232 0.574871 2.44752e-19)
(0.969817 0.537028 -1.00326e-19)
(0.907878 0.495246 1.62852e-19)
(0.864374 0.456494 6.66627e-19)
(0.830905 0.42454 1.42426e-20)
(0.781119 0.387573 -3.18126e-19)
(0.689737 0.326532 5.88282e-19)
(0.523335 0.242472 3.10726e-21)
(0.320093 0.144403 1.35975e-19)
(0.148434 0.064857 -6.48052e-19)
(0.0347569 0.0142781 6.67671e-19)
(-0.0110227 -0.00561482 -7.86495e-19)
(0.439027 0.240625 3.13011e-23)
(1.0125 0.533387 0)
(1.26248 0.682566 0)
(1.32083 0.715626 5.35821e-21)
(1.29868 0.722819 -4.10449e-20)
(1.24217 0.703947 6.15537e-20)
(1.16981 0.677582 -1.66152e-19)
(1.09845 0.648288 0)
(1.02413 0.613972 -3.61428e-19)
(0.949551 0.572603 4.37477e-19)
(0.884424 0.527269 4.66801e-19)
(0.837929 0.485842 -2.44827e-19)
(0.803622 0.448627 -2.97106e-19)
(0.762542 0.409667 6.97045e-19)
(0.668122 0.35284 -2.09446e-19)
(0.508127 0.257902 -2.49111e-19)
(0.315768 0.157543 -1.48795e-19)
(0.151008 0.0734104 -7.00935e-19)
(0.0400606 0.0187542 1.02741e-19)
(-0.00764837 -0.00428406 8.52246e-19)
(0.433333 0.257406 -4.4918e-20)
(1.00244 0.571406 -6.1026e-20)
(1.25004 0.730331 2.3928e-20)
(1.30662 0.764551 -2.01933e-22)
(1.28347 0.770441 -4.89197e-20)
(1.22658 0.749195 9.50002e-20)
(1.15374 0.720573 0)
(1.08146 0.688549 1.0502e-19)
(1.00582 0.651945 -8.28084e-20)
(0.929535 0.608028 7.31306e-19)
(0.861963 0.558856 -1.04794e-19)
(0.815181 0.513729 1.2141e-19)
(0.78061 0.476171 0)
(0.730423 0.43317 -3.77639e-19)
(0.643996 0.365113 4.57485e-19)
(0.491161 0.274644 0)
(0.308096 0.168053 -3.20258e-19)
(0.150818 0.0807992 9.42903e-19)
(0.0431815 0.0224899 1.12089e-19)
(-0.00510498 -0.0031282 -1.05137e-18)
(0.42867 0.274725 -1.10563e-19)
(0.988921 0.602976 1.39482e-19)
(1.23513 0.771317 0)
(1.29194 0.808854 3.16651e-20)
(1.26843 0.814943 0)
(1.21096 0.791655 -1.27485e-19)
(1.13747 0.760918 0)
(1.06459 0.726944 0)
(0.987673 0.687945 -1.11043e-19)
(0.908907 0.641184 -6.955e-19)
(0.838641 0.58916 -8.64035e-19)
(0.788796 0.541496 1.42598e-19)
(0.75223 0.497278 5.15633e-19)
(0.711473 0.451032 4.1649e-19)
(0.621649 0.388023 -1.46895e-18)
(0.474448 0.2853 -5.85773e-19)
(0.299704 0.177819 3.43675e-19)
(0.148894 0.0865327 0)
(0.0446107 0.0254264 9.64164e-19)
(-0.00326824 -0.00220947 -1.13445e-18)
(0.426366 0.290361 1.29697e-19)
(0.980414 0.637321 -1.60209e-19)
(1.2221 0.813628 0)
(1.27695 0.852145 -1.14962e-20)
(1.25265 0.857109 -7.1301e-21)
(1.19495 0.832013 0)
(1.1213 0.79955 5.16601e-20)
(1.04775 0.763334 7.38488e-20)
(0.969521 0.722627 -2.07987e-19)
(0.889032 0.673979 9.18904e-20)
(0.816491 0.618668 0)
(0.765469 0.56671 5.91698e-19)
(0.728984 0.521819 6.49031e-21)
(0.67888 0.47135 2.24911e-19)
(0.59746 0.394246 2.66391e-19)
(0.456738 0.297583 0)
(0.2897 0.184065 -5.59103e-19)
(0.145055 0.0909055 1.09717e-18)
(0.0446768 0.0273544 -1.16735e-18)
(-0.00218317 -0.00158227 2.44531e-18)
(0.424294 0.305141 0)
(0.968657 0.665499 0)
(1.20748 0.849473 -7.94972e-20)
(1.26211 0.890975 0)
(1.23755 0.896291 0)
(1.17948 0.869625 -1.00375e-19)
(1.10544 0.83547 5.28249e-20)
(1.03136 0.797872 1.79593e-20)
(0.951854 0.755451 -4.72333e-20)
(0.868982 0.704705 0)
(0.793455 0.647407 -1.32407e-19)
(0.738909 0.593421 -4.82706e-19)
(0.698852 0.540425 -5.82116e-19)
(0.658974 0.483953 -2.34261e-19)
(0.57472 0.412681 2.88571e-19)
(0.439259 0.301945 -6.79418e-19)
(0.280311 0.189335 1.20118e-18)
(0.14072 0.0930221 1.42261e-21)
(0.0439597 0.0292691 -1.11557e-18)
(-0.00126132 -0.000417631 -1.64987e-19)
(0.423021 0.319005 0)
(0.960996 0.696434 -1.2875e-19)
(1.19495 0.886791 9.59073e-20)
(1.24744 0.929027 0)
(1.22218 0.933361 0)
(1.16393 0.905328 1.9875e-19)
(1.08979 0.869927 0)
(1.01512 0.830538 0)
(0.934466 0.786887 -4.57945e-19)
(0.849962 0.734948 1.28543e-19)
(0.771897 0.675094 -1.17505e-18)
(0.715038 0.616353 0)
(0.675052 0.562605 -6.35048e-19)
(0.624541 0.500998 9.70463e-21)
(0.549406 0.411129 -9.30617e-19)
(0.422362 0.306863 3.65192e-19)
(0.272184 0.188301 1.17061e-21)
(0.139648 0.0921746 -1.26239e-18)
(0.0444234 0.0269279 5.9894e-19)
(-0.00315124 -0.00331972 1.76492e-19)
(0.421482 0.332645 0)
(0.950669 0.721867 -1.72795e-19)
(1.18131 0.918015 1.00719e-19)
(1.2332 0.962892 1.44379e-19)
(1.20768 0.967671 -3.90105e-21)
(1.14914 0.938446 1.96039e-20)
(1.07475 0.901715 -2.91662e-20)
(0.999722 0.861419 4.30363e-19)
(0.917947 0.816638 4.89871e-19)
(0.831113 0.763383 9.78152e-19)
(0.749708 0.702469 9.76294e-19)
(0.688408 0.642397 1.72219e-19)
(0.642572 0.579773 9.13084e-19)
(0.602179 0.508427 5.64548e-19)
(0.524267 0.423409 6.67632e-19)
(0.405429 0.300719 -3.99397e-19)
(0.265576 0.181875 -4.57153e-19)
(0.144854 0.0917835 5.44704e-19)
(0.0549251 0.0385603 -3.22051e-19)
(0.00589711 0.00820929 5.72534e-19)
(0.42041 0.345779 2.40297e-19)
(0.94398 0.749998 2.71001e-19)
(1.1697 0.951031 5.73665e-20)
(1.21932 0.996305 1.53194e-20)
(1.19315 1.00013 -2.19721e-20)
(1.13447 0.969835 -5.46115e-20)
(1.06009 0.93227 2.77469e-20)
(0.984636 0.890646 -1.86908e-20)
(0.901901 0.845043 -5.71776e-19)
(0.813498 0.791172 -1.06216e-18)
(0.729368 0.728686 6.78039e-20)
(0.66436 0.664144 0)
(0.617748 0.600768 0)
(0.56353 0.523905 -2.95009e-19)
(0.493895 0.412182 -1.09654e-18)
(0.386484 0.29277 8.60528e-19)
(0.26676 0.164739 5.02428e-19)
(0.160228 0.0682694 0)
(0.0737989 0.00581147 1.03087e-18)
(-0.000462641 -0.0202968 -6.09813e-19)
(0.419065 0.358586 -1.27583e-19)
(0.934962 0.772855 1.12256e-19)
(1.1571 0.978233 -1.36621e-19)
(1.20598 1.02578 -1.16508e-19)
(1.17957 1.03007 -2.35021e-20)
(1.1207 0.998876 -1.73803e-20)
(1.04626 0.960289 0)
(0.970655 0.918152 -5.41787e-19)
(0.886938 0.8719 6.87074e-20)
(0.796232 0.817358 0)
(0.70853 0.754987 0)
(0.638435 0.690402 1.10744e-19)
(0.58263 0.618062 1.48753e-19)
(0.536412 0.527961 -3.1948e-19)
(0.461814 0.420532 7.86639e-19)
(0.361198 0.270916 -9.38378e-19)
(0.254608 0.138966 -1.08011e-18)
(0.187296 0.0602559 9.5737e-19)
(0.147426 0.0635532 -3.66293e-19)
(0.108486 0.073112 2.13086e-19)
(0.418133 0.37055 1.57437e-19)
(0.929091 0.798209 0)
(1.1464 1.00752 0)
(1.19308 1.05511 -3.29188e-20)
(1.16612 1.05842 2.66481e-20)
(1.10722 1.02635 -1.95187e-20)
(1.03292 0.987261 1.28973e-19)
(0.957006 0.944203 5.54339e-19)
(0.872436 0.897456 1.03894e-18)
(0.780348 0.84278 -8.06094e-20)
(0.690062 0.779802 1.67278e-19)
(0.61523 0.711714 -9.93787e-19)
(0.557388 0.63979 -9.93627e-19)
(0.49142 0.545863 -1.72104e-19)
(0.41612 0.401694 0)
(0.328206 0.257045 -3.7727e-21)
(0.239969 0.0633731 5.97125e-19)
(0.237915 -0.0456789 -1.00119e-18)
(0.206137 -0.116102 7.60513e-19)
(0.0887592 -0.101546 6.29165e-19)
(0.416748 0.382281 -3.46755e-19)
(0.9209 0.818423 -1.55573e-19)
(1.13465 1.0312 6.86856e-21)
(1.18063 1.08086 6.33895e-20)
(1.15349 1.08477 0)
(1.09448 1.05211 -4.0264e-20)
(1.02019 1.01232 -1.88072e-19)
(0.944179 0.96913 -2.21986e-21)
(0.858713 0.922222 -5.4438e-19)
(0.764409 0.867507 -7.92608e-20)
(0.670297 0.805846 7.36221e-20)
(0.590086 0.740065 8.73342e-19)
(0.518953 0.660275 9.68949e-19)
(0.457292 0.549821 1.68396e-19)
(0.374568 0.417299 8.57152e-19)
(0.267955 0.219964 0)
(0.142348 0.0407789 0)
(-0.0160263 0.16696 6.82179e-19)
(-0.0786161 0.629145 -2.64479e-20)
(0.0103356 1.54706 -8.49236e-19)
(0.415886 0.393222 1.90996e-19)
(0.915651 0.841413 4.40393e-19)
(1.12471 1.05762 -6.11304e-19)
(1.16855 1.10722 3.13437e-19)
(1.14087 1.11029 -1.2235e-20)
(1.08179 1.07711 1.02181e-20)
(1.00761 1.03729 0)
(0.931227 0.993774 -4.61616e-19)
(0.844911 0.94699 0)
(0.749293 0.892941 1.11348e-18)
(0.652565 0.831821 -9.05896e-20)
(0.566593 0.763836 1.01581e-19)
(0.49305 0.687645 1.11977e-18)
(0.401898 0.58184 -3.65887e-19)
(0.286014 0.398511 -4.34661e-19)
(0.178795 0.267657 0)
(0.0714274 0.448047 0)
(0.0237894 1.36908 0)
(0.070952 2.47643 -3.86916e-19)
(0.0965611 2.91706 -2.3934e-19)
(0.414252 0.403715 0)
(0.908057 0.859183 0)
(1.11371 1.07835 2.22282e-19)
(1.15695 1.13008 -2.55378e-19)
(1.12907 1.13405 1.20668e-19)
(1.06985 1.10071 -5.25059e-22)
(0.995657 1.06064 2.49035e-20)
(0.919185 1.0175 -1.93889e-20)
(0.832108 0.971285 7.76773e-20)
(0.734413 0.91814 -1.27802e-18)
(0.633552 0.859679 1.63933e-19)
(0.542303 0.797446 8.81758e-19)
(0.450902 0.716857 -1.11498e-18)
(0.362682 0.587792 -1.2335e-18)
(0.261797 0.454129 4.13817e-19)
(0.177196 0.606581 0)
(0.110817 1.597 5.59327e-19)
(0.116493 2.7034 6.00327e-19)
(0.123845 3.09128 -6.7045e-19)
(0.11676 3.22378 7.12024e-19)
(0.413185 0.413941 0)
(0.903365 0.879893 3.83562e-19)
(1.10458 1.10222 -5.56702e-20)
(1.14578 1.15381 3.50978e-19)
(1.11735 1.15708 -1.26661e-19)
(1.05807 1.12348 0)
(0.983966 1.08378 0)
(0.907165 1.04084 0)
(0.819406 0.995376 4.33914e-19)
(0.720683 0.943776 5.86688e-20)
(0.617507 0.886985 0)
(0.520189 0.82352 -8.76146e-19)
(0.431531 0.749118 0)
(0.30546 0.631736 8.82393e-19)
(0.197513 0.678713 -5.99528e-19)
(0.141752 1.4685 -4.79196e-19)
(0.146783 2.68973 -1.09578e-18)
(0.170626 3.12591 -5.74927e-19)
(0.16125 3.26474 -7.6962e-19)
(0.148598 3.30492 5.52907e-19)
(0.411492 0.423139 -1.33221e-19)
(0.896242 0.895223 1.46228e-20)
(1.0943 1.12015 -6.1608e-20)
(1.13511 1.17398 -2.72422e-19)
(1.10646 1.17844 0)
(1.04705 1.14506 0)
(0.972931 1.10543 0)
(0.896134 1.06326 3.28025e-20)
(0.807855 1.01896 -5.48936e-19)
(0.70738 0.96909 0)
(0.600474 0.915979 0)
(0.50033 0.861092 0)
(0.386956 0.780398 0)
(0.308473 0.724722 6.50268e-19)
(0.263199 1.13196 1.59137e-18)
(0.23539 2.40558 4.65349e-19)
(0.253634 3.08101 9.28484e-19)
(0.248164 3.27734 -7.10886e-19)
(0.200248 3.34262 2.591e-19)
(0.168839 3.35596 0)
(0.410286 0.432211 1.36753e-19)
(0.891942 0.914399 -8.47529e-19)
(1.08578 1.14244 -2.28975e-19)
(1.12462 1.19601 -5.09364e-20)
(1.09542 1.19982 2.9345e-20)
(1.03598 1.16633 -1.20321e-19)
(0.962004 1.12735 -1.55421e-22)
(0.884991 1.08579 -3.57375e-19)
(0.796238 1.04269 0)
(0.695169 0.995107 -7.5626e-20)
(0.587018 0.944852 6.8799e-20)
(0.481203 0.888018 0)
(0.383875 0.821574 0)
(0.320722 0.919232 -8.15039e-19)
(0.263778 1.85139 1.03343e-19)
(0.260555 2.94523 -3.50512e-19)
(0.28619 3.28005 7.32926e-19)
(0.257287 3.37822 5.22463e-19)
(0.193276 3.40291 -7.05082e-19)
(0.169013 3.41328 3.47153e-19)
(0.408149 0.441538 2.67485e-19)
(0.884189 0.928953 8.2363e-19)
(1.07501 1.15956 2.75676e-19)
(1.11373 1.21567 0)
(1.08441 1.22097 0)
(1.02493 1.18786 9.31659e-20)
(0.951072 1.14904 5.00829e-20)
(0.874286 1.10835 3.18045e-19)
(0.785371 1.06667 2.11838e-20)
(0.68312 1.02131 9.62572e-19)
(0.572382 0.975124 -1.15136e-18)
(0.460546 0.923492 0)
(0.380401 0.900218 0)
(0.332377 1.29956 -5.56941e-19)
(0.326625 2.49795 -6.6752e-19)
(0.372201 3.19279 0)
(0.397569 3.35993 -7.40652e-19)
(0.3266 3.42299 5.1432e-20)
(0.25872 3.4689 3.38299e-19)
(0.23676 3.49445 -1.09441e-19)
(0.406312 0.451187 -5.08046e-19)
(0.879318 0.950185 -3.9487e-19)
(1.06544 1.18428 0)
(1.10202 1.23954 0)
(1.07223 1.24376 0)
(1.0129 1.21028 0)
(0.93944 1.17201 -6.10229e-20)
(0.862731 1.13195 2.76664e-19)
(0.77373 1.09153 0)
(0.671716 1.04874 -8.7596e-19)
(0.561538 1.00586 2.06746e-18)
(0.45104 0.961735 8.49372e-20)
(0.396529 1.02257 1.14904e-19)
(0.384188 1.73861 9.07442e-19)
(0.394332 2.9014 -4.88009e-19)
(0.435069 3.31136 0)
(0.41797 3.43238 2.08553e-19)
(0.332081 3.52177 9.09904e-20)
(0.258913 3.58634 1.48628e-19)
(0.183371 3.56578 -1.6527e-20)
(0.403277 0.461382 2.41285e-19)
(0.869547 0.965615 -4.00984e-19)
(1.05258 1.20231 0)
(1.08944 1.26051 -7.45048e-20)
(1.05968 1.2665 2.57588e-19)
(1.0005 1.23337 0)
(0.927433 1.19509 0)
(0.851313 1.15568 -4.79654e-19)
(0.762692 1.1166 -5.57512e-20)
(0.660407 1.0761 8.60345e-19)
(0.546434 1.03664 -9.82284e-19)
(0.45195 1.01281 5.79782e-19)
(0.411673 1.21113 0)
(0.419142 2.18507 -4.81482e-19)
(0.461118 3.14107 3.15439e-19)
(0.526701 3.41261 1.98274e-19)
(0.51748 3.50795 0)
(0.455093 3.59087 -3.66561e-20)
(0.386594 3.63013 -4.08735e-19)
(0.306304 3.60252 -9.65184e-20)
(0.400509 0.471767 -4.78595e-19)
(0.863596 0.989845 5.73641e-19)