/*--------------------------------*- C++ -*----------------------------------*\
  =========                 |
  \\      /  F ield         | OpenFOAM: The Open Source CFD Toolbox
   \\    /   O peration     | Website:  https://openfoam.org
    \\  /    A nd           | Version:  10
     \\/     M anipulation  |
\*---------------------------------------------------------------------------*/
FoamFile
{
    format      ascii;
    class       surfaceScalarField;
    location    "1";
    object      phi;
}
// * * * * * * * * * * * * * * * * * * * * * * * * * * * * * * * * * * * * * //

dimensions      [0 3 -1 0 0 0 0];

internalField   nonuniform List<scalar> 
17370
(
-0.0765169
0.0756321
0.289896
-0.0614768
0.0495918
0.358661
-0.0390505
0.0316072
0.423611
-0.0252116
0.0207081
0.503755
-0.0167668
0.0139326
0.602236
-0.0113631
0.00946271
0.720958
-0.00767237
0.00630053
0.864278
-0.00495479
0.00387491
1.03653
-0.00276432
0.00181384
1.24345
-0.000781836
-0.000183925
1.49216
0.00114458
-0.00216638
1.49221
0.00309372
-0.00417843
1.24378
0.00523066
-0.00654898
1.03696
0.00789617
-0.00966046
0.864671
0.011536
-0.0140786
0.7216
0.0168899
-0.0208118
0.603137
0.0252998
-0.03168
0.505819
0.0391108
-0.0496404
0.426698
0.0615156
-0.0756597
0.36092
0.0765291
0.212482
-0.174845
0.158806
0.0160388
-0.359908
0.35816
-0.0216834
0.0234316
-0.43038
0.430038
-0.024319
0.0246612
-0.510702
0.511424
-0.0245012
0.0237789
-0.607526
0.609213
-0.0226053
0.0209185
-0.72509
0.727207
-0.0191278
0.0170107
-0.867287
0.869464
-0.0150256
0.0128488
-1.03899
1.04106
-0.0109012
0.00882386
-1.2455
1.24745
-0.00698745
0.00503392
-1.49379
1.49578
-0.00325873
0.00126066
-1.49366
1.49554
0.000639764
-0.00252436
-1.24491
1.24664
0.00446899
-0.00619987
-1.03817
1.03992
0.00810145
-0.00985256
-0.866347
0.868224
0.0118497
-0.013727
-0.723712
0.725621
0.0158266
-0.0177352
-0.605886
0.607595
0.0197651
-0.021474
-0.508157
0.509244
0.0230687
-0.024156
-0.427869
0.42797
0.0248121
-0.0249135
-0.360819
0.359884
0.0245139
-0.0235784
-0.28027
0.274567
0.0217781
-0.0160752
-0.152555
0.152524
3.07808e-05
-0.00456625
0.00675537
-0.357451
0.355262
-0.00864977
0.00998056
-0.427095
0.425764
-0.0110266
0.0116037
-0.509652
0.509075
-0.011799
0.0117345
-0.608827
0.608891
-0.0112913
0.0106186
-0.727344
0.728017
-0.00961365
0.00852546
-0.870132
0.87122
-0.0071739
0.00584844
-1.04186
1.04319
-0.00429784
0.00285388
-1.24849
1.24993
-0.00102096
-0.000756133
-1.49755
1.49933
0.00249317
-0.00423742
-1.49772
1.49946
0.00573577
-0.00731626
-1.24924
1.25082
0.00849364
-0.00973029
-1.0428
1.04404
0.0107065
-0.0115987
-0.871122
0.872015
0.0121816
-0.0125491
-0.72852
0.728887
0.0125655
-0.012232
-0.609858
0.609525
0.0115446
-0.0103956
-0.510939
0.50979
0.00898969
-0.00699811
-0.428033
0.426041
0.00471152
-0.00196933
-0.354482
0.35174
7.56191e-05
-0.152468
0.152392
-0.152415
0.152072
0.000342461
-0.00168663
0.00253876
-0.353789
0.352937
-0.00350042
0.00434329
-0.424425
0.423582
-0.00518952
0.00586543
-0.50826
0.507584
-0.00644853
0.006741
-0.608706
0.608414
-0.00683601
0.00671284
-0.728406
0.728529
-0.00634953
0.00581597
-0.872062
0.872596
-0.00502665
0.00413404
-1.04434
1.04523
-0.00297899
0.00176795
-1.25132
1.25253
-0.000424795
-0.000917735
-1.50098
1.50232
0.00225746
-0.00356658
-1.50108
1.50239
0.00460433
-0.00561195
-1.25222
1.25323
0.00646948
-0.00711068
-1.04499
1.04563
0.00750761
-0.00772133
-0.872576
0.872789
0.00770485
-0.00745632
-0.728887
0.728639
0.00703764
-0.00639249
-0.608862
0.608217
0.00566779
-0.00477391
-0.508497
0.507603
0.00388961
-0.00288905
-0.424349
0.423348
0.00199618
-0.00108726
-0.350184
0.349275
0.000424365
-0.152256
0.151831
-0.151805
0.151586
0.000218209
-0.00097915
0.00135485
-0.352363
0.351987
-0.00177246
0.00215382
-0.423014
0.422632
-0.00255962
0.00290674
-0.507094
0.506747
-0.00323887
0.00346329
-0.608144
0.607919
-0.00361042
0.00363787
-0.728541
0.728514
-0.00352933
0.00329256
-0.872945
0.873182
-0.00287029
0.00233866
-1.04592
1.04645
-0.00160043
0.000796079
-1.25353
1.25433
0.000158023
-0.0011106
-1.50345
1.5044
0.00204281
-0.0029264
-1.50347
1.50435
0.00358451
-0.00410247
-1.25393
1.25445
0.00447638
-0.00475147
-1.04608
1.04635
0.00484682
-0.00479664
-0.872837
0.872787
0.00462444
-0.0043217
-0.728346
0.728043
0.00396079
-0.00350121
-0.607673
0.607214
0.00304439
-0.00252081
-0.506933
0.506409
0.00203549
-0.0015096
-0.42264
0.422114
0.00104744
-0.000580403
-0.348629
0.348162
0.000219304
-0.151519
0.1513
-0.151431
0.151331
0.000100007
-0.000446662
0.000623832
-0.351731
0.351554
-0.000824659
0.00101274
-0.422364
0.422176
-0.00121751
0.00139487
-0.506496
0.506319
-0.00156824
0.00169447
-0.607744
0.607618
-0.00178434
0.00180722
-0.72848
0.728457
-0.00175222
0.00161612
-0.873354
0.87349
-0.00136012
0.00102603
-1.04687
1.04721
-0.00054594
1.11301e-05
-1.25498
1.25552
0.000652231
-0.00131354
-1.5052
1.50586
0.00194226
-0.00250589
-1.50506
1.50563
0.00289653
-0.00317955
-1.25484
1.25512
0.00333315
-0.00339326
-1.0465
1.04656
0.00335085
-0.00321288
-0.87268
0.872542
0.00301999
-0.00275272
-0.727754
0.727487
0.00247384
-0.00214539
-0.606825
0.606497
0.00183635
-0.00149837
-0.505992
0.505654
0.00119768
-0.000883082
-0.421714
0.4214
0.000612966
-0.000341792
-0.347814
0.347543
0.000132954
-0.151133
0.151
-0.151269
0.151233
3.63925e-05
-0.000164722
0.000236891
-0.351435
0.351363
-0.000318608
0.000393441
-0.422051
0.421976
-0.000473056
0.000539874
-0.506202
0.506135
-0.000601187
0.0006396
-0.607538
0.607499
-0.000654162
0.000634436
-0.728454
0.728474
-0.000565743
0.000450551
-0.873609
0.873724
-0.000258201
1.82383e-05
-1.04748
1.04772
0.000317031
-0.000688213
-1.25596
1.25633
0.00114781
-0.00159423
-1.5064
1.50685
0.00199999
-0.00233749
-1.50607
1.5064
0.0025453
-0.00266677
-1.25532
1.25544
0.00269526
-0.00264892
-1.04656
1.04651
0.00254519
-0.00238021
-0.872387
0.872222
0.00219383
-0.00196493
-0.727241
0.727012
0.00174209
-0.00149241
-0.606214
0.605964
0.00126611
-0.00102537
-0.505372
0.505132
0.000816029
-0.000599521
-0.421143
0.420926
0.000415537
-0.000231671
-0.347324
0.347141
8.98419e-05
-0.150892
0.150802
-0.151215
0.151213
2.11196e-06
-8.87007e-06
1.21972e-05
-0.351329
0.351325
-1.42387e-05
1.37692e-05
-0.421942
0.421943
-8.74339e-06
-2.14221e-06
-0.50611
0.506121
2.38884e-05
-5.58788e-05
-0.607498
0.60753
0.00010939
-0.0001795
-0.728519
0.728589
0.000285832
-0.000415392
-0.873842
0.873972
0.000597156
-0.00080208
-1.04794
1.04815
0.00106941
-0.00134686
-1.25665
1.25692
0.00167409
-0.00197324
-1.50721
1.50751
0.00222228
-0.00240118
-1.50666
1.50684
0.00248312
-0.00249314
-1.2555
1.25551
0.0024392
-0.00232588
-1.04643
1.04632
0.00218573
-0.00200218
-0.872048
0.871865
0.00181805
-0.00160561
-0.726794
0.726581
0.00140947
-0.00119742
-0.605738
0.605526
0.00101032
-0.000815
-0.504919
0.504724
0.000646783
-0.000474691
-0.420738
0.420566
0.00032944
-0.000184423
-0.34698
0.346835
7.14743e-05
-0.150722
0.150651
-0.151223
0.151246
-2.2164e-05
0.000103369
-0.000148737
-0.351348
0.351394
0.000203925
-0.000260249
-0.421973
0.422029
0.0003294
-0.000400721
-0.506164
0.506235
0.000489639
-0.000582621
-0.607594
0.607687
0.000699432
-0.000822236
-0.728685
0.728808
0.000976858
-0.0011385
-0.874115
0.874277
0.00133915
-0.00154331
-1.04835
1.04855
0.00178625
-0.00201785
-1.25717
1.2574
0.00226818
-0.00247177
-1.50776
1.50796
0.00261346
-0.00267914
-1.50695
1.50702
0.00266649
-0.00259013
-1.25547
1.2554
0.00247291
-0.00230757
-1.04618
1.04601
0.00213232
-0.00192509
-0.871671
0.871464
0.00172879
-0.00151287
-0.726371
0.726155
0.0013192
-0.00111465
-0.605321
0.605116
0.000937021
-0.000753171
-0.504537
0.504353
0.000596238
-0.000437035
-0.420403
0.420244
0.00030349
-0.000170084
-0.346698
0.346565
6.55635e-05
-0.150584
0.150518
-0.151278
0.151322
-4.3021e-05
0.000199102
-0.000286254
-0.35146
0.351548
0.000390731
-0.000495408
-0.42211
0.422215
0.000621289
-0.000747059
-0.506334
0.50646
0.000897658
-0.00104794
-0.607808
0.607959
0.00122772
-0.00140598
-0.728958
0.729136
0.00161733
-0.00182408
-0.87446
0.874666
0.00206408
-0.00229125
-1.04876
1.04899
0.00254217
-0.00276181
-1.25763
1.25785
0.00297478
-0.0031206
-1.50813
1.50828
0.00318869
-0.00317047
-1.50704
1.50702
0.00308519
-0.00293289
-1.25528
1.25513
0.00275572
-0.0025333
-1.04582
1.0456
0.00231536
-0.00206933
-0.871239
0.870992
0.00184439
-0.00160343
-0.725928
0.725687
0.00139137
-0.00117087
-0.604906
0.604686
0.00098131
-0.000787513
-0.504167
0.503973
0.000623339
-0.000457314
-0.420084
0.419917
0.000317706
-0.000177981
-0.34643
0.34629
6.84297e-05
-0.150453
0.150384
-0.151374
0.151438
-6.32894e-05
0.000292994
-0.000421908
-0.351655
0.351784
0.000576175
-0.000729521
-0.422344
0.422497
0.000912212
-0.00109329
-0.506612
0.506793
0.00130832
-0.00152001
-0.608139
0.608351
0.00176845
-0.00201011
-0.729345
0.729587
0.00228928
-0.00255478
-0.874901
0.875166
0.00285191
-0.00312227
-1.04924
1.04951
0.00340586
-0.00363865
-1.25807
1.2583
0.00384272
-0.0039555
-1.50841
1.50852
0.00397006
-0.00388172
-1.50697
1.50688
0.00372802
-0.00350232
-1.25494
1.25471
0.00326082
-0.00297314
-1.04534
1.04506
0.00270065
-0.00240018
-0.870722
0.870421
0.00213103
-0.00184607
-0.725427
0.725142
0.00159831
-0.00134194
-0.60445
0.604193
0.00112289
-0.000899759
-0.503767
0.503544
0.000711587
-0.000521513
-0.419741
0.419551
0.000361817
-0.00020201
-0.346142
0.345982
7.69224e-05
-0.150312
0.150236
-0.151512
0.151598
-8.64123e-05
0.000398938
-0.000573725
-0.351935
0.35211
0.000782556
-0.000990289
-0.422676
0.422884
0.00123751
-0.00148159
-0.507005
0.507249
0.00176951
-0.00205149
-0.608596
0.608878
0.00238044
-0.00269732
-0.729864
0.730181
0.00305953
-0.00339896
-0.875466
0.875806
0.00377315
-0.00410567
-1.04981
1.05014
0.00444474
-0.00471143
-1.25855
1.25882
0.00492882
-0.0050262
-1.50862
1.50872
0.00499877
-0.00484492
-1.50676
1.5066
0.0046211
-0.00431317
-1.25445
1.25414
0.00399559
-0.00362642
-1.04473
1.04436
0.00328224
-0.00290837
-0.870087
0.869713
0.00257599
-0.00222726
-0.724828
0.724479
0.00192528
-0.00161491
-0.603912
0.603602
0.00135067
-0.00108221
-0.5033
0.503032
0.000855807
-0.000627373
-0.419343
0.419115
0.000435718
-0.000243772
-0.345808
0.345617
9.30041e-05
-0.150151
0.150058
-0.151698
0.151811
-0.000113407
0.000523765
-0.000753904
-0.352311
0.352541
0.00102879
-0.00130156
-0.423123
0.423396
0.00162553
-0.0019451
-0.507529
0.507848
0.00232197
-0.00268985
-0.609201
0.609569
0.00311732
-0.00352751
-0.730542
0.730952
0.00399366
-0.00442779
-0.87619
0.876624
0.00490136
-0.00531794
-1.05051
1.05093
0.00573562
-0.0060562
-1.25911
1.25943
0.00630492
-0.00639836
-1.50881
1.50891
0.00633294
-0.00610948
-1.50642
1.50619
0.00580621
-0.00540095
-1.25379
1.25338
0.00499077
-0.00451886
-1.04394
1.04347
0.00408312
-0.00361198
-0.869293
0.868822
0.00319559
-0.00275985
-0.72409
0.723654
0.00238391
-0.00199819
-0.603256
0.602871
0.00167054
-0.00133763
-0.502733
0.5024
0.00105702
-0.000774504
-0.418862
0.418579
0.000538095
-0.000301504
-0.345404
0.345167
0.000115138
-0.149955
0.14984
-0.15194
0.152088
-0.000147505
0.000680038
-0.000978112
-0.352803
0.353101
0.00133419
-0.00168769
-0.423706
0.42406
0.00210751
-0.00252109
-0.508212
0.508626
0.00300792
-0.00348264
-0.609987
0.610461
0.00403339
-0.00456047
-0.731417
0.731944
0.0051579
-0.00571196
-0.877115
0.877669
0.00631385
-0.0068395
-1.0514
1.05192
0.0073619
-0.0077568
-1.25978
1.26018
0.00805392
-0.00815111
-1.509
1.5091
0.00804662
-0.00774269
-1.50593
1.50563
0.00734327
-0.00681774
-1.25292
1.25239
0.00629039
-0.0056881
-1.04294
1.04234
0.00513436
-0.00453817
-0.868292
0.867696
0.00401268
-0.00346386
-0.723165
0.722616
0.00299099
-0.00250614
-0.602439
0.601954
0.00209434
-0.00167642
-0.502028
0.50161
0.00132457
-0.000970221
-0.418263
0.417909
0.000673752
-0.000377067
-0.344902
0.344605
0.000143737
-0.149712
0.149568
-0.152256
0.152446
-0.000190513
0.000877393
-0.00126194
-0.35344
0.353825
0.00172091
-0.00217627
-0.424461
0.424917
0.00271679
-0.00324915
-0.509095
0.509628
0.00387546
-0.00448569
-0.611
0.61161
0.00519286
-0.00586885
-0.732541
0.733217
0.00663337
-0.00734077
-0.878295
0.879002
0.00810634
-0.00877209
-1.05251
1.05318
0.00942929
-0.00992126
-1.26062
1.26111
0.0102835
-0.0103898
-1.5092
1.50931
0.0102388
-0.00983619
-1.50528
1.50487
0.00931674
-0.00863977
-1.2518
1.25112
0.00796443
-0.00719567
-1.04166
1.04089
0.00649117
-0.00573392
-0.867025
0.866267
0.00506758
-0.00437287
-0.721999
0.721305
0.00377533
-0.00316305
-0.601409
0.600797
0.00264356
-0.00211678
-0.501141
0.500614
0.00167344
-0.00122654
-0.417511
0.417064
0.000851378
-0.000475844
-0.344272
0.343896
0.000180796
-0.149407
0.149226
-0.152662
0.152908
-0.000245746
0.00112988
-0.00162491
-0.354261
0.354756
0.00221574
-0.00280177
-0.425433
0.426019
0.00349689
-0.00418133
-0.510231
0.510916
0.00498598
-0.00576947
-0.612301
0.613085
0.00667638
-0.00754205
-0.733982
0.734848
0.00851968
-0.00942214
-0.879801
0.880703
0.0103964
-0.0112404
-1.05393
1.05477
0.0120691
-0.0126842
-1.26166
1.26228
0.013129
-0.0132462
-1.50942
1.50954
0.0130363
-0.0125077
-1.50441
1.50388
0.011836
-0.0109663
-1.25035
1.24948
0.0101022
-0.0091221
-1.04002
1.03904
0.00822519
-0.00726344
-0.865414
0.864452
0.0064175
-0.00553663
-0.720523
0.719642
0.00477856
-0.00400264
-0.600108
0.599333
0.00334407
-0.00267676
-0.500022
0.499354
0.00211527
-0.00154967
-0.416561
0.415996
0.00107571
-0.000601353
-0.343475
0.343
0.000228695
-0.149022
0.148793
-0.153187
0.153505
-0.000317237
0.00145606
-0.00209337
-0.355318
0.355955
0.00285411
-0.00360856
-0.426684
0.427439
0.00450344
-0.00538382
-0.511692
0.512572
0.00641817
-0.00742403
-0.613972
0.614978
0.00858706
-0.00969556
-0.735828
0.736936
0.0109451
-0.0120963
-0.881723
0.882874
0.0133355
-0.0144048
-1.05572
1.05679
0.0154491
-0.0162173
-1.26296
1.26373
0.0167623
-0.0168887
-1.50966
1.50978
0.0165997
-0.015908
-1.50328
1.50259
0.0150404
-0.0139241
-1.2485
1.24738
0.0128198
-0.0115695
-1.03793
1.03668
0.0104282
-0.00920511
-0.863367
0.862144
0.00813131
-0.00701327
-0.718649
0.717531
0.00605241
-0.00506919
-0.598459
0.597476
0.00423552
-0.00339023
-0.498603
0.497758
0.00267865
-0.0019623
-0.41536
0.414643
0.00136249
-0.000762249
-0.342467
0.341867
0.000290118
-0.148535
0.148245
-0.153865
0.154276
-0.000410921
0.00188155
-0.00270399
-0.356679
0.357501
0.00368501
-0.0046574
-0.428295
0.429267
0.00581024
-0.0069438
-0.513571
0.514704
0.00827461
-0.00956776
-0.616119
0.617412
0.011061
-0.0124819
-0.738191
0.739612
0.0140799
-0.0155478
-0.884174
0.885642
0.0171218
-0.0184739
-1.05799
1.05935
0.0197855
-0.0207403
-1.26459
1.26554
0.0214018
-0.0215296
-1.50991
1.51004
0.0211309
-0.0202244
-1.5018
1.50089
0.0191032
-0.0176711
-1.24612
1.24469
0.0162598
-0.0146672
-1.03527
1.03368
0.0132157
-0.0116624
-0.860766
0.859213
0.0102997
-0.00888189
-0.716272
0.714854
0.00766394
-0.00641805
-0.596368
0.595123
0.00536187
-0.00429125
-0.496806
0.495736
0.00339059
-0.00248386
-0.413837
0.41293
0.00172466
-0.000964744
-0.341191
0.340431
0.000367272
-0.14792
0.147552
-0.154744
0.155279
-0.000534235
0.00243881
-0.00350332
-0.358436
0.359501
0.00477288
-0.0060309
-0.430373
0.431631
0.00752108
-0.00898498
-0.515992
0.517456
0.0107015
-0.0123666
-0.618879
0.620544
0.0142857
-0.0161074
-0.74122
0.743042
0.0181502
-0.0200197
-0.887299
0.889168
0.0220151
-0.0237185
-1.06087
1.06257
0.0253567
-0.026533
-1.2666
1.26778
0.027323
-0.027434
-1.51016
1.51027
0.0268805
-0.0256901
-1.49985
1.49866
0.0242414
-0.0224048
-1.24306
1.24123
0.0206033
-0.0185759
-1.03188
1.02985
0.0167317
-0.0147612
-0.857463
0.855493
0.0130336
-0.0112379
-0.713258
0.711463
0.00969563
-0.00811827
-0.593721
0.592143
0.00678113
-0.00542634
-0.494532
0.493177
0.00428691
-0.00313991
-0.41191
0.410763
0.00217914
-0.00121784
-0.339576
0.338615
0.000462866
-0.147141
0.146678
-0.15589
0.156589
-0.000699222
0.00317931
-0.00456379
-0.360714
0.362098
0.00621384
-0.00784766
-0.433063
0.434697
0.00978148
-0.0116787
-0.519122
0.521019
0.0138996
-0.0160498
-0.622435
0.624586
0.0185214
-0.0208597
-0.745106
0.747444
0.0234704
-0.0258472
-0.891277
0.893654
0.0283673
-0.0305007
-1.06448
1.06661
0.0325283
-0.0339578
-1.26908
1.27051
0.0348765
-0.0349352
-1.51037
1.51042
0.0341604
-0.0325924
-1.49729
1.49573
0.0307194
-0.0283671
-1.23915
1.2368
0.0260711
-0.0234954
-1.02757
1.02499
0.0211568
-0.0186606
-0.853274
0.850778
0.0164742
-0.0142026
-0.709442
0.707171
0.0122523
-0.0102587
-0.59037
0.588376
0.00856886
-0.00685697
-0.491654
0.489942
0.00541698
-0.00396728
-0.409473
0.408024
0.0027532
-0.00153853
-0.337534
0.33632
0.000584583
-0.146157
0.145573
-0.157391
0.158316
-0.00092421
0.00417763
-0.00599132
-0.363681
0.365495
0.00815114
-0.0102874
-0.436564
0.4387
0.0128119
-0.0152841
-0.523183
0.525655
0.0181708
-0.0209563
-0.627032
0.629817
0.0241451
-0.027147
-0.750093
0.753095
0.0304789
-0.0334896
-0.89633
0.899341
0.0366525
-0.0392983
-1.06899
1.07164
0.0417728
-0.0434721
-1.27207
1.27377
0.0444951
-0.0444372
-1.51044
1.51038
0.0433444
-0.0412742
-1.49392
1.49185
0.0388551
-0.0358477
-1.23413
1.23113
0.0329302
-0.0296676
-1.02209
1.01883
0.0267113
-0.0235591
-0.847972
0.84482
0.0207996
-0.0179322
-0.704618
0.70175
0.0154708
-0.0129535
-0.586135
0.583618
0.0108204
-0.00865863
-0.488018
0.485856
0.00684014
-0.00500922
-0.406394
0.404563
0.00347591
-0.00194191
-0.334954
0.33342
0.000737475
-0.144917
0.144179
-0.159383
0.160622
-0.001239
0.00555637
-0.0079574
-0.367579
0.36998
0.0108125
-0.0136315
-0.44115
0.443969
0.0169548
-0.020199
-0.528484
0.531728
0.0239724
-0.0275958
-0.632992
0.636616
0.0317186
-0.0355708
-0.756496
0.760349
0.0398071
-0.0435937
-0.902721
0.906508
0.0475184
-0.050748
-1.07457
1.0778
0.053699
-0.0556503
-1.2756
1.27756
0.0567057
-0.0564202
-1.51022
1.50994
0.054869
-0.0521342
-1.48948
1.48674
0.0490175
-0.0451912
-1.22773
1.22391
0.0415024
-0.0373916
-1.01516
1.01105
0.0336721
-0.0297081
-0.841282
0.837318
0.0262367
-0.0226286
-0.698533
0.694925
0.0195285
-0.0163566
-0.580792
0.57762
0.0136658
-0.0109376
-0.483427
0.480699
0.00864123
-0.00632822
-0.402506
0.400193
0.0043905
-0.00245191
-0.331696
0.329758
0.00093056
-0.143351
0.142421
-0.162068
0.163768
-0.00169952
0.00753011
-0.0107604
-0.372758
0.375988
0.0145914
-0.0183623
-0.447223
0.450994
0.0227903
-0.0270906
-0.535458
0.539758
0.0320592
-0.0367916
-0.640755
0.645487
0.0421233
-0.0470469
-0.764707
0.769631
0.0523874
-0.0570842
-0.910736
0.915432
0.0618585
-0.0656934
-1.08133
1.08517
0.0690811
-0.0711937
-1.2796
1.28172
0.0721288
-0.0714342
-1.50948
1.50878
0.0692274
-0.0656213
-1.4836
1.47999
0.0616288
-0.0567958
-1.2196
1.21477
0.0521704
-0.0470336
-1.00645
1.00131
0.0423901
-0.0374381
-0.832883
0.827931
0.0330953
-0.0285719
-0.690882
0.686359
0.0246779
-0.020685
-0.574061
0.570068
0.0172925
-0.0138475
-0.477634
0.474189
0.0109446
-0.00801799
-0.397592
0.394666
0.00556418
-0.00310791
-0.327577
0.325121
0.00117968
-0.141373
0.140194
-0.165786
0.168212
-0.00242629
0.0105439
-0.0150042
-0.379766
0.384226
0.0202665
-0.0254153
-0.455389
0.460537
0.0314139
-0.0371835
-0.544734
0.550503
0.0437711
-0.0499572
-0.650901
0.657087
0.0568114
-0.0630235
-0.775176
0.781388
0.0696182
-0.075281
-0.920615
0.926277
0.0808764
-0.0852173
-1.08928
1.09362
0.0888608
-0.0909174
-1.28384
1.2859
0.0914498
-0.0900636
-1.50778
1.5064
0.0869308
-0.0821991
-1.47586
1.47113
0.0771308
-0.0710979
-1.20936
1.20333
0.0653743
-0.059042
-0.995599
0.989266
0.0533199
-0.0472077
-0.822419
0.816307
0.0418286
-0.0362027
-0.681307
0.675681
0.0313358
-0.0263217
-0.565591
0.560577
0.0220417
-0.0176781
-0.470314
0.46595
0.0139888
-0.0102596
-0.391367
0.387638
0.00712682
-0.00398569
-0.322349
0.319208
0.0015153
-0.13886
0.137344
-0.171173
0.175002
-0.00382922
0.0159037
-0.0223286
-0.389548
0.395973
0.0297953
-0.0369927
-0.46664
0.473837
0.045236
-0.0530104
-0.557228
0.565003
0.0616893
-0.0696408
-0.664137
0.672089
0.0782168
-0.08577
-0.788287
0.79584
0.0935413
-0.0999928
-0.932379
0.938831
0.106114
-0.110623
-1.0981
1.10261
0.114097
-0.115683
-1.28778
1.28937
0.115351
-0.112864
-1.50452
1.50203
0.108452
-0.102297
-1.46572
1.45957
0.0959456
-0.0885373
-1.19663
1.18922
0.0815884
-0.0739426
-0.982287
0.974641
0.0670438
-0.0596595
-0.809564
0.80218
0.0531315
-0.0462567
-0.669439
0.662565
0.0402595
-0.0340217
-0.554967
0.548729
0.0286434
-0.0231046
-0.461026
0.455487
0.0183752
-0.0135507
-0.383404
0.37858
0.0094634
-0.00533139
-0.315636
0.311504
0.00203793
-0.135609
0.133571
-0.179712
0.187982
-0.00826986
0.029269
-0.0386868
-0.404049
0.413467
0.0492073
-0.0590308
-0.482654
0.492477
0.0699394
-0.079918
-0.574078
0.584056
0.0906831
-0.100201
-0.680961
0.690479
0.110106
-0.118511
-0.803932
0.812338
0.126811
-0.133388
-0.94546
0.952037
0.139276
-0.143243
-1.10696
1.11093
0.145796
-0.146246
-1.29048
1.29093
0.144388
-0.140254
-1.4988
1.49466
0.134126
-0.126224
-1.45258
1.44468
0.118386
-0.109474
-1.18107
1.17216
0.101242
-0.0922719
-0.966326
0.957356
0.0842219
-0.0756244
-0.794161
0.785563
0.0680157
-0.0599682
-0.655051
0.647003
0.0528967
-0.0454753
-0.54181
0.534388
0.0390001
-0.03222
-0.449203
0.442423
0.0263118
-0.0201245
-0.37298
0.366793
0.014675
-0.00874983
-0.306701
0.300776
0.00333552
-0.131217
0.127882
-0.197782
0.200471
-0.00268908
0.0200885
-0.0291816
-0.426961
0.436055
0.0399003
-0.0503263
-0.504934
0.51536
0.0620665
-0.0734376
-0.595247
0.606618
0.0855672
-0.0963445
-0.700377
0.711155
0.10827
-0.118843
-0.820611
0.831184
0.129815
-0.139209
-0.958169
0.967563
0.148517
-0.155935
-1.1142
1.12162
0.162478
-0.166683
-1.29048
1.29468
0.16879
-0.167881
-1.48944
1.48853
0.16388
-0.157211
-1.43575
1.42908
0.149483
-0.139759
-1.16244
1.15272
0.130277
-0.118975
-0.947752
0.936451
0.108547
-0.096989
-0.776416
0.764858
0.0865177
-0.0752183
-0.63841
0.627111
0.0649272
-0.0542703
-0.52629
0.515633
0.0452758
-0.0357269
-0.434689
0.42514
0.0277182
-0.0196956
-0.359335
0.351313
0.0128752
-0.00610323
-0.293854
0.287082
0.00124418
-0.12376
0.122516
-0.212314
0.207518
0.0047962
0.00283742
-0.00981109
-0.449032
0.456005
0.0191078
-0.0279879
-0.52712
0.536
0.0385782
-0.0482949
-0.617735
0.627451
0.0591522
-0.0690405
-0.722085
0.731974
0.0796362
-0.0892474
-0.841512
0.851123
0.0992767
-0.107635
-0.976948
0.985306
0.116176
-0.122696
-1.12919
1.13571
0.128455
-0.131909
-1.29896
1.30242
0.133105
-0.131558
-1.48722
1.48567
0.127059
-0.120098
-1.42199
1.41503
0.112128
-0.102436
-1.14285
1.13316
0.0932401
-0.0828832
-0.925307
0.91495
0.0733355
-0.0628459
-0.753387
0.742898
0.0535481
-0.0439763
-0.615573
0.606001
0.0358431
-0.0274884
-0.504438
0.496083
0.0205857
-0.0140266
-0.413849
0.40729
0.00909551
-0.00461871
-0.339908
0.335432
0.001468
0.000962916
-0.276431
0.274
-0.00187007
-0.116006
0.117876
-0.217356
0.213397
0.00395899
0.000848163
-0.00592394
-0.46553
0.470606
0.0127575
-0.0198785
-0.54516
0.552281
0.0282593
-0.0363107
-0.636851
0.644903
0.0454174
-0.0538807
-0.741411
0.749875
0.0632725
-0.0717323
-0.860229
0.868689
0.0804445
-0.0881186
-0.99371
1.00138
0.0958361
-0.101899
-1.14212
1.14819
0.106921
-0.109812
-1.3056
1.30849
0.1108
-0.10905
-1.48383
1.48208
0.104552
-0.0978265
-1.40786
1.40113
0.0903713
-0.0816357
-1.12377
1.11503
0.0731711
-0.0640043
-0.904785
0.895618
0.0557162
-0.0467925
-0.733268
0.724344
0.0392025
-0.0314051
-0.596908
0.58911
0.0249382
-0.0182401
-0.4876
0.480901
0.0129783
-0.00809037
-0.399285
0.394397
0.00450414
-0.00154207
-0.327482
0.32452
-0.000370482
0.00178984
-0.266234
0.264815
-0.00212103
-0.112288
0.11441
-0.221996
0.21825
0.00374548
-0.000101395
-0.00412745
-0.47831
0.482539
0.00976371
-0.0159386
-0.559549
0.565724
0.0233263
-0.0302425
-0.652672
0.659588
0.0382848
-0.0458122
-0.75824
0.765768
0.0541639
-0.0617552
-0.876909
0.884501
0.0700135
-0.0769728
-1.00891
1.01586
0.0842302
-0.0895924
-1.15418
1.15954
0.0944168
-0.0972418
-1.31151
1.31433
0.0981458
-0.0962859
-1.48026
1.4784
0.0921754
-0.0860113
-1.3942
1.38804
0.0791519
-0.0708736
-1.10638
1.09811
0.0632161
-0.0550168
-0.88651
0.87831
0.0475512
-0.0398927
-0.71586
0.708202
0.0330751
-0.0262803
-0.581351
0.574556
0.0205919
-0.0149791
-0.474161
0.468549
0.0105417
-0.00629066
-0.38795
0.383699
0.00312693
-0.000800571
-0.318003
0.315677
-0.000950672
0.00204132
-0.258518
0.257427
-0.0020054
-0.109436
0.111442
-0.226526
0.223236
0.00329059
-0.000192218
-0.0035725
-0.489316
0.493081
0.00913266
-0.0146785
-0.572301
0.577847
0.0211855
-0.0277376
-0.666608
0.67316
0.0349498
-0.0419856
-0.77313
0.780166
0.0497182
-0.0568128
-0.891981
0.899075
0.0645078
-0.0712508
-1.02298
1.02973
0.0780842
-0.0835667
-1.16509
1.17057
0.0883633
-0.091261
-1.31714
1.32004
0.0923483
-0.0907542
-1.47664
1.47505
0.0869761
-0.0810195
-1.38142
1.37546
0.0745473
-0.066867
-1.0899
1.08222
0.0596688
-0.0518356
-0.869952
0.862119
0.0449084
-0.0376792
-0.700409
0.69318
0.0314486
-0.0251091
-0.567708
0.561368
0.0198652
-0.0146707
-0.462514
0.45732
0.01037
-0.00633571
-0.3782
0.374166
0.00351288
-0.00104016
-0.310068
0.307596
-0.000774717
0.00168717
-0.251864
0.250951
-0.00185332
-0.106948
0.108801
-0.230841
0.227876
0.00296511
0.00013856
-0.00411825
-0.499258
0.503237
0.00905771
-0.0144077
-0.58354
0.58889
0.0209278
-0.0270232
-0.679437
0.685533
0.0338574
-0.0405459
-0.786944
0.793633
0.0480235
-0.0549449
-0.906167
0.913088
0.0626264
-0.0692069
-1.03651
1.0431
0.0760803
-0.0816823
-1.1761
1.18171
0.08665
-0.0897809
-1.32299
1.32612
0.0911737
-0.090227
-1.47355
1.4726
0.0867116
-0.0811459
-1.36914
1.36357
0.0748516
-0.0673201
-1.07428
1.06675
0.0604274
-0.052598
-0.854055
0.846225
0.0457222
-0.0386775
-0.685741
0.678696
0.0325585
-0.0263235
-0.554941
0.548706
0.021108
-0.0157914
-0.451673
0.446356
0.0116772
-0.00763065
-0.369073
0.365026
0.00445032
-0.00183083
-0.30243
0.299811
6.81513e-07
0.00125372
-0.245762
0.244508
-0.00157205
-0.104548
0.10612
-0.234954
0.232577
0.00237658
0.000956616
-0.00486335
-0.508763
0.512669
0.00997171
-0.01496
-0.594595
0.599583
0.0213592
-0.0273307
-0.691698
0.697669
0.0343082
-0.0407353
-0.800414
0.806841
0.0480597
-0.0548845
-0.920309
0.927134
0.0627717
-0.069447
-1.05004
1.05672
0.0764054
-0.0823676
-1.18746
1.19342
0.0880747
-0.0916192
-1.32956
1.33311
0.0936269
-0.0930586
-1.47145
1.47088
0.0901556
-0.084587
-1.35772
1.35215
0.0784955
-0.071062
-1.05883
1.0514
0.0639643
-0.0561616
-0.838133
0.83033
0.0490968
-0.0417047
-0.671129
0.663736
0.0356038
-0.0291039
-0.542102
0.535602
0.0236116
-0.0182338
-0.440663
0.435285
0.0137841
-0.00935327
-0.360077
0.355646
0.00600458
-0.00306935
-0.295002
0.292066
0.000993848
0.000613942
-0.239672
0.238065
-0.00131067
-0.102091
0.103402
-0.239224
0.237289
0.00193519
0.00178719
-0.00561902
-0.517913
0.521745
0.0109205
-0.0160217
-0.605363
0.610464
0.0223087
-0.0281749
-0.703777
0.709643
0.0348991
-0.0415619
-0.813624
0.820287
0.0489536
-0.0563134
-0.934102
0.941462
0.0640281
-0.0710197
-1.0638
1.0708
0.0786674
-0.0849666
-1.19961
1.20591
0.0908914
-0.0954186
-1.33687
1.3414
0.0982113
-0.0983558
-1.4705
1.47064
0.0958416
-0.0907572
-1.34658
1.34149
0.0846931
-0.0770802
-1.04331
1.03569
0.0697686
-0.06159
-0.821969
0.813791
0.0541847
-0.0465131
-0.655942
0.64827
0.0397661
-0.0329253
-0.528628
0.521787
0.0271753
-0.0212813
-0.429365
0.423471
0.0164072
-0.0118152
-0.35045
0.345858
0.00806236
-0.00461391
-0.287171
0.283722
0.00211125
-0.000109246
-0.233351
0.231349
-0.00101435
-0.0996715
0.100686
-0.243795
0.242133
0.00166189
0.00280381
-0.00679538
-0.526987
0.530979
0.0119972
-0.0172023
-0.616113
0.621318
0.023358
-0.0293853
-0.715924
0.721951
0.0362789
-0.0428805
-0.827104
0.833705
0.0507706
-0.0577856
-0.948612
0.955627
0.0659342
-0.0732298
-1.07827
1.08556
0.0813408
-0.0883998
-1.21254
1.2196
0.0952759
-0.100275
-1.34605
1.35105
0.104115
-0.105191
-1.47089
1.47197
0.10356
-0.0987474
-1.33611
1.3313
0.0927844
-0.0849476
-1.0277
1.01986
0.0772957
-0.0685443
-0.804862
0.796111
0.0606935
-0.0522981
-0.639863
0.631468
0.0450213
-0.0375527
-0.514346
0.506877
0.0311963
-0.0249597
-0.417052
0.410816
0.019586
-0.0144675
-0.340163
0.335044
0.0101843
-0.00628694
-0.278679
0.274782
0.00339737
-0.000790925
-0.22644
0.223834
-0.000624028
-0.0970808
0.0977049
-0.248233
0.24701
0.00122332
0.00360701
-0.00797802
-0.536207
0.540578
0.0130043
-0.0183058
-0.626532
0.631834
0.0243152
-0.0304253
-0.728104
0.734214
0.0374129
-0.0444215
-0.840517
0.847526
0.0520676
-0.0595646
-0.963129
0.970626
0.0681059
-0.0756413
-1.09357
1.10111
0.0843842
-0.0919812
-1.22685
1.23445
0.0996625
-0.105888
-1.35681
1.36303
0.111012
-0.11308
-1.47336
1.47543
0.112203
-0.108158
-1.32649
1.32245
0.102462
-0.0943879
-1.01139
1.00332
0.0862304
-0.076982
-0.786612
0.777364
0.0681396
-0.0591157
-0.62224
0.613216
0.0511261
-0.042852
-0.498873
0.490599
0.0359755
-0.0289908
-0.40366
0.396675
0.0231378
-0.0172915
-0.329082
0.323236
0.0126115
-0.00814375
-0.269443
0.264975
0.00460929
-0.00148318
-0.218913
0.215786
-0.000330633
-0.0941971
0.0945277
-0.252916
0.251959
0.000957493
0.0042661
-0.00842426
-0.545491
0.54965
0.0140048
-0.0190523
-0.637321
0.642369
0.0253041
-0.0314414
-0.74022
0.746357
0.0384991
-0.0453483
-0.854504
0.861353
0.0533792
-0.0608655
-0.978406
0.985892
0.0697237
-0.0780552
-1.10939
1.11772
0.0869756
-0.0954507
-1.24245
1.25092
0.104247
-0.111364
-1.3696
1.37672
0.117853
-0.12159
-1.47805
1.48179
0.121856
-0.118851
-1.31828
1.31527
0.11326
-0.105136
-0.994741
0.986617
0.0965826
-0.0864544
-0.76701
0.756881
0.0768982
-0.0667984
-0.602997
0.592898
0.0579242
-0.0486826
-0.481564
0.472322
0.0409494
-0.0332576
-0.388919
0.381228
0.0266601
-0.0202229
-0.3167
0.310263
0.0149547
-0.0098826
-0.25921
0.254138
0.00590639
-0.00226709
-0.210668
0.207028
4.02724e-05
-0.091252
0.0912117
-0.257705
0.256963
0.000742436
0.00502248
-0.00922081
-0.554732
0.558931
0.0145321
-0.0197779
-0.647849
0.653095
0.026013
-0.0320989
-0.752392
0.758478
0.0393761
-0.0462313
-0.868434
0.87529
0.0543269
-0.0621503
-0.994078
1.0019
0.07118
-0.0798151
-1.1262
1.13484
0.0893987
-0.0984162
-1.25971
1.26873
0.108119
-0.116795
-1.38459
1.39327
0.124822
-0.129982
-1.486
1.49116
0.131996
-0.130017
-1.31226
1.31028
0.125229
-0.117292
-0.977949
0.970012
0.108119
-0.0970616
-0.745668
0.734611
0.0864847
-0.0750069
-0.581594
0.570116
0.0650539
-0.054619
-0.462377
0.451942
0.0459625
-0.0372587