/*--------------------------------*- C++ -*----------------------------------*\
  =========                 |
  \\      /  F ield         | OpenFOAM: The Open Source CFD Toolbox
   \\    /   O peration     | Website:  https://openfoam.org
    \\  /    A nd           | Version:  10
     \\/     M anipulation  |
\*---------------------------------------------------------------------------*/
FoamFile
{
    format      ascii;
    class       volVectorField;
    location    "1";
    object      U;
}
// * * * * * * * * * * * * * * * * * * * * * * * * * * * * * * * * * * * * * //

dimensions      [0 1 -1 0 0 0 0];

internalField   nonuniform List<vector> 
8800
(
(0.958079 -0.0734299 0)
(0.987675 -0.047835 0)
(0.978185 -0.0304584 0)
(0.973069 -0.0198109 0)
(0.9705 -0.0132567 0)
(0.969165 -0.00899839 0)
(0.968431 -0.00603967 0)
(0.96801 -0.00381666 0)
(0.967767 -0.00197664 0)
(0.967648 -0.000257103 0)
(0.967674 0.00143211 0)
(0.967845 0.00314502 0)
(0.968156 0.00509294 0)
(0.968706 0.00758794 0)
(0.969685 0.0110629 0)
(0.971517 0.0162664 0)
(0.975128 0.0245554 0)
(0.98227 0.0381982 0)
(0.990102 0.060781 0)
(0.749434 0.0420982 0)
(0.586829 -0.00819715 0)
(1.05584 -0.019465 0)
(1.05579 -0.0213127 0)
(1.04578 -0.0209253 0)
(1.03797 -0.0188261 0)
(1.03264 -0.0156055 0)
(1.02915 -0.0120324 0)
(1.02709 -0.00851212 0)
(1.02594 -0.00517689 0)
(1.02534 -0.00194147 0)
(1.02522 0.00137012 0)
(1.02552 0.00460841 0)
(1.02629 0.00775114 0)
(1.02782 0.0110438 0)
(1.03049 0.014495 0)
(1.03486 0.0178238 0)
(1.04144 0.0204371 0)
(1.05039 0.0215891 0)
(1.06025 0.0209197 0)
(0.978765 0.0189862 0)
(0.524904 0.000543273 0)
(1.02149 -0.00504841 0)
(1.01919 -0.00812598 0)
(1.01536 -0.00985577 0)
(1.01109 -0.0102165 0)
(1.00741 -0.00950129 0)
(1.00442 -0.00785131 0)
(1.00221 -0.00563143 0)
(1.00072 -0.00309695 0)
(1.00022 -9.48258e-05 0)
(1.00032 0.00291176 0)
(1.00128 0.00565964 0)
(1.00292 0.00788519 0)
(1.00546 0.00966214 0)
(1.00879 0.0107318 0)
(1.01267 0.0107817 0)
(1.01669 0.00951504 0)
(1.02017 0.00702989 0)
(1.01192 0.0029749 0)
(0.524536 -0.000507728 0)
(0.527068 -0.000109885 0)
(1.01951 -0.00184043 0)
(1.01939 -0.00342213 0)
(1.01804 -0.00481445 0)
(1.01604 -0.00574732 0)
(1.01387 -0.00588173 0)
(1.0117 -0.00527434 0)
(1.00978 -0.00396862 0)
(1.00832 -0.00203928 0)
(1.0077 0.000208268 0)
(1.00775 0.00252836 0)
(1.00882 0.00441005 0)
(1.01008 0.00589573 0)
(1.01209 0.00660704 0)
(1.01425 0.00658955 0)
(1.01626 0.00584432 0)
(1.01786 0.00454504 0)
(1.01897 0.00296327 0)
(1.00897 0.00133089 0)
(0.526394 0.000139512 0)
(0.524794 -8.01253e-05 0)
(1.01544 -0.00101943 0)
(1.01589 -0.00170514 0)
(1.0153 -0.00237517 0)
(1.01436 -0.00291549 0)
(1.01315 -0.00315091 0)
(1.01175 -0.00296504 0)
(1.01035 -0.00226168 0)
(1.00918 -0.00103483 0)
(1.00853 0.000548265 0)
(1.00852 0.00215143 0)
(1.00924 0.00333216 0)
(1.0102 0.0040054 0)
(1.01146 0.00418934 0)
(1.01268 0.0038872 0)
(1.01369 0.00324343 0)
(1.01442 0.00241858 0)
(1.01483 0.00154051 0)
(1.00457 0.000703593 0)
(0.52383 7.85253e-05 0)
(0.523777 -3.46874e-05 0)
(1.01402 -0.000466262 0)
(1.01465 -0.000798211 0)
(1.01433 -0.00113575 0)
(1.01381 -0.00141923 0)
(1.01309 -0.00156296 0)
(1.01219 -0.00146723 0)
(1.0112 -0.00104154 0)
(1.01027 -0.000244692 0)
(1.00962 0.000851974 0)
(1.00949 0.0019295 0)
(1.00989 0.00263839 0)
(1.01053 0.00291968 0)
(1.01125 0.00285059 0)
(1.01191 0.00250671 0)
(1.01242 0.0020051 0)
(1.01277 0.0014471 0)
(1.01293 0.000903628 0)
(1.00258 0.000412708 0)
(0.522691 4.9656e-05 0)
(0.523331 -1.30427e-05 0)
(1.01332 -0.000174811 0)
(1.01404 -0.000310059 0)
(1.01385 -0.000440421 0)
(1.01354 -0.000540526 0)
(1.01308 -0.000562714 0)
(1.01247 -0.000446803 0)
(1.01174 -0.000126844 0)
(1.01098 0.000433657 0)
(1.01035 0.00118834 0)
(1.01009 0.00188252 0)
(1.01021 0.0022641 0)
(1.01052 0.00231919 0)
(1.01089 0.00213752 0)
(1.01122 0.00180493 0)
(1.01147 0.00140415 0)
(1.01163 0.000993925 0)
(1.01169 0.000614266 0)
(1.00131 0.00027911 0)
(0.521937 3.3714e-05 0)
(0.523209 -4.71216e-07 0)
(1.01312 -1.00401e-05 0)
(1.01387 -1.2347e-05 0)
(1.01374 -4.0679e-06 0)
(1.01353 3.33182e-05 0)
(1.01321 0.000123193 0)
(1.01275 0.000301539 0)
(1.01216 0.000603772 0)
(1.0115 0.00104509 0)
(1.01085 0.00158076 0)
(1.01043 0.00200628 0)
(1.01031 0.00216456 0)
(1.01037 0.00206781 0)
(1.01049 0.00181693 0)
(1.01061 0.00148507 0)
(1.01071 0.00112951 0)
(1.01077 0.000792235 0)
(1.01077 0.000485215 0)
(1.00038 0.000222609 0)
(0.521387 2.67271e-05 0)
(0.523279 9.03248e-06 0)
(1.01325 0.000109749 0)
(1.01401 0.000200519 0)
(1.01391 0.000316278 0)
(1.01374 0.000463838 0)
(1.01347 0.000658394 0)
(1.01308 0.00091517 0)
(1.01256 0.00124748 0)
(1.0119 0.00164722 0)
(1.01118 0.00205481 0)
(1.01059 0.00229575 0)
(1.01026 0.00227736 0)
(1.0101 0.00207331 0)
(1.01004 0.00175977 0)
(1.01002 0.00140566 0)
(1.01002 0.00105566 0)
(1.01002 0.000732687 0)
(1.00998 0.000447896 0)
(0.999583 0.00020379 0)
(0.520918 2.49249e-05 0)
(0.523507 1.64959e-05 0)
(1.01363 0.00021002 0)
(1.0144 0.000383997 0)
(1.01431 0.000592752 0)
(1.01415 0.000842677 0)
(1.01389 0.0011403 0)
(1.01351 0.00149007 0)
(1.01297 0.00188572 0)
(1.01226 0.00229729 0)
(1.01141 0.00264208 0)
(1.01062 0.00275753 0)
(1.01007 0.00260933 0)
(1.00972 0.00229242 0)
(1.00951 0.0019002 0)
(1.00938 0.00149407 0)
(1.00931 0.00111054 0)
(1.00927 0.000765943 0)
(1.00921 0.000468892 0)
(0.998801 0.000213291 0)
(0.52046 2.62736e-05 0)
(0.523873 2.48811e-05 0)
(1.01425 0.000310054 0)
(1.01502 0.00056593 0)
(1.01492 0.000868643 0)
(1.01475 0.00122515 0)
(1.01447 0.00163672 0)
(1.01405 0.00209792 0)
(1.01345 0.00258769 0)
(1.01262 0.00305202 0)
(1.01158 0.00338033 0)
(1.01055 0.003404 0)
(1.00977 0.00313374 0)
(1.00923 0.00270186 0)
(1.00888 0.00221064 0)
(1.00866 0.00172337 0)
(1.00852 0.001274 0)
(1.00844 0.000876339 0)
(1.00836 0.000534712 0)
(0.997946 0.00024288 0)
(0.519962 2.92596e-05 0)
(0.524389 3.31208e-05 0)
(1.01512 0.000421202 0)
(1.01588 0.000768045 0)
(1.01577 0.00117849 0)
(1.01557 0.00165565 0)
(1.01525 0.00220003 0)
(1.01475 0.0027981 0)
(1.01403 0.00341363 0)
(1.01302 0.00396792 0)
(1.01172 0.00431586 0)
(1.01039 0.00426788 0)
(1.00934 0.00387257 0)
(1.0086 0.00330323 0)
(1.0081 0.00268263 0)
(1.00778 0.00208159 0)
(1.00758 0.00153401 0)
(1.00746 0.00105479 0)
(1.00736 0.000642492 0)
(0.996939 0.000293085 0)
(0.519375 3.56914e-05 0)
(0.525077 4.41534e-05 0)
(1.01629 0.000553707 0)
(1.01703 0.00101007 0)
(1.0169 0.0015467 0)
(1.01665 0.00217125 0)
(1.01626 0.00287847 0)
(1.01565 0.00364839 0)
(1.01475 0.00442723 0)
(1.01349 0.00510968 0)
(1.01185 0.00550658 0)
(1.01013 0.00539363 0)
(1.00877 0.00485674 0)
(1.00779 0.00412053 0)
(1.00713 0.00333409 0)
(1.0067 0.00258048 0)
(1.00643 0.00189864 0)
(1.00626 0.00130355 0)
(1.00614 0.000793351 0)
(0.99571 0.000361581 0)
(0.518661 4.42214e-05 0)
(0.525975 5.70547e-05 0)
(1.0178 0.000718272 0)
(1.01853 0.001309 0)
(1.01836 0.00200562 0)
(1.01805 0.00281183 0)
(1.01756 0.0037232 0)
(1.01679 0.00470887 0)
(1.01566 0.00569853 0)
(1.01407 0.00655145 0)
(1.01198 0.00702481 0)
(1.00978 0.00684409 0)
(1.00802 0.00613633 0)
(1.00676 0.00519019 0)
(1.0059 0.00419108 0)
(1.00533 0.00323937 0)
(1.00498 0.00238204 0)
(1.00477 0.0016338 0)
(1.00462 0.00099498 0)
(0.99418 0.000451869 0)
(0.517772 5.45902e-05 0)
(0.527138 7.38265e-05 0)
(1.01976 0.000926725 0)
(1.02047 0.00168874 0)
(1.02025 0.00258469 0)
(1.01986 0.00362246 0)
(1.01922 0.00479202 0)
(1.01824 0.00605391 0)
(1.0168 0.0073127 0)
(1.01478 0.00838513 0)
(1.01211 0.00896167 0)
(1.00931 0.00870169 0)
(1.00705 0.00778133 0)
(1.00544 0.00656872 0)
(1.00433 0.00529676 0)
(1.00361 0.00409018 0)
(1.00316 0.00300666 0)
(1.00289 0.00206227 0)
(1.0027 0.00125682 0)
(0.992249 0.000571333 0)
(0.516652 6.90735e-05 0)
(0.528639 9.54901e-05 0)
(1.02229 0.00119339 0)
(1.02296 0.00217397 0)
(1.02267 0.00332655 0)
(1.02217 0.0046597 0)
(1.02136 0.0061599 0)
(1.0201 0.00777278 0)
(1.01826 0.00937415 0)
(1.01567 0.0107266 0)
(1.01226 0.0114334 0)
(1.00869 0.0110723 0)
(1.00581 0.00988071 0)
(1.00375 0.00832918 0)
(1.00235 0.00671065 0)
(1.00142 0.00517969 0)
(1.00085 0.00380458 0)
(1.0005 0.00260911 0)
(1.00028 0.00158815 0)
(0.989814 0.000722597 0)
(0.51524 8.71187e-05 0)
(0.530576 0.000123188 0)
(1.02554 0.00153714 0)
(1.02616 0.00280013 0)
(1.02579 0.00428383 0)
(1.02515 0.00599688 0)
(1.02409 0.00792038 0)
(1.02247 0.00998199 0)
(1.0201 0.0120184 0)
(1.01678 0.0137225 0)
(1.01243 0.0145874 0)
(1.00787 0.0140906 0)
(1.00422 0.0125512 0)
(1.00161 0.0105675 0)
(0.999825 0.00850648 0)
(0.998656 0.00656174 0)
(0.997922 0.00481837 0)
(0.997487 0.00330448 0)
(0.997208 0.00201046 0)
(0.986726 0.000915019 0)
(0.513452 0.000110877 0)
(0.533082 0.00015991 0)
(1.02972 0.00198616 0)
(1.03029 0.00361464 0)
(1.02981 0.00552558 0)
(1.02897 0.00772982 0)
(1.0276 0.0101991 0)
(1.0255 0.0128352 0)
(1.02243 0.0154217 0)
(1.01816 0.0175615 0)
(1.0126 0.0186105 0)
(1.00681 0.0179258 0)
(1.00218 0.0159351 0)
(0.998874 0.0134001 0)
(0.99662 0.0107791 0)
(0.995143 0.00831053 0)
(0.994217 0.00610158 0)
(0.993667 0.00418245 0)
(0.993327 0.00254594 0)
(0.982824 0.00115749 0)
(0.511192 0.00014039 0)
(0.536331 0.000208462 0)
(1.03513 0.00257349 0)
(1.03563 0.00468124 0)
(1.03499 0.00715157 0)
(1.03388 0.00999415 0)
(1.03209 0.013167 0)
(1.02936 0.016536 0)
(1.02537 0.0198144 0)
(1.01987 0.0224867 0)
(1.01276 0.0237377 0)
(1.00541 0.022788 0)
(0.999559 0.0202138 0)
(0.99539 0.0169755 0)
(0.992548 0.0136448 0)
(0.990688 0.0105166 0)
(0.989521 0.007719 0)
(0.988828 0.0052892 0)
(0.988409 0.00321888 0)
(0.977882 0.00146251 0)
(0.508333 0.000176768 0)
(0.540573 0.000273404 0)
(1.04216 0.00335359 0)
(1.04254 0.00609264 0)
(1.04169 0.00929762 0)
(1.04022 0.0129749 0)
(1.03786 0.0170605 0)
(1.03426 0.0213652 0)
(1.02907 0.0255049 0)
(1.02197 0.0288124 0)
(1.01288 0.0302643 0)
(1.00356 0.0289355 0)
(0.9962 0.0256045 0)
(0.990961 0.0214771 0)
(0.987391 0.017252 0)
(0.985052 0.0132914 0)
(0.983584 0.00975361 0)
(0.982714 0.0066848 0)
(0.982199 0.00406675 0)
(0.971638 0.0018479 0)
(0.504727 0.000222867 0)
(0.546149 0.00036314 0)
(1.05132 0.00440321 0)
(1.05155 0.00798921 0)
(1.0504 0.0121724 0)
(1.04842 0.0169504 0)
(1.04526 0.0222191 0)
(1.04049 0.0277112 0)
(1.03367 0.0329056 0)
(1.02448 0.0369414 0)
(1.01288 0.0385531 0)
(1.00114 0.03668 0)
(0.991904 0.0323717 0)
(0.985344 0.0271226 0)
(0.980869 0.0217806 0)
(0.977933 0.0167819 0)
(0.976087 0.0123156 0)
(0.97499 0.00843976 0)
(0.97435 0.00513463 0)
(0.963748 0.00233274 0)
(0.500175 0.000280904 0)
(0.553573 0.000489411 0)
(1.0634 0.00585194 0)
(1.06339 0.0105907 0)
(1.0618 0.016096 0)
(1.05907 0.0223383 0)
(1.05475 0.0291481 0)
(1.04834 0.0361281 0)
(1.03934 0.0425736 0)
(1.02742 0.0473885 0)
(1.01266 0.0490424 0)
(0.99793 0.0463831 0)
(0.986424 0.0408249 0)
(0.978248 0.0341837 0)
(0.972649 0.0274603 0)
(0.968956 0.0211708 0)
(0.966624 0.0155481 0)
(0.965235 0.0106608 0)
(0.964433 0.00648735 0)
(0.953781 0.00294546 0)
(0.494432 0.000354509 0)
(0.563642 0.000676722 0)
(1.07952 0.00792006 0)
(1.07913 0.0142769 0)
(1.07683 0.0216073 0)
(1.07295 0.0298232 0)
(1.06692 0.0386232 0)
(1.05815 0.0474206 0)
(1.04616 0.0552632 0)
(1.0307 0.0607926 0)
(1.01202 0.0622386 0)
(0.993697 0.0584545 0)
(0.979478 0.0513197 0)
(0.969345 0.042984 0)
(0.962349 0.0345864 0)
(0.957688 0.0267175 0)
(0.954715 0.0196539 0)
(0.952929 0.0134917 0)
(0.951903 0.00821723 0)
(0.941174 0.00373347 0)
(0.487167 0.000449819 0)
(0.577721 0.000979094 0)
(1.10147 0.0110643 0)
(1.1004 0.0197873 0)
(1.09687 0.0297093 0)
(1.09107 0.0405921 0)
(1.08234 0.0519035 0)
(1.07013 0.0627693 0)
(1.05405 0.0719662 0)
(1.03407 0.0779177 0)
(1.01064 0.0786929 0)
(0.988122 0.0733163 0)
(0.970752 0.0642371 0)
(0.958292 0.0539097 0)
(0.949557 0.0435541 0)
(0.943615 0.0338055 0)
(0.939739 0.0249785 0)
(0.937363 0.0172085 0)
(0.935996 0.0105069 0)
(0.925138 0.00478424 0)
(0.477906 0.000579159 0)
(0.598491 0.00155557 0)
(1.13226 0.0165549 0)
(1.12974 0.0289101 0)
(1.12375 0.0425349 0)
(1.11445 0.0568721 0)
(1.10133 0.0710314 0)
(1.08406 0.0838488 0)
(1.06251 0.0939219 0)
(1.03693 0.0995969 0)
(1.00798 0.0989415 0)
(0.980768 0.0913585 0)
(0.959886 0.0799519 0)
(0.944755 0.0673959 0)
(0.933893 0.0548984 0)
(0.926231 0.0430585 0)
(0.921 0.0321773 0)
(0.917631 0.0224137 0)
(0.915628 0.0138296 0)
(0.904494 0.00637294 0)
(0.465859 0.000782205 0)
(0.631505 0.00326731 0)
(1.17734 0.0292727 0)
(1.17066 0.0468177 0)
(1.15903 0.0648842 0)
(1.14316 0.0826885 0)
(1.12304 0.0990658 0)
(1.09867 0.112765 0)
(1.07021 0.122452 0)
(1.03811 0.126597 0)
(1.00313 0.123408 0)
(0.970973 0.112861 0)
(0.946434 0.0987534 0)
(0.928441 0.0838618 0)
(0.915137 0.0692687 0)
(0.90528 0.0554604 0)
(0.898041 0.0426176 0)
(0.89289 0.0308516 0)
(0.889439 0.0201067 0)
(0.877433 0.0102173 0)
(0.450201 0.00128308 0)
(0.681263 0.0199774 1.54672e-19)
(1.24199 0.0639268 1.3798e-19)
(1.22344 0.0838008 -4.71757e-20)
(1.20069 0.10375 0)
(1.17467 0.122527 -1.06304e-33)
(1.14523 0.138742 1.51716e-20)
(1.11229 0.151276 -2.51016e-20)
(1.07598 0.158953 0)
(1.03667 0.160322 4.68081e-34)
(0.995112 0.153691 -2.65076e-20)
(0.957652 0.139675 0)
(0.929142 0.122745 -2.93999e-20)
(0.907891 0.105707 -8.5315e-20)
(0.891608 0.0894569 -3.98681e-20)
(0.878845 0.0744842 -1.17555e-20)
(0.868613 0.0609141 -6.93399e-21)
(0.860257 0.0492556 0)
(0.853265 0.0393712 4.85171e-21)
(0.838447 0.0311445 5.74448e-21)
(0.428795 0.0126128 1.03622e-19)
(0.715454 0.0611218 1.39027e-19)
(1.29826 0.127641 5.53961e-22)
(1.26969 0.142822 1.38133e-20)
(1.23752 0.159768 0)
(1.20268 0.17583 -5.76193e-20)
(1.16488 0.189556 -6.28153e-20)
(1.12392 0.199668 -2.6234e-20)
(1.07982 0.204809 -8.62702e-20)
(1.03288 0.203353 0)
(0.983757 0.193547 1.12741e-19)
(0.939499 0.176486 1.07882e-19)
(0.905523 0.1573 3.11011e-20)
(0.879797 0.138866 1.09646e-19)
(0.859604 0.122057 1.50814e-19)
(0.84319 0.107187 0)
(0.829424 0.0946319 2.09526e-19)
(0.817565 0.084464 3.01054e-19)
(0.807109 0.0770466 3.34992e-19)
(0.791032 0.0717414 -3.82981e-19)
(0.405285 0.0356222 -6.66855e-21)
(0.729191 0.104436 0)
(1.33401 0.204574 3.19814e-20)
(1.30157 0.214259 0)
(1.26421 0.225938 -9.34837e-20)
(1.22341 0.237327 0)
(1.17921 0.247044 -1.30432e-19)
(1.13161 0.253523 5.50133e-20)
(1.0807 0.255193 -1.79985e-19)
(1.02688 0.250221 -1.26384e-21)
(0.970861 0.236708 5.91712e-20)
(0.920605 0.216329 2.31333e-19)
(0.88214 0.194861 1.17508e-22)
(0.853115 0.175207 -7.82828e-20)
(0.830474 0.158024 -1.38187e-19)
(0.812324 0.143458 1.62751e-19)
(0.797462 0.131559 -2.87035e-19)
(0.785042 0.122271 -3.77746e-20)
(0.774479 0.115575 0)
(0.758647 0.110506 1.31717e-21)
(0.390407 0.0560765 0)
(0.739529 0.146504 5.56009e-19)
(1.35642 0.280799 -2.60079e-19)
(1.32183 0.286974 -1.67027e-19)
(1.28142 0.294757 4.85104e-20)
(1.23671 0.302218 -7.89555e-20)
(1.18781 0.307961 2.7624e-19)
(1.13484 0.310634 1.1608e-19)
(1.07807 0.308507 0)
(1.01806 0.299651 -3.12703e-19)
(0.955755 0.282013 0)
(0.900182 0.25787 -1.21872e-19)
(0.858073 0.233677 -1.42836e-19)
(0.826738 0.212294 -8.34353e-20)
(0.802724 0.194158 -9.84661e-20)
(0.783871 0.179142 0)
(0.768758 0.167012 0)
(0.756414 0.157623 -2.42098e-19)
(0.746091 0.150738 4.75952e-20)
(0.730638 0.145201 -2.81858e-20)
(0.376926 0.0741154 -3.24249e-20)
(0.747077 0.186996 -3.38501e-19)
(1.37089 0.355558 0)
(1.33468 0.359109 4.04062e-19)
(1.29194 0.36394 1.50928e-19)
(1.24421 0.368025 1.7148e-19)
(1.19155 0.370276 0)
(1.13409 0.369358 1.2029e-19)
(1.07221 0.363486 2.01874e-19)
(1.00662 0.35062 1.64042e-19)
(0.938558 0.328576 2.69524e-19)
(0.878184 0.300182 0)
(0.833006 0.272656 -3.03112e-19)
(0.799979 0.248875 -1.76595e-19)
(0.77517 0.229083 -1.02607e-19)
(0.756101 0.212914 6.11043e-19)
(0.741123 0.199969 7.19805e-20)
(0.729106 0.189844 3.41122e-19)
(0.719189 0.182402 -1.61863e-18)
(0.704248 0.17596 9.57106e-19)
(0.364156 0.0900268 -1.15362e-18)
(0.75292 0.226013 -3.03842e-19)
(1.37992 0.427935 6.94465e-20)
(1.34232 0.42966 -5.89961e-20)
(1.29766 0.432102 -2.02443e-19)
(1.2474 0.433469 -1.73761e-19)
(1.19153 0.432736 1.42604e-21)
(1.13015 0.428602 -1.28778e-19)
(1.06367 0.419204 2.12357e-19)
(0.992911 0.402396 -3.49789e-19)
(0.91938 0.375778 0)
(0.854476 0.342671 -1.40535e-19)
(0.806539 0.311154 -4.01089e-22)
(0.772168 0.284311 -1.88428e-19)
(0.746901 0.262189 0)
(0.727911 0.244293 -1.29776e-19)
(0.713319 0.229974 -3.04928e-19)
(0.701796 0.218869 8.13303e-19)
(0.692446 0.210474 -8.03396e-19)
(0.678163 0.20291 1.13802e-18)
(0.351347 0.103925 -1.18256e-18)
(0.75733 0.263745 -3.17976e-21)
(1.38544 0.497811 -6.9727e-20)
(1.34639 0.498222 -2.41659e-19)
(1.29996 0.498746 1.03897e-19)
(1.24744 0.497884 -9.13866e-20)
(1.18867 0.494645 0)
(1.12374 0.487645 -1.31984e-19)
(1.05299 0.47504 -2.24843e-19)
(0.97731 0.454455 -1.84742e-19)
(0.898415 0.423217 0)
(0.828982 0.384988 -1.46883e-19)
(0.778353 0.348895 -1.70706e-19)
(0.742782 0.318313 1.9976e-19)
(0.717294 0.293204 -1.17929e-19)
(0.698592 0.273062 -5.46785e-19)
(0.684552 0.257022 3.22575e-19)
(0.673745 0.244406 9.56262e-20)
(0.665049 0.234967 0)
(0.65155 0.226231 -1.06624e-18)
(0.338275 0.115826 -3.86579e-20)
(0.761027 0.300397 -3.99742e-20)
(1.38836 0.565259 7.15354e-20)
(1.34794 0.564617 1.27738e-19)
(1.29984 0.563553 3.3607e-19)
(1.24519 0.56088 -3.79197e-19)
(1.18377 0.555501 3.28725e-19)
(1.11552 0.546031 2.81675e-19)
(1.04074 0.530577 -3.59219e-19)
(0.960212 0.506527 1.03024e-19)
(0.875891 0.470728 -6.51143e-19)
(0.801699 0.427097 -1.58772e-19)
(0.748201 0.385795 0)
(0.71145 0.350741 2.11462e-19)
(0.685843 0.322072 2.45495e-19)
(0.667616 0.299125 2.889e-19)
(0.654335 0.280906 -3.39079e-19)
(0.644352 0.266638 -9.94279e-20)
(0.636516 0.255756 1.18797e-19)
(0.623911 0.245663 0)
(0.325049 0.125873 -8.20625e-20)
(0.764174 0.335909 3.99312e-19)
(1.38954 0.630226 -2.91098e-19)
(1.34772 0.628744 -1.34065e-19)
(1.29798 0.626429 2.33413e-19)
(1.24133 0.622198 -1.96421e-19)
(1.17743 0.614953 -3.8039e-21)
(1.10608 0.603423 -3.0212e-19)
(1.0274 0.585489 -1.28347e-19)
(0.942126 0.558351 -3.16671e-19)
(0.852125 0.518265 2.14999e-22)
(0.772699 0.469048 -5.01756e-19)
(0.715924 0.421961 3.87591e-19)
(0.677825 0.381731 -2.23072e-19)
(0.652164 0.348773 2.58904e-19)
(0.634596 0.322469 0)
(0.622293 0.301632 -1.76345e-19)
(0.613356 0.285446 -1.80458e-21)
(0.606548 0.27296 -4.92397e-19)
(0.595055 0.261276 -7.35111e-20)
(0.311367 0.134003 0)
(0.766323 0.369936 0)
(1.38939 0.692771 -3.09209e-19)
(1.34621 0.690503 -2.74366e-19)
(1.29494 0.687146 -2.44143e-19)
(1.23639 0.681587 -2.15426e-19)
(1.17015 0.672863 0)
(1.09587 0.659563 -1.54252e-19)
(1.01348 0.639575 -1.22031e-21)
(0.923441 0.609864 6.75672e-19)
(0.827491 0.565896 -9.15049e-20)
(0.742089 0.511107 -3.5786e-19)
(0.681393 0.457578 2.05884e-19)
(0.641624 0.411295 9.23898e-22)
(0.615943 0.373217 2.72352e-19)
(0.599247 0.34292 1.58532e-19)
(0.58817 0.319139 -3.7261e-19)
(0.580551 0.300598 4.35294e-19)
(0.575003 0.286354 1.27289e-19)
(0.564883 0.272983 5.31513e-19)
(0.297169 0.140203 -1.41252e-18)
(0.76871 0.403493 8.12464e-20)
(1.38821 0.753033 -1.55018e-19)
(1.34377 0.750057 1.32789e-19)
(1.29102 0.745682 2.51399e-19)
(1.23071 0.738999 0)
(1.16229 0.729004 -1.86844e-19)
(1.0853 0.714296 4.99031e-19)
(0.999366 0.69267 2.88429e-19)
(0.904668 0.660861 0)
(0.80239 0.613641 -1.2837e-18)
(0.710167 0.55349 9.54929e-19)
(0.644518 0.493015 0)
(0.602517 0.439659 2.48126e-19)
(0.576745 0.39553 2.35794e-21)
(0.561196 0.360517 -4.92413e-19)
(0.55169 0.333297 1.94103e-19)
(0.545775 0.312118 0)
(0.54176 0.295935 6.60823e-19)
(0.533201 0.280956 0)
(0.282913 0.144817 -6.36995e-19)
(0.770741 0.435813 -8.44144e-20)
(1.38632 0.81072 -1.54416e-19)
(1.34061 0.807202 1.43659e-19)
(1.28649 0.801973 0)
(1.22457 0.794258 -2.31612e-19)
(1.15413 0.783212 0)
(1.07466 0.767321 -5.21372e-19)
(0.985473 0.744521 -1.47498e-19)
(0.886149 0.711288 1.25328e-19)
(0.777321 0.661624 -6.34274e-19)
(0.677202 0.596694 1.01567e-19)
(0.605172 0.528972 0)
(0.559974 0.467336 -5.25248e-19)
(0.534007 0.415713 -3.28775e-21)
(0.520086 0.374893 0)
(0.512853 0.34357 -2.37085e-21)
(0.509085 0.319736 5.74702e-19)
(0.507025 0.301473 -5.4029e-19)
(0.500356 0.284897 1.5916e-19)
(0.268865 0.147781 0)
(0.772188 0.46672 0)
(1.38384 0.866188 -1.56692e-19)
(1.33688 0.862045 -1.42105e-19)
(1.28152 0.855962 -2.05228e-21)
(1.21814 0.847319 -1.16682e-19)
(1.14596 0.835292 -4.21034e-19)
(1.06425 0.818527 1.87597e-19)
(0.972074 0.795002 -1.6223e-19)
(0.868358 0.761022 5.43258e-19)
(0.752731 0.709899 -1.0171e-18)
(0.643703 0.641075 -2.07563e-21)
(0.56345 0.56602 -2.48207e-19)
(0.513491 0.494699 8.33439e-19)
(0.486986 0.433623 4.51359e-21)
(0.475372 0.38557 -3.49013e-19)
(0.471479 0.349546 -6.04006e-19)
(0.470936 0.322737 0)
(0.471383 0.302813 0)
(0.466984 0.28503 1.59068e-19)
(0.255828 0.149842 -9.05016e-20)
(0.773764 0.496559 -8.45889e-20)
(1.38075 0.919239 3.25742e-19)
(1.33274 0.914473 1.50738e-19)
(1.2762 0.907577 0)
(1.21152 0.8981 -1.92372e-21)
(1.13787 0.885234 -4.34806e-19)
(1.05417 0.867749 4.8683e-19)
(0.95939 0.843801 6.75303e-19)
(0.851691 0.809691 7.19018e-19)
(0.729299 0.758364 -8.43531e-19)
(0.610298 0.687147 -8.24199e-19)
(0.519479 0.605141 6.66775e-19)
(0.462303 0.522763 0)
(0.434256 0.449359 -1.59871e-19)
(0.426088 0.391408 -3.56921e-19)
(0.427708 0.349475 -4.04677e-19)
(0.432187 0.320132 -4.58661e-19)
(0.436244 0.299353 1.29947e-19)
(0.434596 0.281377 -8.00034e-20)
(0.245185 0.151955 -4.79784e-21)
(0.774674 0.52542 0)
(1.37718 0.969916 0)
(1.3282 0.964427 3.52618e-21)
(1.27063 0.956769 0)
(1.20484 0.946506 3.78952e-19)
(1.12992 0.93285 3.36777e-19)
(1.04467 0.914876 0)
(0.947608 0.890837 8.67622e-20)
(0.836318 0.857213 1.21905e-18)
(0.707452 0.806898 -1.93745e-18)
(0.577746 0.735172 0)
(0.473738 0.647636 -4.33872e-19)
(0.40563 0.552961 4.65847e-21)
(0.373752 0.463124 7.03836e-21)
(0.370252 0.390603 3.73429e-19)
(0.381301 0.340512 -2.48224e-22)
(0.394813 0.30933 -8.9465e-19)
(0.4048 0.290148 2.51042e-19)
(0.406645 0.274751 7.03663e-20)
(0.239562 0.155615 0)
(0.774968 0.552891 2.43536e-19)
(1.37314 1.01821 1.68465e-19)
(1.32333 1.01194 3.10018e-19)
(1.26496 1.00346 -5.76267e-19)
(1.19818 0.992422 6.53283e-19)
(1.12222 0.978087 0)
(1.03572 0.959747 3.20052e-19)
(0.936796 0.935862 -1.8734e-19)
(0.822485 0.903345 3.44565e-21)
(0.68773 0.855263 1.39786e-19)
(0.546954 0.785353 1.08847e-18)
(0.427216 0.694729 -1.55677e-19)
(0.342927 0.58774 -5.1631e-19)
(0.302121 0.476267 -1.76693e-19)
(0.303573 0.38054 1.82298e-19)
(0.331028 0.31652 4.76724e-22)
(0.362534 0.284317 2.01064e-19)
(0.384304 0.272387 -4.65034e-19)
(0.390889 0.266477 4.97972e-19)
(0.245055 0.164994 7.89316e-20)
(0.774475 0.579083 -8.07754e-20)
(1.36869 1.06409 8.62549e-20)
(1.31819 1.05698 7.22505e-21)
(1.25909 1.04768 -2.91396e-19)
(1.19159 1.03595 -1.3163e-19)
(1.11478 1.02097 -6.26591e-19)
(1.0273 1.00229 1.08333e-19)
(0.926999 0.978781 -7.93224e-19)
(0.81032 0.947806 -1.37313e-18)
(0.670438 0.903067 -1.17601e-18)
(0.519021 0.837523 0)
(0.381465 0.747636 -6.77131e-19)
(0.274363 0.630663 7.43693e-19)
(0.215012 0.492609 0)
(0.217356 0.358771 -3.91593e-19)
(0.271861 0.265786 1.76718e-19)
(0.342448 0.230754 -1.83928e-19)
(0.390194 0.23929 -1.72667e-19)
(0.405165 0.259488 -3.00334e-19)
(0.274621 0.187934 -2.23446e-19)
(0.774499 0.604409 8.11639e-20)
(1.36381 1.10757 -9.20364e-20)
(1.31274 1.09949 -2.34506e-19)
(1.25311 1.08934 -3.77387e-19)
(1.1851 1.07692 2.83061e-19)
(1.1077 1.06147 -3.87684e-19)
(1.01948 1.04251 3.49252e-19)
(0.918244 1.01946 -8.34908e-19)
(0.799794 0.990318 -8.19692e-19)
(0.655853 0.94988 1.2494e-18)
(0.494781 0.891163 2.43274e-18)
(0.338625 0.807048 0)
(0.201983 0.686098 0)
(0.10824 0.520526 -2.05512e-19)
(0.0952792 0.326877 0)
(0.187615 0.166194 3.19091e-19)
(0.345915 0.114484 2.7241e-19)
(0.463669 0.174073 0)
(0.491482 0.262493 0)
(0.352448 0.240727 1.01554e-19)
(0.773471 0.627853 -7.72006e-20)
(1.35856 1.14863 -7.70636e-20)
(1.30708 1.1396 -1.63774e-19)
(1.24708 1.12856 3.05323e-19)
(1.17863 1.11541 2.92415e-19)
(1.10084 1.09947 4.67898e-19)
(1.01217 1.08025 -4.90732e-19)
(0.910392 1.05784 1.1852e-21)
(0.790899 1.03078 -4.82887e-21)
(0.643987 0.995186 -4.31916e-21)
(0.475083 0.945493 1.26159e-18)
(0.301299 0.872629 0)
(0.130619 0.758153 7.856e-19)
(-0.0183626 0.574665 4.76974e-19)
(-0.0885249 0.300086 8.77946e-19)
(0.026071 -0.0187078 1.67135e-19)
(0.386177 -0.164859 3.06899e-20)
(0.721548 0.0342657 -1.1186e-21)
(0.72951 0.321565 0)
(0.498684 0.370307 -8.70442e-20)
(0.773044 0.651043 1.47546e-19)
(1.35317 1.18732 0)
(1.30146 1.17742 -1.6112e-19)
(1.24106 1.16552 2.36316e-19)
(1.17216 1.15162 -2.96658e-19)
(1.09419 1.13504 -6.20694e-19)
(1.00545 1.11536 1.02005e-18)
(0.903522 1.0936 -6.35603e-20)
(0.783442 1.06867 0)
(0.634702 1.03839 -1.40726e-18)
(0.46022 0.999384 -2.78354e-18)
(0.271915 0.942963 1.06387e-19)
(0.0677685 0.848555 1.13078e-18)
(-0.154408 0.674727 0)
(-0.364244 0.330794 6.53991e-19)
(-0.391981 -0.293218 0)
(0.119021 -0.616109 0)
(0.998224 -0.0242855 3.79551e-19)
(1.15227 0.520184 0)
(0.842805 0.652866 -4.9802e-20)
(0.771779 0.672021 1.44787e-19)
(1.34741 1.22382 0)
(1.29586 1.21297 -2.42156e-19)
(1.23525 1.20034 0)
(1.16609 1.18554 1.47567e-19)
(1.08796 1.16847 0)
(0.999268 1.14859 6.16555e-20)
(0.897379 1.12724 1.1759e-19)
(0.777202 1.10443 1.03176e-19)
(0.62785 1.07977 -1.55953e-18)
(0.450142 1.05249 8.64999e-20)
(0.251847 1.01656 8.46798e-19)
(0.0212893 0.956211 1.11863e-18)
(-0.273456 0.840246 1.4267e-19)
(-0.703555 0.595003 5.61139e-19)
(-1.24688 0.312524 0)
(-1.10499 0.923262 -1.60348e-18)
(-0.16966 1.80439 1.12289e-18)
(0.139489 1.86971 -7.1657e-19)
(-0.167152 2.28987 2.82466e-19)
(0.77004 0.691824 -1.05179e-19)
(1.34114 1.25858 -2.36277e-19)
(1.28995 1.24675 0)
(1.22956 1.23344 7.17849e-21)
(1.16046 1.21789 -3.74036e-19)
(1.08216 1.2004 1.06145e-18)
(0.993787 1.18115 3.92127e-19)
(0.892097 1.1603 0)
(0.772482 1.13944 7.1935e-19)
(0.623581 1.12061 -8.54489e-20)
(0.445073 1.10662 0)
(0.242278 1.09504 0)
(-0.000493383 1.07964 1.01991e-18)
(-0.325899 1.05662 -4.40185e-19)
(-0.821299 1.05715 -6.32113e-19)
(-1.41894 1.3518 0)
(-1.64023 2.25406 -3.04839e-19)
(-1.07218 2.99614 4.31876e-19)
(-0.654814 3.35288 1.84543e-19)
(-0.430162 3.39497 1.35352e-19)
(0.768187 0.710283 6.24857e-20)
(1.33446 1.2911 2.73174e-19)
(1.2837 1.27853 -1.25782e-19)
(1.22333 1.2647 -1.59753e-19)
(1.15468 1.2489 0)
(1.07667 1.23113 7.22427e-19)
(0.989402 1.2118 5.91772e-19)
(0.888117 1.19204 -6.04734e-20)
(0.769268 1.17359 1.05692e-19)
(0.622021 1.1603 1.50997e-18)
(0.445744 1.15888 1.43736e-18)
(0.245354 1.17175 9.64966e-19)
(0.00766725 1.20157 1.02965e-18)
(-0.295325 1.26742 -1.04479e-18)
(-0.672784 1.42824 -9.51789e-19)
(-1.06706 1.82586 0)
(-1.22889 2.41549 0)
(-0.979593 2.91235 4.82766e-20)
(-0.70002 3.01954 0)
(-0.526809 3.07796 2.10211e-20)
(0.767253 0.73081 0)
(1.32736 1.321 0)
(1.27737 1.30809 0)
(1.21662 1.29365 -3.80895e-20)
(1.14776 1.27761 -3.197e-19)
(1.07039 1.25999 5.0774e-19)
(0.984568 1.2414 4.00097e-19)
(0.88467 1.22266 -6.07406e-20)
(0.768345 1.20674 9.32046e-19)
(0.62481 1.19944 -1.21353e-20)
(0.454702 1.21003 2.85014e-18)
(0.264867 1.24425 -1.08309e-19)
(0.046932 1.30951 1.25582e-19)
(-0.21158 1.43057 1.4545e-19)
(-0.474609 1.63686 1.17758e-21)
(-0.676439 1.98223 2.04086e-20)
(-0.737007 2.3712 -7.64689e-19)
(-0.661319 2.66222 -2.12159e-19)
(-0.51374 2.79457 6.87057e-20)
(-0.426011 2.87474 -8.19029e-20)
(0.645725 0.666537 -1.86785e-20)
(1.32097 1.34786 0)
(1.27101 1.33582 2.06803e-19)
(1.21098 1.32147 3.69995e-19)
(1.14181 1.30529 -5.87247e-19)
(1.06445 1.28728 -5.21171e-19)
(0.979943 1.268 -4.37147e-19)
(0.881764 1.25048 7.70914e-19)
(0.768628 1.2378 -7.84544e-19)
(0.631238 1.23666 0)
(0.472924 1.25874 1.40568e-18)
(0.303824 1.31216 -7.76581e-19)
(0.123982 1.40317 0)
(-0.0810484 1.55563 1.42498e-19)
(-0.264566 1.77359 2.94917e-19)
(-0.393175 2.06742 -2.81269e-19)
(-0.450151 2.34617 2.93651e-19)
(-0.435346 2.54779 1.42253e-19)
(-0.357265 2.67024 1.22572e-19)
(-0.312573 2.76254 1.8352e-19)
(0.851629 0.848559 6.34571e-20)
(1.31478 1.38392 0)
(1.25984 1.37585 -1.80449e-19)
(1.19981 1.36291 -3.31381e-19)
(1.13116 1.34723 5.48424e-19)
(1.05451 1.32893 4.84947e-19)
(0.969371 1.31075 5.70129e-19)
(0.873352 1.295 5.93228e-20)
(0.763205 1.28606 8.00022e-19)
(0.630773 1.29302 1.3787e-18)
(0.483382 1.3305 8.39121e-20)
(0.336059 1.40919 7.01759e-19)
(0.193512 1.53045 1.16024e-19)
(0.0710609 1.7022 -1.30607e-19)
(-0.0173867 1.92552 -2.60409e-19)
(-0.0739365 2.17876 2.44542e-19)
(-0.124553 2.36935 -2.57224e-19)
(-0.140485 2.48461 -1.29596e-19)
(-0.126767 2.60309 -1.05713e-19)
(-0.191262 2.70612 -1.11808e-20)
(0.846617 0.847493 0)
(1.31031 1.4122 -2.61572e-20)
(1.25567 1.40609 2.93296e-20)
(1.19395 1.39291 3.11449e-20)
(1.12562 1.37585 3.33405e-19)
(1.04874 1.35687 -4.58259e-19)
(0.963722 1.33758 -3.57568e-19)
(0.866892 1.32098 5.62128e-20)
(0.756026 1.31165 -8.63828e-19)
(0.62683 1.32044 -1.61215e-20)
(0.486781 1.36455 -2.64824e-18)
(0.354058 1.45103 9.73762e-20)
(0.233734 1.58126 -1.10721e-19)
(0.144429 1.75655 -1.17455e-19)
(0.0909738 1.97264 1.58968e-20)
(0.0772078 2.19278 -8.46982e-21)
(0.0346788 2.37528 4.06009e-19)
(0.00681487 2.47103 1.94172e-19)
(-0.00163987 2.58848 -4.09303e-20)
(-0.075511 2.68127 -6.23096e-20)
(0.815947 0.836187 -2.88409e-20)
(1.30655 1.44731 -1.56182e-19)
(1.24891 1.43743 8.04611e-20)
(1.1856 1.42146 1.17964e-19)
(1.11618 1.40272 0)
(1.04003 1.38331 -5.89221e-19)
(0.955104 1.36684 -4.98505e-19)
(0.861265 1.35373 5.30225e-20)
(0.756053 1.34898 -9.36482e-20)
(0.636212 1.36177 -1.32629e-18)
(0.511161 1.41244 -1.2485e-18)
(0.400351 1.5049 -8.3398e-19)
(0.309476 1.63955 -8.1852e-19)
(0.248776 1.8145 7.76192e-19)
(0.224042 2.01503 6.63004e-19)
(0.238617 2.21169 0)
(0.205769 2.40616 0)
(0.169846 2.52279 -4.11066e-20)
(0.128002 2.6369 0)
(0.0346944 2.69586 -1.98574e-20)
(0.782935 0.832523 1.42755e-20)
(1.29797 1.48278 9.89107e-20)
(1.23945 1.46927 0)
(1.17617 1.45357 9.14027e-21)
(1.10696 1.43485 2.72846e-19)
(1.03139 1.41654 -8.12793e-19)
(0.948413 1.4013 -3.08391e-19)
(0.856016 1.38588 4.61973e-20)
(0.754011 1.37764 -6.84382e-19)
(0.641248 1.3893 7.27118e-20)
(0.530337 1.43873 0)
(0.441453 1.5307 0)
(0.38116 1.66126 -7.72408e-19)
(0.354029 1.8248 3.05051e-19)
(0.358806 2.00779 4.12433e-19)
(0.399965 2.1969 0)