/*--------------------------------*- C++ -*----------------------------------*\
  =========                 |
  \\      /  F ield         | OpenFOAM: The Open Source CFD Toolbox
   \\    /   O peration     | Website:  https://openfoam.org
    \\  /    A nd           | Version:  10
     \\/     M anipulation  |
\*---------------------------------------------------------------------------*/
FoamFile
{
    format      ascii;
    class       volScalarField;
    location    "57";
    object      p;
}
// * * * * * * * * * * * * * * * * * * * * * * * * * * * * * * * * * * * * * //

dimensions      [0 2 -2 0 0 0 0];

internalField   nonuniform List<scalar> 
918
(
0.55613
1.18684
0.000633666
0.555553
-0.0091411
1.15385
-0.508291
0.679558
0.536319
-0.109304
-0.0435043
0.535664
1.01447
0.779674
-1.12568
-0.00963774
0.651518
-0.384408
0.53541
-0.0538502
0.704733
0.542868
0.545894
0.536474
0.600865
0.755529
0.895286
0.0215875
0.0112771
0.0049907
-0.0148995
-0.0367505
-0.0311857
1.03751
1.08857
1.11126
0.504185
0.331397
-0.37388
-0.444911
-0.435799
-0.546574
0.674909
0.672948
-0.204719
0.682637
0.685985
0.523378
0.535686
0.536593
0.537628
0.536605
0.537988
0.404033
-0.112206
-0.144305
-0.0895825
-0.0807923
0.0554793
-0.0440262
-0.0466442
-0.041835
-0.0416536
0.453561
0.529987
0.526917
0.540948
0.55156
1.12639
1.09833
1.12446
1.03806
1.05459
0.992488
0.965079
0.801061
0.822662
0.763854
0.751769
-1.55863
-2.51227
-0.534724
-0.283706
-0.0152927
-0.0072038
-0.00157376
0.647892
0.648532
0.651237
0.655007
1.07971
-0.381582
-0.48148
0.535549
0.534356
0.542691
0.54339
0.539409
0.5385
-0.0437643
-0.0396118
-0.0467365
-0.0496572
-0.0493578
0.693757
0.693856
0.537005
0.534012
0.558633
0.579488
0.57108
0.278467
0.608701
0.623541
0.585599
0.748508
0.741715
0.751
0.8689
0.831751
0.932517
0.955832
0.017491
-0.000810136
-0.0147228
-0.0187773
-0.0172123
0.500034
0.492604
0.519811
0.507606
0.510102
0.24776
0.113892
0.41666
0.441749
-0.291597
-0.355846
-0.431385
-0.460357
-0.568039
0.610538
0.668034
0.665007
-0.217328
-0.144772
-0.276737
-0.0710858
-0.13338
0.513667
0.520662
0.515671
0.531197
0.52567
0.527631
0.539949
0.537021
0.538581
0.466459
0.59026
0.330217
0.295122
-0.247233
-0.161495
-0.24802
-0.0683262
-0.0634672
0.0692952
0.0946392
0.0425778
0.0308861
-0.057365
-0.0492374
-0.0529711
-0.0406913
-0.039357
0.446352
0.435207
0.466222
0.473749
0.518335
0.519709
0.523818
0.521946
0.915983
0.938337
0.945796
0.919622
-3.50427
-6.29022
0.0418739
0.178763
-0.00609754
-0.0101853
0.00511985
-0.0105545
-0.00278336
-0.00447617
-0.00460465
-0.00611491
-0.00153185
0.000203519
0.641383
0.642212
1.00103
1.00674
0.977859
0.930217
0.523737
0.525817
0.531329
0.527204
-0.03921
-0.0397384
-0.0396581
0.688372
0.692411
0.691022
0.240319
0.151222
0.329145
0.358025
0.63487
0.623189
0.633274
0.646091
0.681269
0.96324
0.98137
0.979701
0.987991
1.03208
1.04853
1.01377
0.479551
0.489495
0.484466
0.522924
0.520693
0.521598
0.517388
0.518723
0.516659
-0.0369457
-0.417754
0.489959
0.50747
0.491373
0.494814
0.690528
0.768804
0.655442
0.660697
0.659228
-0.00260063
-0.060948
0.2508
0.217181
0.386173
0.422444
0.40148
0.887091
0.847593
0.897603
0.871121
0.832438
0.858487
-0.36937
-1.87167
-0.989243
0.528524
0.342919
0.429939
0.0128163
-0.00416874
0.000429242
0.999931
1.07333
0.646097
0.820168
0.823478
0.718765
0.749633
0.804725
0.729442
0.764846
0.800463
0.782391
0.566918
0.503265
0.518993
0.837952
0.893631
0.121861
0.0615342
0.0175354
0.113256
0.17021
0.144486
1.03404
0.947702
1.01812
0.533771
0.534486
-0.0031445
-0.017667
0.538711
0.538764
-0.015892
-0.00272868
0.413361
-0.834018
0.103645
0.527272
0.517243
0.534334
-0.0919942
0.355734
-0.0442497
0.0504128
-0.00493264
0.531541
0.464614
0.423943
0.00199226
-0.0182517
-0.0443277
-0.21689
0.531441
0.529746
0.533801
0.534749
0.535426
-0.0166333
-0.011963
-0.00895038
-0.0425693
-0.0378787
-0.0474435
0.498359
0.517197
-0.170583
0.533945
0.536076
0.535895
0.52914
0.534778
0.533025
-0.00914549
-0.0156907
-0.0172068
0.221713
0.351435
0.65363
0.741667
0.624965
0.400578
0.165067
0.556631
0.620185
0.52559
0.679434
0.664144
0.679445
0.169081
0.0188006
0.177511
0.118697
0.52513
0.523833
0.515497
0.512475
0.529197
0.527307
0.531869
0.52888
0.531832
0.533219
-0.0497853
-0.0746813
-0.0868933
-0.15607
0.310372
0.572196
0.2533
0.28378
0.143204
-0.0390754
-0.0399785
-0.0434368
-0.04936
0.00374341
-0.0198821
0.0454501
0.0461657
0.0186287
-0.00756673
-0.00395794
-0.0148036
-0.0112667
0.524625
0.523369
0.529069
0.538088
0.474221
0.477997
0.442997
0.463652
0.448958
0.38792
0.423109
0.398314
-0.00635783
0.0043138
-0.00373134
-0.0153458
-0.0113962
-0.0304203
-0.026994
-0.0232461
-0.0188004
-0.0255903
-0.0396671
-0.041135
-0.174219
-0.288935
0.987857
0.910523
0.133712
0.5206
0.527047
0.523813
0.528711
0.531839
0.532647
0.530365
0.526919
0.517552
0.519099
0.515896
0.516753
-0.102708
-0.243139
-0.0711726
-0.143788
0.142684
0.626562
0.363369
0.299931
0.294875
0.522399
0.919055
0.704198
0.678954
0.689737
-0.343641
0.0470726
-0.279415
0.337222
0.163239
0.65342
0.702549
0.724265
0.672043
0.624986
-0.105142
0.553948
-0.0694418
-0.0185609
0.181825
0.0609469
0.674846
0.649465
0.653208
0.670186
0.686328
0.655786
0.640824
0.635807
0.666082
0.668334
0.488579
0.252588
0.204035
0.165526
0.641718
0.523999
0.577393
0.493918
0.52031
0.522926
0.521557
0.503174
0.510737
0.506276
0.512773
0.516245
0.524911
0.525362
0.520663
0.522796
-0.0546236
-0.0583815
-0.0305414
-0.139422
-0.132412
-0.195072
-0.0648198
0.0736102
0.0342817
0.234974
0.340184
0.0511222
-0.0600175
-0.0328282
0.00875942
0.178449
0.205085
0.0749655
0.163216
0.152708
0.135505
0.237205
0.241357
-0.0242864
-0.0281227
-0.0308892
-0.033267
0.0214237
0.0915656
0.101393
-0.0014714
-0.00747137
-0.0368252
-0.0363579
-0.0207741
-0.0253736
-0.0217143
0.0115783
-0.0501319
-0.0174957
-0.00314864
0.00159471
-0.00100195
-0.0065242
0.516935
0.519416
0.518965
0.524882
0.54237
0.55729
0.517115
0.496364
0.487181
0.490188
0.463134
0.473452
0.469119
0.482861
0.504022
0.513686
0.510911
0.513723
0.496148
0.497846
0.484339
0.48806
0.462821
0.443801
0.431952
-0.0397258
-0.00146297
-0.00914856
-0.0356651
-0.00663792
-0.0185933
-0.00690728
0.0116513
-0.0042785
-0.0062427
-0.0163981
-0.0225628
-0.0220893
-0.0756889
0.0104046
-0.184639
-0.220904
-0.292993
0.889614
1.01366
0.809787
0.582893
0.602103
0.845401
0.93017
0.543284
0.734929
0.758432
0.585557
0.852436
0.525431
0.525034
0.522634
0.522113
0.52333
-0.0081719
0.0974188
0.0973643
0.159201
0.274605
0.386687
0.316733
0.192186
0.322643
0.325238
0.618824
0.631035
0.586544
0.61077
0.610325
0.425376
0.501228
0.553387
0.511582
0.563938
0.585029
0.540067
0.572548
0.522738
0.477525
0.473407
0.424172
0.443804
0.419992
0.402975
0.514973
0.492391
0.502924
0.493199
0.512239
0.539109
0.534489
0.561711
0.575016
0.496872
0.452365
0.46171
0.492072
0.452994
0.468101
0.484557
0.229775
0.131286
0.214056
-0.0730029
0.000240427
-0.0131866
-0.0613554
-0.0113416
0.273392
-0.419355
-0.395438
-1.02384
0.499929
0.95377
0.617065
0.589856
0.683693
0.665838
0.670594
0.687011
0.690595
0.630308
0.643083
0.646441
0.608972
0.631093
0.65011
0.647253
0.523967
0.386022
0.383514
0.333642
0.203797
0.2426
0.441553
0.364538
0.289212
0.289933
0.458186
0.34506
0.414298
0.449336
0.380812
0.335116
0.538164
0.603032
0.595596
0.570107
0.484409
0.497839
0.521735
0.556065
0.58169
0.6123
0.512228
0.518135
0.51937
0.516855
0.51412
0.517164
0.517395
0.519938
0.520605
0.523588
0.52263
-0.0440874
-0.032099
-0.0454547
-0.0535717
-0.0202719
-0.0233512
0.0195494
0.00525293
-0.0113059
-0.00549611
-0.0307189
-0.0350423
-0.0304096
-0.0215403
0.0987874
0.111331
0.094539
0.0549557
0.24846
0.378364
0.452739
0.327908
0.220608
0.243783
0.26407
-0.0115737
0.0153869
0.00228865
0.0414908
0.0331278
-0.0314211
-0.0353563
-0.0327705
-0.0258385
-0.0166669
-0.0329034
-0.035527
-0.0268597
-0.031602
-0.0331852
-0.0367742
0.498625
0.492105
0.493827
0.487642
0.486351
0.500735
0.504973
0.506965
0.512467
0.514832
0.504804
0.510657
0.51452
-0.00774136
-0.0305292
-0.0345851
-0.0229384
-0.0258549
-0.0239554
-0.0255605
0.121848
0.0509588
0.0557638
0.00795611
-0.12318
-0.065529
0.489635
0.48883
0.478868
0.719343
0.568679
0.489214
0.586386
0.691995
0.274176
0.471349
0.306027
0.887036
0.783049
0.929491
0.540819
0.242609
0.404057
0.449117
0.26091
0.335574
0.325467
0.21403
0.245123
0.281733
0.381118
0.263174
0.239508
-0.00317885
0.187009
0.29954
0.281374
0.406473
0.467651
0.263781
0.183675
0.138593
0.604225
0.623439
0.63784
0.610035
0.631173
0.576969
0.567663
0.584561
0.593363
0.588475
-0.751831
-0.458487
-1.40452
-0.725183
-0.271422
0.530197
0.499667
0.76641
0.64668
0.689777
0.675248
0.634509
0.60319
0.624215
0.64933
0.345874
0.457157
0.432324
0.437396
0.339165
0.270234
0.568422
0.564265
0.597471
0.620842
0.592289
0.622054
0.510048
0.50976
0.509237
0.505498
0.503773
0.506122
0.0580036
0.0265812
0.0630908
0.0435634
0.0203445
0.00855682
-0.00380136
-0.0135587
-0.0205961
-0.020763
-0.00760426
-0.00350208
0.169137
0.10764
0.0273067
0.0574069
-0.00364701
-0.0726587
-0.0908896
0.012816
0.109065
0.0993616
0.403644
0.653623
0.473598
0.641029
0.4831
0.538856
0.467552
0.459066
0.484622
0.377859
0.458272
0.240932
-0.26592
-0.174978
0.789149
0.801883
0.579416
0.401662
0.170509
0.351523
0.543552
0.475353
0.511711
0.580663
0.569014
0.0220132
0.0822203
0.361634
0.588774
0.236836
0.227948
0.221775
0.40333
0.323224
)
;

boundaryField
{
    wall-4
    {
        type            zeroGradient;
    }
    velocity-inlet-5
    {
        type            zeroGradient;
    }
    velocity-inlet-6
    {
        type            zeroGradient;
    }
    pressure-outlet-7
    {
        type            fixedValue;
        value           uniform 0;
    }
    wall-8
    {
        type            zeroGradient;
    }
    frontAndBackPlanes
    {
        type            empty;
    }
}


// ************************************************************************* //
