/*--------------------------------*- C++ -*----------------------------------*\
  =========                 |
  \\      /  F ield         | OpenFOAM: The Open Source CFD Toolbox
   \\    /   O peration     | Website:  https://openfoam.org
    \\  /    A nd           | Version:  10
     \\/     M anipulation  |
\*---------------------------------------------------------------------------*/
FoamFile
{
    format      ascii;
    class       volVectorField;
    location    "57";
    object      U;
}
// * * * * * * * * * * * * * * * * * * * * * * * * * * * * * * * * * * * * * //

dimensions      [0 1 -1 0 0 0 0];

internalField   nonuniform List<vector> 
918
(
(0.985161 -0.000505757 0)
(0.00501365 2.96625 0)
(0.0079925 0.885126 0)
(0.979704 0.00214655 0)
(-0.0129165 2.06167 3.31403e-20)
(-0.0070484 2.9488 -2.46999e-18)
(0.816082 1.15825 4.47243e-19)
(0.168052 0.0887334 -1.51112e-20)
(0.999909 -0.00027796 0)
(0.0598976 0.750764 0)
(0.0114726 0.546783 0)
(0.735435 -0.0187287 0)
(0.0111384 2.93034 0)
(0.00266276 2.79526 0)
(-0.0177372 3.15023 7.81277e-19)
(-0.0184405 1.91145 7.92136e-21)
(0.280273 0.0397846 1.01777e-18)
(0.185693 1.13605 3.20135e-19)
(0.962738 0.00501893 0)
(0.00940193 0.503662 0)
(0.00146716 0.118214 -7.09366e-19)
(1.00197 -0.00497671 0)
(1.00022 -0.00978657 0)
(0.975735 -0.00643913 0)
(0.595736 0.00558099 0)
(0.0153776 2.6409 0)
(-0.0148718 2.91002 9.08634e-19)
(0.0118701 0.938416 0)
(-0.0127802 1.18212 0)
(0.0128943 0.919703 0)
(-0.0143017 2.59596 0)
(-0.00142972 2.111 -2.64669e-20)
(-0.0088255 1.89341 0)
(-0.0205965 2.98761 -8.8787e-23)
(-0.0166839 3.00529 1.9195e-18)
(0.00210056 3.00017 0)
(0.871199 -0.00962906 0)
(0.403503 0.934714 1.78848e-19)
(0.801166 1.17273 -5.10675e-19)
(0.952192 1.0185 5.52439e-19)
(0.670132 1.26404 -1.03715e-19)
(0.671391 1.23784 5.97097e-19)
(0.204565 0.147212 1.47423e-20)
(0.181982 0.0640379 0)
(1.15253 0.559654 0)
(0.17754 0.136129 6.7199e-20)
(0.143368 0.0857032 -6.97284e-20)
(0.919872 -0.00745464 0)
(1.00027 0.000158819 0)
(0.999909 0.000337106 0)
(1.00363 -0.00776257 0)
(1.00096 -0.000922001 0)
(1.00017 3.50121e-05 0)
(0.0737812 1.82357 -7.72481e-19)
(0.0265609 0.957337 0)
(0.0947718 0.819845 0)
(0.0102457 0.913476 0)
(0.035383 0.682305 0)
(0.00686122 2.00818 0)
(0.00108763 0.81737 0)
(0.0111242 0.566337 0)
(-0.00342017 0.813101 0)
(0.00959874 0.531324 0)
(0.840951 -0.0157983 0)
(0.840994 0.0319238 0)
(0.767611 -0.00812327 0)
(0.805821 0.0416817 0)
(0.70408 -0.0162057 0)
(0.0146846 3.00041 9.1559e-19)
(0.0114906 3.00809 0)
(0.00610331 3.00275 0)
(0.0135509 2.99738 1.03877e-23)
(0.00795654 2.95846 -1.36079e-18)
(0.0145015 2.98199 0)
(0.0108876 2.90355 0)
(0.0242355 2.93062 2.08355e-24)
(0.0046884 2.82526 0)
(0.0307431 2.9166 0)
(-0.00474676 2.74557 0)
(0.30607 3.54423 0)
(-0.131603 3.62512 0)
(0.138245 3.24039 -7.27053e-19)
(-0.0134926 2.97808 0)
(-0.0197665 1.98034 0)
(-0.0067727 2.16202 -7.81281e-21)
(-0.0128442 1.91947 1.41852e-21)
(0.365358 0.145828 -3.53284e-19)
(0.306631 0.025026 -3.42808e-19)
(0.326813 0.153968 -1.05812e-18)
(0.247045 0.0476904 -6.90098e-19)
(0.228118 0.97903 0)
(0.269672 1.2835 -3.69841e-19)
(0.363922 1.21975 6.16587e-19)
(0.987445 0.00856745 0)
(0.941878 0.00583234 0)
(1.0003 0.000580163 0)
(1.00286 0.00930832 0)
(1.00301 0.00846897 -2.73957e-18)
(0.991909 0.00969643 2.06882e-18)
(-0.00368942 0.802074 0)
(0.0096035 0.51589 0)
(-0.0399974 1.00824 0)
(-0.0195236 0.83961 0)
(0.00436168 0.499036 0)
(0.0116498 0.127641 2.19008e-19)
(0.0890465 0.0982873 0)
(0.99355 -0.00837351 0)
(0.954453 -0.00652744 0)
(0.749204 0.0438977 0)
(0.684066 0.0371535 0)
(0.663449 -0.0131632 0)
(0.968733 -0.00776721 0)
(0.596483 0.0697075 0)
(0.444187 -0.0144913 1.53738e-18)
(-0.0370498 2.86219 6.70688e-19)
(0.0409578 2.91015 0)
(0.0537323 2.88599 0)
(-0.00418758 2.70046 0)
(-0.0131212 2.98516 8.60195e-19)
(-0.0178728 2.89502 0)
(-0.0154317 2.98804 -2.66762e-18)
(-0.0132582 2.92518 9.13488e-19)
(-0.0210745 1.34525 0)
(0.00142666 1.37404 0)
(-0.00687967 2.1279 4.76838e-22)
(-0.00597742 2.0902 0)
(-0.0202896 1.89957 0)
(0.938457 -0.00744426 0)
(0.857242 -0.00994356 0)
(0.863299 0.00580617 0)
(0.949505 -0.00786364 0)
(0.883964 -0.00817553 0)
(0.515097 1.1278 -2.25949e-19)
(0.564238 1.17885 0)
(0.368087 0.879676 3.34739e-20)
(0.310582 0.738439 0)
(0.913058 1.05605 -1.52248e-19)
(1.02972 0.865902 3.07893e-19)
(0.357482 1.3461 0)
(0.522959 1.31908 0)
(0.545969 1.25647 0)
(0.120354 0.185078 -3.01559e-19)
(0.229545 0.142397 0)
(0.205621 0.0723873 1.93416e-19)
(1.0008 0.920309 0)
(1.07373 0.774558 0)
(1.09882 0.716025 -2.43005e-19)
(1.13194 0.619141 0)
(1.18278 0.403307 5.67369e-20)
(0.957704 -0.00873496 0)
(0.962482 -0.0100514 0)
(0.901697 -0.00797438 0)
(0.984197 -0.00915276 0)
(0.974696 -0.00934472 0)
(0.937118 -0.00636975 0)
(1.00019 0.00233909 0)
(1.0009 0.00141088 0)
(0.99991 0.000854633 0)
(0.0352302 2.07348 4.28175e-19)
(0.119125 1.76661 0)
(0.0176286 2.18767 6.58001e-19)
(0.0465607 1.87722 -5.49125e-19)
(0.101799 1.14493 -2.62287e-19)
(0.0436579 1.03183 0)
(0.14039 0.975807 0)
(0.00428135 0.874134 0)
(0.016995 0.629965 0)
(-0.00141355 2.24005 -8.55069e-22)
(0.0160393 2.01311 0)
(-0.00222715 2.2416 -3.19983e-20)
(0.00848031 2.01662 5.09063e-20)
(0.00186481 0.85041 0)
(0.0020243 0.829926 0)
(0.0113492 0.592505 0)
(-0.0058387 0.810066 0)
(0.00163221 0.521637 0)
(0.937782 0.00963634 0)
(0.849308 -0.0148375 0)
(0.927139 0.000294815 0)
(0.842036 -0.0129414 0)
(0.812094 -0.000974535 0)
(0.899646 0.0213768 0)
(0.873944 0.0264385 0)
(0.788735 -0.00406193 0)
(0.00557182 3.06471 -8.53592e-21)
(0.0166461 3.05778 0)
(0.0146225 2.96902 0)
(0.00861941 2.8762 0)
(0.92191 3.95781 0)
(1.23551 3.29122 9.28541e-19)
(0.0691248 3.07043 0)
(-0.0293173 2.90317 0)
(-0.00771434 1.39437 0)
(-0.0251604 1.69247 0)
(-0.0126629 1.52872 0)
(-0.0271487 2.55625 -1.16732e-20)
(-0.0110503 2.24376 0)
(-0.0161569 2.39229 0)
(3.0804e-05 1.94349 8.53865e-22)
(-0.00371268 2.2352 -4.60202e-21)
(-0.00570587 2.19643 -1.57909e-21)
(-0.00736823 1.93004 0)
(0.414236 0.126847 5.38453e-19)
(0.354933 0.01386 -5.28398e-19)
(0.259207 1.58495 0)
(0.276259 0.752299 -3.15065e-19)
(0.17702 1.67185 -1.04827e-18)
(0.226145 1.21663 1.05061e-18)
(0.902064 0.00639868 0)
(0.96742 0.0111085 0)
(0.974558 0.0108028 0)
(0.92333 0.00642472 0)
(-0.00150536 0.803662 0)
(-0.00673224 0.802356 0)
(0.00102051 0.516089 0)
(0.154646 0.125844 6.21349e-19)
(0.130157 0.114651 -7.32844e-19)
(0.118476 0.0874393 0)
(1.09583 0.0853567 2.71575e-20)
(1.07803 0.038933 0)
(1.01108 0.0395925 0)
(0.905583 -0.00589179 0)
(0.462392 0.106409 0)
(0.520531 0.0875702 -2.456e-18)
(0.398685 0.00916277 9.18102e-19)
(0.00873801 2.98047 7.19956e-19)
(-0.0332384 2.86494 4.55123e-20)
(0.0036455 3.05025 -1.80741e-20)
(0.0201978 3.04335 6.42966e-19)
(-0.0149892 2.99657 3.0002e-20)
(-0.0129699 2.94948 -1.2068e-22)
(-0.0172754 3.01191 -5.55139e-19)
(0.0149167 3.02366 4.02048e-19)
(0.00741955 3.03689 -6.37083e-19)
(0.933698 -0.00132098 0)
(0.939266 -0.00327753 0)
(0.845631 -0.00946166 0)
(0.956568 0.0118734 0)
(0.942733 0.0131967 0)
(0.88162 0.00590551 0)
(0.917061 0.0172091 0)
(0.925977 0.0150083 0)
(0.838524 0.00248482 0)
(0.717614 1.40516 4.27623e-20)
(0.750897 1.51389 0)
(0.183057 0.317493 7.0534e-20)
(0.226961 0.668098 5.68348e-19)
(0.262345 0.721145 -3.3169e-19)
(0.264264 0.524816 6.59618e-19)
(0.344644 0.809022 1.58712e-18)
(0.139467 0.229495 3.74629e-19)
(0.289618 0.156063 7.31355e-19)
(0.258125 0.152566 1.90013e-19)
(0.223077 0.0607991 3.60961e-19)
(1.17198 0.461407 5.90494e-20)
(1.18829 0.255225 5.45019e-20)
(0.00978565 2.23574 2.53752e-19)
(0.0407301 1.94443 0)
(0.969373 0.029085 0)
(0.942389 0.0137295 0)
(0.867859 -0.0180167 0)
(0.0113695 3.07445 0)
(0.0197194 2.94403 1.17656e-18)
(0.0164216 2.95637 0)
(0.0063328 2.8506 -1.16735e-18)
(0.00621836 3.09087 2.85467e-19)
(0.00716146 3.08238 0)
(0.783734 1.81566 -1.59948e-19)
(1.24333 2.49181 4.07286e-19)
(0.765761 1.95507 -1.23405e-18)
(0.0198633 2.98097 -6.19928e-19)
(0.0351907 2.99991 0)
(-0.0343459 2.87738 0)
(-0.00421952 2.22055 -1.30968e-20)
(-0.00330249 2.24154 5.49691e-21)
(0.0022763 1.9778 -7.32553e-21)
(0.277831 1.39347 1.02372e-18)
(0.236638 0.545326 -7.02036e-19)
(0.0635849 1.99825 7.62964e-19)
(0.135356 1.88464 -9.10208e-19)
(0.180282 1.50881 9.45656e-20)
(0.00185501 3.11916 -1.77662e-18)
(0.0138106 3.11879 1.92016e-18)
(-0.00902354 2.98116 7.89739e-19)
(-0.00415232 2.97749 -7.45092e-19)
(-0.0210114 2.88092 -8.04333e-19)
(0.0085885 3.10026 -2.12346e-18)
(0.00229358 3.1052 2.09034e-18)
(0.281081 0.694608 0)
(0.248003 0.684023 -1.17996e-18)
(0.0959668 0.225576 5.24e-19)
(0.356482 0.93546 1.11007e-18)
(0.194534 0.275003 -1.71144e-18)
(1.18117 0.173863 6.38268e-20)
(1.18886 0.309703 0)
(1.16955 0.1219 -7.78112e-21)
(0.00104328 2.25259 -1.49642e-21)
(0.00444208 2.24479 0)
(0.0249046 1.9795 0)
(0.340078 1.30241 -3.67795e-19)
(0.37369 1.14717 -7.98715e-19)
(0.208995 0.37604 1.42359e-18)
(1.00588 -0.0108379 0)
(1.00767 -0.00763907 5.0542e-19)
(-0.0186485 1.32542 0)
(-0.032976 1.32264 0)
(1.00222 0.0035102 1.80903e-21)
(1.00366 0.00946178 1.03189e-18)
(-0.0179595 2.54015 1.47978e-20)
(-0.0228259 2.58275 0)
(0.0343955 3.17733 4.1011e-19)
(0.391955 3.48548 0)
(1.17036 0.659718 -5.93397e-20)
(1.01287 0.0131241 -2.13954e-21)
(1.02131 -0.0103216 0)
(1.0017 0.000122202 7.68906e-23)
(0.103927 1.36221 0)
(0.144044 2.57393 0)
(0.0264844 1.30473 0)
(-0.00108526 2.62469 3.01232e-20)
(-0.0222197 2.58115 6.20722e-21)
(0.999365 0.0289146 2.32912e-21)
(1.06278 0.00445027 0)
(1.09685 0.0246312 0)
(-0.026702 1.73503 0)
(-0.0184804 2.58214 0)
(-0.00335264 1.30738 0)
(0.309459 1.47682 -1.71181e-19)
(1.01129 -0.00962573 0)
(1.0094 -0.014921 0)
(1.00236 0.000743579 6.45862e-19)
(1.00547 -0.00480726 -7.59149e-19)
(1.00118 -0.000974381 0)
(-0.0124398 1.46012 0)
(-0.00591131 1.37242 0)
(-0.00450334 1.41785 0)
(-0.00719259 1.29574 0)
(-0.0134976 1.28393 0)
(-0.00543434 1.26504 0)
(1.03492 -0.00613748 0)
(1.0199 0.015628 -8.55931e-22)
(0.820319 1.27107 2.59414e-19)
(1.00223 0.000307462 -6.43491e-19)
(1.00406 0.0052554 7.53262e-19)
(1.00118 0.00207129 0)
(1.01275 0.0103425 6.40283e-19)
(1.00799 0.00830602 -7.75816e-19)
(1.00856 0.0146923 0)
(-0.0229063 2.61012 0)
(-0.0242614 2.58987 -1.8401e-20)
(-0.0221106 2.60381 1.31368e-20)
(1.23487 0.26544 5.84307e-19)
(1.16086 0.0863221 0)
(0.0409361 3.07766 -9.17309e-19)
(0.0646911 2.85571 -6.67483e-20)
(0.138755 3.19218 1.40303e-18)
(0.133921 3.22023 -1.98656e-19)
(0.13296 3.23128 0)
(0.0197467 3.1375 2.36667e-19)
(0.0748192 3.15991 9.04642e-19)
(0.0674182 3.18538 -4.46082e-19)
(0.0224384 3.12966 0)
(0.604029 0.277363 0)
(0.527631 0.307658 0)
(1.14104 0.695957 1.36568e-19)
(1.13587 0.817375 -1.22215e-19)
(1.19821 0.582478 0)
(1.22682 0.517539 0)
(1.01607 0.0133565 -1.1935e-18)
(1.01498 0.0142748 1.49814e-18)
(1.02533 -0.00984219 0)
(1.0234 -0.0118755 0)
(1.00642 0.00260217 0)
(1.01042 0.00372384 0)
(1.00459 0.00185287 0)
(1.0098 0.00623161 0)
(1.00782 0.00596092 0)
(1.00451 0.00470216 0)
(0.0930951 1.35999 0)
(0.0880772 1.32725 0)
(0.125974 1.39844 0)
(0.141747 1.40392 0)
(0.145479 2.59885 0)
(0.185556 2.66834 -4.23612e-19)
(0.101058 2.6546 0)
(0.0847801 2.65711 1.97925e-19)
(0.0379679 2.67941 -1.50238e-19)
(0.0182102 1.31844 0)
(0.0206174 1.2457 0)
(0.0202479 1.32917 0)
(0.033981 1.26723 0)
(0.00210442 1.98364 7.25193e-22)
(-0.0210405 2.60901 -1.55633e-20)
(-0.00946324 2.66623 1.60841e-20)
(-0.019194 2.68453 0)
(-0.0237379 2.61469 -1.12498e-20)
(-0.0237919 2.60947 9.04347e-21)
(0.0110255 1.98219 2.04751e-21)
(-0.00806107 2.39724 2.08813e-20)
(-0.0141787 2.41914 -1.82408e-20)
(1.00952 0.0380128 1.21672e-18)
(1.00509 0.016016 -1.50716e-18)
(1.00146 0.0456714 -1.22535e-18)
(0.976492 0.0262446 1.55544e-18)
(1.064 0.00824645 0)
(1.04919 -0.00834585 0)
(1.09399 0.0346816 0)
(1.07403 0.0126986 0)
(1.07181 0.000413394 0)
(1.13988 0.0824688 0)
(1.11126 0.0441301 0)
(1.11483 0.032018 0)
(-0.023311 2.43133 1.10267e-21)
(-0.0126771 2.0096 0)
(-0.0129491 2.21413 0)
(-0.0201797 2.60291 -9.71811e-21)
(-0.0175729 2.61277 1.39449e-22)
(0.0034936 1.56987 -3.29355e-20)
(-0.00410104 1.49879 3.35384e-20)
(-0.0133526 1.38806 0)
(-0.0168575 1.39491 0)
(-0.0211417 1.38976 0)
(-0.00305769 1.30798 0)
(0.00766508 1.23595 0)
(0.386862 1.49389 2.79323e-19)
(0.429966 1.49413 1.45989e-19)
(0.597942 2.44751 -2.39832e-19)
(0.399502 2.54473 7.05898e-19)
(0.351528 2.05823 7.05284e-20)
(1.02104 -0.00813745 0)
(1.01549 -0.00975949 0)
(1.01491 -0.0155062 0)
(1.0074 -0.00110025 0)
(1.00493 -0.0009205 0)
(1.00778 -0.00470423 0)
(1.00927 -0.003633 0)
(1.01421 -0.00440106 0)
(1.02065 0.0162668 1.169e-18)
(1.01775 0.0155822 -1.49571e-18)
(1.02098 0.0182663 -1.178e-18)
(1.01867 0.0166502 1.4745e-18)
(0.783711 1.32193 0)
(0.721047 1.3711 2.46738e-19)
(0.89445 1.22238 9.68102e-20)
(0.940067 1.16691 -1.28798e-19)
(1.15551 2.60158 2.72953e-19)
(0.775489 0.120463 5.98699e-19)
(1.16285 0.107953 0)
(1.21097 0.193009 -4.69954e-19)
(1.19771 0.154541 -1.99591e-20)
(1.00596 0.155309 0)
(0.130358 2.95911 5.33995e-19)
(0.107068 2.86505 -1.16284e-18)
(0.0164693 2.37482 7.78928e-19)
(0.0923469 -0.119077 -3.37839e-19)
(0.33686 3.41527 -2.1544e-19)
(0.19144 3.30943 0)
(0.235239 3.35025 2.80578e-19)
(0.240824 3.0316 -1.78229e-18)
(0.334592 3.1901 0)
(0.00701202 3.12092 4.61769e-20)
(0.0163628 3.12983 -5.44547e-19)
(0.0151368 3.12589 8.01477e-19)
(0.035233 3.13978 0)
(0.0335767 3.15036 0)
(1.21169 2.59956 0)
(0.542591 0.811865 -5.27702e-19)
(1.06271 0.990931 -6.12446e-21)
(0.996792 1.07656 0)
(0.850521 0.973189 -1.10176e-19)
(1.08678 0.892141 2.8197e-20)
(0.328567 0.350254 -8.72458e-19)
(0.666823 0.3182 -1.79733e-20)
(0.592317 0.220887 4.1241e-19)
(0.553865 0.343925 3.04472e-20)
(0.4494 0.292457 -1.22362e-18)
(0.629849 0.322491 0)
(0.703635 0.419809 7.02923e-19)
(0.710518 0.421663 0)
(0.590743 0.340807 0)
(0.533192 0.250704 0)
(0.816821 0.619955 4.14378e-19)
(1.23593 0.287825 -4.92373e-19)
(1.23544 0.426296 0)
(1.24389 0.366569 0)
(0.704298 0.194261 6.19744e-19)
(0.865796 0.548668 -3.8108e-19)
(0.763623 0.518314 6.76524e-19)
(0.959255 0.44009 -7.42471e-19)
(1.01934 0.0148959 8.02051e-19)
(1.01764 0.0143181 -8.07178e-19)
(1.01591 0.0154197 0)
(1.03638 -0.00567281 0)
(1.02984 -0.00842095 -7.55968e-19)
(1.02788 -0.0119972 7.48454e-19)
(1.02489 0.0103555 0)
(1.02343 0.0140673 0)
(1.01142 0.00413146 0)
(1.01422 0.00911731 0)
(1.01514 0.00412275 0)
(1.01426 0.00286632 0)
(0.0622869 1.34388 0)
(0.0671805 1.2962 0)
(0.143515 1.38004 1.31193e-20)
(0.279859 1.47445 9.17147e-20)
(0.171783 1.44553 1.93281e-19)
(0.204824 1.45082 -3.14781e-19)
(0.167727 1.40532 0)
(0.135181 1.59995 -6.94045e-20)
(0.117721 1.57634 0)
(0.348944 2.00913 -1.02547e-19)
(0.343812 2.34358 6.13762e-19)
(0.192512 1.46091 6.04931e-20)
(0.265396 1.3939 2.48115e-20)
(0.201349 1.38353 -2.01101e-20)
(0.277937 1.33799 -9.92574e-20)
(0.243847 1.58183 0)
(0.267211 1.61963 1.09345e-19)
(0.030513 2.26426 -2.89361e-20)
(0.0430035 2.66894 0)
(0.0659416 2.40106 1.33526e-19)
(0.0623647 2.42189 0)
(0.0690121 2.67079 -2.19327e-19)
(0.0485275 2.69891 0)
(0.0265514 1.42471 2.93034e-20)
(0.033655 1.4766 0)
(0.028883 1.39284 0)
(0.0238477 1.39635 -3.30644e-20)
(-0.000458401 2.65253 -1.72728e-20)
(0.0289491 2.698 1.68824e-19)
(0.00956194 2.72254 1.19318e-21)
(0.00221193 1.83313 1.52398e-22)
(-0.00359721 1.68523 -1.95704e-21)
(0.0151961 1.2983 0)
(0.0198836 1.22136 0)
(0.0461894 1.58483 -2.59235e-20)
(0.0292404 1.4585 -3.14938e-20)
(0.0360778 1.5233 3.96584e-20)
(0.0390811 1.60894 0)
(-0.02919 2.27007 9.0629e-20)
(-0.0303379 2.54958 -3.79348e-20)
(-0.0164081 2.44695 3.25542e-21)
(-0.00408164 1.84974 -1.84666e-22)
(-0.0255876 2.49941 7.58619e-22)
(-0.0210929 2.44281 5.31484e-21)
(1.01882 0.021149 -8.00291e-19)
(1.01455 0.0272513 8.02329e-19)
(1.0137 0.01677 0)
(1.01155 0.0718346 1.12426e-18)
(0.990452 0.0594543 -1.26621e-18)
(0.948133 0.0508057 1.41449e-18)
(1.01448 0.112027 -1.50008e-19)
(1.04277 -0.0056797 0)
(1.05111 -0.00134438 7.20955e-19)
(1.03906 -0.00983084 -7.22469e-19)
(1.07141 0.0425343 -4.28747e-20)
(1.06467 0.0238132 3.69719e-19)
(1.06326 0.0563034 0)
(1.0536 0.0500434 -1.3297e-19)
(1.03258 0.0430648 0)
(1.02533 0.0394105 0)
(1.02782 0.0134195 0)
(1.02391 0.0160844 0)
(1.03987 0.0324121 2.73949e-19)
(1.03916 0.0275244 -6.0571e-19)
(1.05106 0.0342786 -2.90255e-19)
(1.04819 0.0342549 -3.19793e-19)
(1.07134 0.0648806 6.23499e-19)
(1.09655 0.0524375 0)
(1.10527 0.0964525 0)
(-0.0246872 2.27516 5.12435e-20)
(-0.0227516 2.01712 6.27702e-22)
(-0.0191696 2.02387 0)
(-0.0265968 2.44465 -5.10167e-20)
(-0.0208844 2.40037 -1.67518e-21)
(-0.0313676 2.47243 5.27289e-21)
(-0.0210016 2.62195 -8.34908e-21)
(-0.0230544 2.56352 -1.76032e-22)
(-0.0215383 2.51511 -1.96963e-21)
(-0.0158882 2.61576 8.46007e-21)
(-0.0210091 2.61775 -8.77306e-21)
(-0.00450506 1.48958 -3.94101e-22)
(0.00438184 1.61818 -3.00715e-20)
(0.371306 1.44414 -1.18341e-19)
(0.371196 1.3819 3.25334e-20)
(0.661461 1.42136 -2.38673e-19)
(0.528908 1.48714 -1.43415e-19)
(0.587679 1.4534 0)
(0.593741 2.42433 2.06613e-19)
(0.661844 2.41908 3.37228e-19)
(0.41162 2.51463 8.74633e-20)
(0.403144 2.53915 -6.08116e-19)
(0.511153 2.48071 6.11245e-19)
(0.553568 2.46129 0)
(0.488742 2.51894 -5.58838e-19)
(0.248734 2.59199 1.14355e-18)
(0.355047 2.56394 -7.80206e-20)
(0.284374 2.65364 -1.58548e-18)
(0.947849 2.37644 7.2521e-19)
(0.83828 2.38181 0)
(1.01105 0.00049917 2.62003e-20)
(1.01533 -0.00540731 -2.12567e-20)
(1.01766 -0.00352588 -3.88243e-19)
(1.01501 -0.000881082 3.90269e-19)
(1.01243 0.00120794 0)
(0.647255 1.28729 0)
(0.669419 1.18286 0)
(0.782231 1.10123 0)
(0.662028 1.14591 0)
(1.18542 2.61522 5.97663e-20)
(1.07364 2.36237 0)
(0.835461 2.16919 3.79975e-21)
(0.824769 2.43433 0)
(0.922409 2.52739 -4.19812e-19)
(0.957695 2.48349 2.79283e-19)
(0.802877 0.178795 0)
(0.751861 0.153904 1.62399e-19)
(0.912666 0.150027 9.45232e-19)
(0.827249 0.152819 -3.54919e-19)
(0.785137 0.0883211 -1.09144e-18)
(1.08123 0.238741 -8.92252e-19)
(0.998645 0.299853 -1.67284e-20)
(0.929292 0.302906 8.61448e-19)
(1.00778 0.231022 7.20624e-19)
(0.950119 0.195873 -1.25123e-18)
(0.913472 0.200171 1.56429e-19)
(0.952997 0.264689 -3.32097e-19)
(0.928677 0.226559 0)
(0.994636 0.192201 6.16921e-19)
(1.04693 0.192254 0)
(1.04446 0.22019 0)
(1.10681 0.120018 2.8959e-19)
(1.07087 0.179262 -1.48422e-20)
(1.07505 0.238946 -1.57573e-19)
(1.10147 0.205248 0)
(1.02321 0.0471757 6.17862e-19)
(1.03968 0.0598861 7.70345e-19)
(1.03405 0.0456835 -6.12566e-19)
(1.04309 0.0669719 -5.16231e-19)
(1.02043 0.0750753 -7.9123e-19)
(0.987097 0.160911 0)
(0.995397 0.106107 0)
(0.96455 0.0697622 -5.02624e-19)
(0.90821 0.0963944 1.98569e-19)
(1.03954 0.106731 7.13982e-19)
(1.06917 0.12344 -8.35257e-19)
(1.07507 0.155972 7.4573e-19)
(1.03017 0.147344 0)
(1.07487 0.111281 0)
(1.05486 0.0921649 -3.42137e-19)
(1.04357 0.0965045 -5.83643e-19)
(0.579686 1.06006 1.38324e-19)
(0.606422 1.3879 -3.97742e-20)
(1.1553 2.73116 -2.24473e-19)
(1.2211 3.07327 1.14446e-21)
(1.24724 2.7141 -1.18805e-19)
(1.276 2.69758 -3.46779e-20)
(1.2037 2.33797 -1.08871e-20)
(1.20873 2.97715 -9.05458e-20)
(1.22874 2.94255 2.3009e-19)
(1.21136 3.22631 -1.44448e-19)
(1.37131 2.9575 1.99637e-19)
(1.36038 2.87564 0)
(0.557292 0.820061 -4.99709e-20)
(0.11705 1.23317 5.6967e-19)
(0.548636 0.382159 5.68002e-19)
(0.387187 0.129165 6.20373e-19)
(0.488998 0.33212 6.9227e-19)
(0.541523 0.443903 -1.1149e-18)
(0.543882 0.441241 9.118e-19)
(0.472902 0.33993 -3.46542e-19)
(0.363139 0.270004 7.87029e-19)
(0.721664 0.264839 -3.57406e-19)
(0.683098 0.288123 0)
(0.639359 0.206932 7.45989e-21)
(0.738135 0.506085 3.70025e-19)
(0.712392 0.477076 -1.34712e-18)
(0.616698 0.451112 1.24717e-20)
(0.619026 0.44114 0)
(0.686225 0.720279 3.97141e-19)
(0.846882 0.777275 3.96856e-19)
(0.771644 0.860141 -4.64354e-19)
(0.894564 0.815632 -1.55899e-19)
(0.926612 0.860017 -3.77403e-20)
(0.933732 0.860329 3.86451e-20)
(0.859502 0.655723 -6.86458e-19)
(0.940543 0.709889 1.448e-19)
(1.00113 0.726131 0)
(0.991871 0.70255 -1.96101e-19)
(1.02797 0.339441 2.13519e-19)
(1.14723 0.303614 2.89435e-19)
(1.06873 0.275853 3.64814e-19)
(1.01651 0.371771 -4.32477e-19)
(1.06442 0.43486 0)
(1.12022 0.418365 0)
(0.92292 0.373976 2.80548e-21)
(0.841657 0.308873 0)
(0.884721 0.306333 4.06321e-19)
(0.911382 0.310569 -7.02904e-21)
(0.952706 0.442978 2.06852e-18)
(0.911922 0.498872 5.33541e-19)
(0.917576 0.465597 -5.68369e-19)
(0.836501 0.450425 6.09232e-19)
(0.81904 0.44303 3.65664e-19)
(0.788046 0.425373 -3.59649e-19)
(1.02735 -0.000283472 6.46665e-19)
(1.01999 2.5526e-05 0)
(1.01852 0.000951627 4.21651e-19)
(1.0217 -0.00159797 -9.55149e-19)
(1.02235 0.00443696 4.64015e-19)
(1.02033 0.011433 -9.71689e-19)
(1.02125 0.0108031 0)
(1.02051 0.0110254 -2.0252e-19)
(1.01595 0.00779867 5.08069e-19)
(1.01663 0.0105749 -2.53511e-19)
(1.01733 0.00992301 1.86703e-19)
(0.028392 1.31955 0)
(0.0343531 1.36559 0)
(0.0427891 1.32066 0)
(0.0474649 1.27439 0)
(0.0700479 1.3897 -5.12739e-20)
(0.0767508 1.35871 2.24382e-20)
(0.114827 1.53278 -1.16678e-20)
(0.09701 1.37824 -8.10734e-21)
(0.0340533 1.46354 1.2901e-20)
(0.0379575 1.45676 -9.78171e-21)
(0.0619669 1.37442 -8.57781e-21)
(0.054026 1.37551 4.3715e-20)
(0.0478546 1.3508 6.36064e-21)
(0.0386981 1.37381 3.05111e-21)
(0.107404 2.37085 -1.47361e-19)
(0.0962802 2.41825 0)
(0.171431 2.04581 1.06422e-19)
(0.1124 1.71055 3.76458e-20)
(0.234021 2.04023 -8.86683e-20)
(0.202278 2.43145 0)
(0.263971 2.38132 -6.01273e-19)
(0.304172 2.37894 4.25177e-19)
(0.231112 2.00138 -2.45578e-19)
(0.155678 2.16047 1.67847e-19)
(0.142497 2.26832 0)
(0.0174572 1.87868 4.92149e-21)
(-0.00108941 2.39506 -3.71992e-20)
(0.00512205 2.15075 0)
(0.0106872 2.45757 -1.35497e-20)
(0.0273318 2.30155 9.19939e-21)
(0.0157406 1.40606 -6.05827e-21)
(0.0143634 1.39084 1.02825e-19)
(0.0136757 1.39604 -3.39602e-20)
(0.0205328 1.39728 -2.86452e-20)
(0.0252817 1.42851 0)
(0.00980231 1.37772 0)
(0.00050077 1.29203 -3.90605e-20)
(0.00722432 1.36908 1.0952e-20)
(0.00950917 1.36926 0)
(0.00790048 1.28586 -2.89704e-20)
(0.0159222 1.21144 5.91919e-20)
(1.04069 0.0118825 0)
(1.04684 0.00813842 -6.76445e-20)
(1.03859 0.0219524 -4.88197e-19)
(1.04826 0.0208055 0)
(1.05229 0.0206925 0)
(1.03628 0.0120735 -6.79523e-21)
(1.03096 0.0118984 7.84683e-19)
(1.0317 0.0168251 9.51355e-19)
(1.02551 0.0207084 0)
(1.02235 0.0210738 0)
(1.03506 0.0257093 4.87052e-19)
(1.02558 0.0270978 0)
(1.02365 0.0272064 0)
(-0.0185927 2.02202 0)
(0.00100599 1.64818 -4.3171e-21)
(-0.00466939 1.75726 -2.9294e-20)
(0.00117091 1.38034 0)
(-0.00704372 1.54784 -1.5409e-20)
(-0.00739311 1.45775 1.00907e-20)
(-0.00163262 1.39368 0)
(0.39144 1.65199 0)
(0.374679 1.3098 -6.53075e-20)
(0.303803 1.34532 0)
(0.428436 1.30835 2.31486e-22)
(0.476682 1.46567 0)
(0.457596 1.41266 2.76292e-20)
(1.03671 2.67765 -1.53292e-20)
(0.968483 2.40528 -9.11536e-19)
(0.921384 2.19295 1.02373e-18)
(0.852229 2.37365 2.41639e-19)
(0.848135 2.48782 0)
(0.918026 2.48386 0)
(0.93118 2.37006 0)
(0.910076 2.35915 -9.42412e-19)
(0.688232 2.45262 -3.92519e-19)
(0.800985 2.44219 -9.72582e-20)
(0.811384 2.4162 7.39354e-20)
(0.695941 2.39216 0)
(0.800927 2.38723 0)
(0.759212 2.40071 -3.68035e-19)
(0.768387 2.47799 0)
(0.627453 1.09368 0)
(0.481023 0.905227 -5.05448e-19)
(0.562869 0.946281 -3.20371e-20)
(0.520085 1.0384 0)
(0.520279 0.982972 7.57587e-19)
(0.792385 0.883029 -1.302e-19)
(0.805017 1.01959 0)
(0.779882 0.986305 1.86088e-19)
(0.662153 1.03265 0)
(0.663685 0.935804 0)
(1.16418 2.75394 -2.28173e-19)
(1.14165 2.81727 -9.5763e-20)
(0.930008 2.33287 9.8092e-20)
(0.897907 2.31223 -8.26585e-20)
(1.12967 2.72697 0)
(1.08347 2.69652 9.94512e-20)
(1.08969 2.48046 -3.12976e-19)
(0.984315 2.23293 -3.04664e-20)
(0.494727 1.33643 0)
(0.509641 1.06441 -1.2194e-19)
(0.576221 1.16806 0)
(0.854951 0.245185 0)
(0.768738 0.194659 0)
(0.692476 0.155569 0)
(0.84703 0.246624 -6.3955e-19)
(0.741261 0.237422 3.72862e-19)
(0.924565 0.084823 -4.0996e-19)
(0.934231 0.129408 0)
(0.918638 0.138686 1.76782e-19)
(0.854183 0.11678 7.07972e-19)
(0.818931 0.0768346 -4.43703e-19)
(1.15705 3.35137 -7.21635e-19)
(1.20574 3.27083 0)
(1.15487 3.38011 -1.49253e-18)
(0.643193 3.54141 1.26694e-18)
(0.865648 3.10994 7.51125e-20)
(0.51989 0.812035 6.02089e-19)
(0.425776 0.808578 0)
(0.31572 0.415954 -1.49415e-19)
(0.466059 0.657085 8.56416e-19)
(0.551493 0.384686 -1.9918e-19)
(0.512418 0.4741 2.32664e-19)
(0.670046 0.516144 4.99125e-19)
(0.706626 0.5504 0)
(0.657318 0.584226 0)
(0.619722 0.532251 0)
(1.00247 0.612232 9.02747e-20)
(0.916808 0.548912 -5.19346e-19)
(0.942201 0.581465 3.91758e-19)
(0.974585 0.520219 -4.01429e-19)
(1.08186 0.492008 0)
(1.09023 0.581595 -9.82182e-20)
(0.857736 0.403665 -8.35804e-19)
(0.858085 0.392713 -1.03533e-18)
(0.796006 0.38823 6.51528e-19)
(0.802129 0.363739 -6.6349e-19)
(0.846349 0.327108 -5.22695e-19)
(0.795161 0.3274 6.39965e-19)
(1.02666 0.00598009 -4.93207e-19)
(1.02637 0.00620184 1.00307e-18)
(1.02941 0.000148275 6.2667e-19)
(1.03361 0.00105321 -7.54739e-19)
(1.03375 0.00912916 0)
(1.03004 0.00981974 -1.22868e-18)
(0.0629749 1.644 1.97647e-20)
(0.0463447 1.58443 0)
(0.0868351 1.6949 1.16602e-19)
(0.0974145 1.67708 -1.02066e-19)
(0.0893665 1.5418 2.18712e-20)
(0.0883563 1.53344 0)
(0.0102997 1.68137 0)
(-0.0034582 1.4867 5.572e-21)
(-0.00297259 1.43285 -5.01053e-21)
(-0.00749198 1.54466 5.27202e-21)
(0.00116576 1.88244 8.32414e-21)
(-0.0108362 1.93526 -6.14103e-22)
(0.498509 1.3623 -2.72095e-19)
(0.491947 1.36413 2.98888e-19)
(0.455207 1.30277 -2.79444e-20)
(0.438557 1.28937 7.6247e-21)
(0.639077 1.30602 0)
(0.55542 1.39535 1.07224e-19)
(0.570617 1.40143 -1.04393e-19)
(0.468756 1.29052 2.71818e-20)
(0.522435 1.24181 0)
(0.57433 1.20409 0)
(0.655387 2.41234 5.76613e-19)
(0.670451 2.4535 1.25754e-18)
(0.714971 2.46424 -8.66323e-19)
(0.611262 2.43867 -2.01544e-19)
(0.561159 2.52882 2.82605e-19)
(0.510071 2.50338 -7.53654e-19)
(0.97842 2.37645 -5.72792e-19)
(1.01303 2.38874 0)
(0.925985 2.17075 -6.59521e-19)
(1.0543 2.67561 0)
(1.05658 2.66223 0)
(0.60219 2.26155 -1.19796e-19)
(1.03814 3.15583 1.34484e-19)
(0.909258 3.02621 -3.88785e-20)
(0.268962 0.864304 0)
(0.298443 0.711926 -3.16185e-19)
(0.466258 0.670215 -3.17094e-19)
(0.38174 2.00648 0)
(0.463204 2.78033 -5.22856e-20)
(0.417678 2.54324 0)
(0.707327 0.670758 -8.39836e-19)
(0.78924 0.681582 1.13083e-18)
(0.81159 0.625007 -1.11764e-18)
(0.687066 0.634301 -1.08063e-19)
(0.741855 0.590698 -4.4418e-19)
(1.00147 2.75604 -1.02274e-19)
(1.04157 2.81602 -1.6047e-19)
(0.634121 2.12881 6.82081e-19)
(0.587304 1.69624 -4.86349e-19)
(0.69535 1.8934 -4.01966e-19)
(0.987712 2.43961 -1.12928e-19)
(0.994274 2.43275 2.92404e-19)
(0.652832 1.82875 2.79126e-20)
(0.44352 1.31619 1.42704e-19)
)
;

boundaryField
{
    wall-4
    {
        type            noSlip;
    }
    velocity-inlet-5
    {
        type            fixedValue;
        value           uniform (1 0 0);
    }
    velocity-inlet-6
    {
        type            fixedValue;
        value           uniform (0 3 0);
    }
    pressure-outlet-7
    {
        type            zeroGradient;
    }
    wall-8
    {
        type            noSlip;
    }
    frontAndBackPlanes
    {
        type            empty;
    }
}


// ************************************************************************* //
