/*--------------------------------*- C++ -*----------------------------------*\
  =========                 |
  \\      /  F ield         | OpenFOAM: The Open Source CFD Toolbox
   \\    /   O peration     | Website:  https://openfoam.org
    \\  /    A nd           | Version:  10
     \\/     M anipulation  |
\*---------------------------------------------------------------------------*/
FoamFile
{
    format      ascii;
    class       volScalarField;
    location    "56";
    object      p;
}
// * * * * * * * * * * * * * * * * * * * * * * * * * * * * * * * * * * * * * //

dimensions      [0 2 -2 0 0 0 0];

internalField   nonuniform List<scalar> 
918
(
0.5567
1.18737
0.00072649
0.556118
-0.00898021
1.15439
-0.507221
0.682034
0.536886
-0.10786
-0.0421859
0.535935
1.01499
0.780684
-1.12512
-0.00930907
0.652291
-0.384184
0.535974
-0.0525586
0.707183
0.543437
0.546463
0.537044
0.602056
0.756851
0.895971
0.0216342
0.0110691
0.00497155
-0.0147212
-0.036501
-0.031049
1.03803
1.08913
1.11182
0.504773
0.33196
-0.37299
-0.443624
-0.435079
-0.545174
0.677352
0.675453
-0.203257
0.685001
0.688415
0.523951
0.536253
0.53716
0.538197
0.537173
0.538557
0.404899
-0.11095
-0.143133
-0.0880654
-0.0792668
0.0565752
-0.0428202
-0.0452883
-0.0402753
-0.0403168
0.454204
0.53033
0.527262
0.541227
0.551684
1.12692
1.09883
1.12498
1.03865
1.05516
0.992976
0.965669
0.801566
0.823524
0.766312
0.754588
-1.5584
-2.51228
-0.533896
-0.282506
-0.0152902
-0.00645894
-0.000547282
0.648538
0.649085
0.652095
0.6561
1.08031
-0.381679
-0.480845
0.536113
0.534919
0.543256
0.543955
0.539973
0.539064
-0.0422949
-0.0380262
-0.0461789
-0.0486284
-0.048458
0.696248
0.696197
0.537575
0.534583
0.558707
0.57971
0.571553
0.2793
0.609349
0.624067
0.587144
0.750172
0.743267
0.752376
0.869393
0.833298
0.933141
0.956208
0.0175589
-0.00064437
-0.0138591
-0.0187052
-0.016523
0.500625
0.493203
0.520365
0.508191
0.510684
0.248271
0.114362
0.417268
0.442418
-0.29061
-0.354571
-0.430784
-0.459701
-0.567618
0.611024
0.6702
0.667106
-0.216151
-0.143507
-0.275358
-0.0697801
-0.131923
0.514246
0.521237
0.516248
0.531769
0.526243
0.528203
0.540514
0.537587
0.539146
0.467322
0.591136
0.331109
0.296076
-0.246715
-0.160612
-0.247548
-0.0667612
-0.0620561
0.0704045
0.0957274
0.0436609
0.0319738
-0.0559159
-0.0477893
-0.0514675
-0.0392309
-0.0374743
0.447004
0.43587
0.466854
0.474373
0.518881
0.520241
0.524256
0.522427
0.916388
0.938681
0.94638
0.920214
-3.50461
-6.29136
0.0431365
0.179857
-0.00580367
-0.00994884
0.0052422
-0.0102895
-0.00263798
-0.00439547
-0.00362617
-0.00499689
-0.00082898
0.00127231
0.641929
0.642719
1.00146
1.0069
0.978521
0.930767
0.524296
0.526378
0.531891
0.527766
-0.0373686
-0.0378097
-0.0377794
0.690677
0.694721
0.69336
0.241198
0.152181
0.329927
0.358773
0.635412
0.623884
0.633894
0.646973
0.683826
0.963631
0.981923
0.980094
0.988567
1.03262
1.04904
1.0144
0.480167
0.490097
0.485075
0.523483
0.521248
0.522154
0.517934
0.519273
0.517203
-0.0365219
-0.417491
0.490805
0.508441
0.492078
0.495712
0.690934
0.769063
0.656719
0.662468
0.66084
-0.00130556
-0.0596392
0.251776
0.218226
0.386874
0.423122
0.402168
0.887622
0.848142
0.898234
0.871423
0.832899
0.858226
-0.369133
-1.87204
-0.989345
0.530141
0.344055
0.431334
0.0138833
-0.00310785
0.00147535
1.00018
1.07387
0.646992
0.82079
0.824293
0.721733
0.751114
0.806807
0.733372
0.76716
0.801381
0.781553
0.567477
0.504152
0.519727
0.838178
0.89383
0.122893
0.0627045
0.0186956
0.114344
0.171275
0.14555
1.0347
0.947958
1.01842
0.534341
0.535056
-0.00262018
-0.0171035
0.539276
0.539328
-0.0154421
-0.00226298
0.414646
-0.833456
0.104846
0.527835
0.517817
0.534901
-0.0905665
0.356703
-0.0427056
0.0514417
-0.00377459
0.532182
0.465235
0.424629
0.00266455
-0.0173789
-0.0434268
-0.216524
0.532011
0.530317
0.534368
0.535318
0.535994
-0.0159094
-0.011337
-0.00843398
-0.0416799
-0.0370814
-0.0465736
0.498948
0.517734
-0.169734
0.534511
0.536641
0.536461
0.529704
0.535342
0.533588
-0.00828082
-0.0151405
-0.0164174
0.222685
0.352164
0.655066
0.743027
0.626516
0.401839
0.16623
0.557722
0.621327
0.526741
0.680794
0.666391
0.681659
0.170213
0.0199282
0.178794
0.119924
0.525693
0.524394
0.516072
0.513054
0.529764
0.527873
0.532435
0.529444
0.532396
0.533784
-0.0485142
-0.0731055
-0.0856664
-0.154577
0.311369
0.573252
0.254187
0.284688
0.144285
-0.0377649
-0.0384914
-0.041897
-0.0481432
0.00493782
-0.0186818
0.046508
0.0472535
0.0197833
-0.0065034
-0.00279061
-0.013607
-0.0102198
0.525202
0.523819
0.529789
0.538924
0.474833
0.478608
0.443654
0.464275
0.449593
0.388617
0.423802
0.398991
-0.00572593
0.005197
-0.00315693
-0.0144376
-0.0106948
-0.0293623
-0.0260997
-0.0223179
-0.0178597
-0.0247843
-0.0387405
-0.0399444
-0.173904
-0.288654
0.988285
0.911378
0.133527
0.521173
0.527618
0.524385
0.529278
0.532406
0.533216
0.530936
0.52749
0.518097
0.51965
0.516435
0.517277
-0.101996
-0.242594
-0.0704616
-0.142878
0.143148
0.627075
0.364103
0.300794
0.295709
0.523107
0.920284
0.705669
0.680676
0.692085
-0.3429
0.0481079
-0.27839
0.33821
0.164257
0.653782
0.703315
0.725069
0.672938
0.62587
-0.104764
0.554419
-0.0683844
-0.0176588
0.18254
0.0620066
0.67704
0.651471
0.655002
0.672152
0.688379
0.657851
0.642565
0.637485
0.66827
0.6707
0.489771
0.253618
0.205039
0.166572
0.642486
0.525333
0.578883
0.495138
0.520864
0.523486
0.522115
0.50376
0.511317
0.506862
0.513335
0.516799
0.525477
0.525925
0.521231
0.523365
-0.0532398
-0.0568248
-0.0295995
-0.138757
-0.131335
-0.193856
-0.0642518
0.0741684
0.0350454
0.235177
0.340612
0.051605
-0.059644
-0.0324487
0.00893521
0.178827
0.205237
0.0760149
0.164283
0.153661
0.136579
0.238161
0.242373
-0.02327
-0.027113
-0.0294939
-0.0318056
0.0225153
0.092627
0.102476
-0.000213008
-0.00624222
-0.0353954
-0.0350622
-0.019753
-0.024192
-0.0206876
0.0130392
-0.0487797
-0.0163181
-0.00178326
0.00292134
0.000153016
-0.00535649
0.517443
0.5199
0.519456
0.52558
0.543525
0.558682
0.517423
0.496955
0.487781
0.490784
0.463766
0.474072
0.469749
0.483488
0.504633
0.514257
0.511475
0.514279
0.496765
0.498451
0.484943
0.488665
0.46347
0.444488
0.432642
-0.038457
-0.000362453
-0.00800841
-0.0346491
-0.00581517
-0.017783
-0.00587324
0.0129621
-0.00309733
-0.00531854
-0.0155254
-0.0214084
-0.0209269
-0.075256
0.0106874
-0.184107
-0.220625
-0.29258
0.890019
1.01408
0.810361
0.583478
0.60247
0.8458
0.930601
0.544121
0.735489
0.75909
0.586061
0.852682
0.526001
0.525604
0.523205
0.522684
0.523901
-0.00770988
0.0977839
0.0978715
0.159592
0.275122
0.387268
0.317125
0.192441
0.322993
0.325667
0.619303
0.631576
0.587113
0.611351
0.611007
0.426155
0.50207
0.554238
0.512193
0.564547
0.585573
0.540793
0.573212
0.523399
0.478102
0.474001
0.424849
0.444459
0.420729
0.403705
0.515693
0.493015
0.503578
0.49381
0.512952
0.539257
0.534739
0.562993
0.575768
0.497404
0.453057
0.46237
0.492755
0.453684
0.468754
0.485136
0.230367
0.131818
0.214438
-0.0728551
0.000681693
-0.0127619
-0.0609096
-0.0110735
0.273695
-0.419304
-0.395306
-1.02397
0.500231
0.954701
0.620273
0.593039
0.685589
0.667656
0.672366
0.688809
0.692578
0.631189
0.644567
0.647679
0.610489
0.632756
0.651826
0.649029
0.524534
0.386998
0.384357
0.334654
0.204829
0.243512
0.442831
0.365664
0.290328
0.291103
0.45912
0.346079
0.415183
0.4504
0.38186
0.336119
0.539209
0.604089
0.596488
0.571065
0.485735
0.499179
0.523113
0.557564
0.583285
0.613895
0.512803
0.518704
0.51994
0.517427
0.51469
0.517728
0.517954
0.520496
0.521169
0.52415
0.523189
-0.0428765
-0.0308255
-0.0441246
-0.0522786
-0.0193141
-0.0225244
0.0203386
0.00621546
-0.00999167
-0.00410762
-0.0296167
-0.0339449
-0.0292406
-0.0202778
0.0995612
0.11208
0.0953248
0.0557879
0.248727
0.378741
0.452986
0.328211
0.220899
0.244153
0.264527
-0.0105879
0.0164859
0.00339211
0.0425221
0.0341568
-0.0303258
-0.0337794
-0.0314003
-0.0245769
-0.0156435
-0.0316602
-0.0338775
-0.0253766
-0.0301252
-0.0312944
-0.0343903
0.499214
0.492702
0.49442
0.488244
0.486954
0.501311
0.505544
0.507534
0.513024
0.515368
0.505376
0.511216
0.515053
-0.00647023
-0.0292446
-0.0332526
-0.0216046
-0.0244574
-0.0226552
-0.0244207
0.122114
0.050894
0.055679
0.00821314
-0.122871
-0.065194
0.49005
0.489363
0.479636
0.719701
0.569061
0.489633
0.58686
0.692415
0.274375
0.471695
0.306275
0.88739
0.783324
0.929767
0.541165
0.242955
0.404146
0.449533
0.261228
0.33564
0.326185
0.214637
0.245767
0.282184
0.381726
0.263697
0.239979
-0.00261622
0.187484
0.300068
0.281907
0.407118
0.468407
0.264128
0.18425
0.138997
0.604765
0.623945
0.638513
0.610683
0.631889
0.577149
0.567571
0.584831
0.593766
0.588713
-0.751908
-0.458471
-1.40456
-0.724705
-0.271072
0.530503
0.499726
0.766637
0.647407
0.691263
0.676746
0.635977
0.60451
0.62535
0.650698
0.3471
0.458453
0.433613
0.438657
0.340372
0.271502
0.569798
0.565483
0.598845
0.622312
0.593586
0.62353
0.510621
0.510329
0.509815
0.506081
0.504354
0.506696
0.0590469
0.0277363
0.0640144
0.0444938
0.0212881
0.00958842
-0.00240676
-0.0120625
-0.0190731
-0.01935
-0.00646308
-0.00239522
0.169365
0.107986
0.0275917
0.0577663
-0.00322368
-0.0723243
-0.0903561
0.013013
0.109116
0.0994561
0.40388
0.653956
0.473933
0.641318
0.483268
0.53904
0.468374
0.459912
0.485593
0.378449
0.458794
0.240909
-0.265985
-0.174937
0.789343
0.802173
0.580036
0.401933
0.170743
0.352284
0.544379
0.476362
0.512857
0.581773
0.57023
0.0219938
0.0824346
0.361239
0.588368
0.237217
0.228277
0.222179
0.403458
0.323503
)
;

boundaryField
{
    wall-4
    {
        type            zeroGradient;
    }
    velocity-inlet-5
    {
        type            zeroGradient;
    }
    velocity-inlet-6
    {
        type            zeroGradient;
    }
    pressure-outlet-7
    {
        type            fixedValue;
        value           uniform 0;
    }
    wall-8
    {
        type            zeroGradient;
    }
    frontAndBackPlanes
    {
        type            empty;
    }
}


// ************************************************************************* //
