/*--------------------------------*- C++ -*----------------------------------*\
  =========                 |
  \\      /  F ield         | OpenFOAM: The Open Source CFD Toolbox
   \\    /   O peration     | Website:  https://openfoam.org
    \\  /    A nd           | Version:  10
     \\/     M anipulation  |
\*---------------------------------------------------------------------------*/
FoamFile
{
    format      ascii;
    class       volVectorField;
    location    "56";
    object      U;
}
// * * * * * * * * * * * * * * * * * * * * * * * * * * * * * * * * * * * * * //

dimensions      [0 1 -1 0 0 0 0];

internalField   nonuniform List<vector> 
918
(
(0.985161 -0.000505498 0)
(0.00501485 2.96625 0)
(0.00804303 0.883973 0)
(0.979704 0.0021467 0)
(-0.012804 2.06327 3.28262e-20)
(-0.00704652 2.9488 -2.47119e-18)
(0.815197 1.15719 4.46295e-19)
(0.174102 0.0909197 -1.51663e-20)
(0.999909 -0.000278359 0)
(0.0599439 0.754906 0)
(0.0107778 0.552153 0)
(0.73528 -0.018777 0)
(0.0110911 2.9304 0)
(0.0025971 2.79507 0)
(-0.0177243 3.15073 7.80619e-19)
(-0.0182284 1.91211 7.41833e-21)
(0.28069 0.0388381 1.01899e-18)
(0.185307 1.13731 3.19782e-19)
(0.96274 0.00501929 0)
(0.00926474 0.504953 0)
(0.00433993 0.120893 -7.11702e-19)
(1.00197 -0.00497692 0)
(1.00022 -0.00978696 0)
(0.975734 -0.00643918 0)
(0.594244 0.00016797 0)
(0.0151465 2.64138 0)
(-0.0148915 2.91001 9.09476e-19)
(0.0119724 0.93802 0)
(-0.0121905 1.18175 0)
(0.0128898 0.919092 0)
(-0.0137709 2.5967 0)
(-0.00124299 2.11232 -2.62166e-20)
(-0.00860484 1.89465 0)
(-0.0206114 2.9876 -8.88318e-23)
(-0.0166871 3.00529 1.92057e-18)
(0.00209918 3.00018 0)
(0.871173 -0.00962205 0)
(0.403643 0.93496 1.79189e-19)
(0.80045 1.17161 -5.09199e-19)
(0.951194 1.01782 5.50787e-19)
(0.669417 1.2628 -1.0356e-19)
(0.670663 1.2364 5.96063e-19)
(0.210297 0.15044 1.4796e-20)
(0.187562 0.0658741 0)
(1.15165 0.55928 0)
(0.182625 0.13995 6.74354e-20)
(0.148841 0.0882149 -6.99737e-20)
(0.919866 -0.00745412 0)
(1.00027 0.00015822 0)
(0.999909 0.000336705 0)
(1.00363 -0.00776313 0)
(1.00096 -0.000922021 0)
(1.00017 3.47974e-05 0)
(0.073911 1.82289 -7.74174e-19)
(0.0268165 0.960546 0)
(0.0944885 0.823727 0)
(0.0108552 0.916185 0)
(0.0353729 0.686819 0)
(0.00694821 2.00732 0)
(0.00128593 0.817861 0)
(0.0112754 0.570562 0)
(-0.00296554 0.81331 0)
(0.00936279 0.536209 0)
(0.840835 -0.0158086 0)
(0.841498 0.0315883 0)
(0.767613 -0.00785265 0)
(0.806743 0.0416779 0)
(0.704483 -0.0176666 0)
(0.0146859 3.00041 9.1606e-19)
(0.0114933 3.00802 0)
(0.00611396 3.00276 0)
(0.0135312 2.99735 1.03928e-23)
(0.007973 2.95849 -1.36149e-18)
(0.0144935 2.98207 0)
(0.0108569 2.90358 0)
(0.0243938 2.93096 2.084e-24)
(0.00468099 2.82487 0)
(0.030105 2.9165 0)
(-0.00493078 2.74509 0)
(0.305984 3.54466 0)
(-0.131655 3.62551 0)
(0.138292 3.24089 -7.26441e-19)
(-0.0133217 2.97845 0)
(-0.0186714 1.97954 0)
(-0.0065818 2.16208 -7.31669e-21)
(-0.0126396 1.91866 6.27872e-22)
(0.368058 0.145583 -3.53667e-19)
(0.306284 0.0246328 -3.431e-19)
(0.330365 0.154384 -1.05945e-18)
(0.248374 0.0464471 -6.91348e-19)
(0.227862 0.978051 0)
(0.268838 1.28395 -3.69606e-19)
(0.362803 1.2188 6.1604e-19)
(0.987447 0.00856647 0)
(0.941881 0.0058325 0)
(1.0003 0.000580003 0)
(1.00286 0.00930812 0)
(1.00301 0.00846857 -2.74243e-18)
(0.99191 0.00969657 2.07099e-18)
(-0.00316286 0.803406 0)
(0.00970111 0.518188 0)
(-0.0393014 1.00783 0)
(-0.0197995 0.840154 0)
(0.00372133 0.50036 0)
(0.0157495 0.129563 2.19754e-19)
(0.0917125 0.100643 0)
(0.993549 -0.00837412 0)
(0.954451 -0.00652684 0)
(0.750204 0.0453546 0)
(0.685079 0.0410505 0)
(0.663632 -0.0178198 0)
(0.96842 -0.00781557 0)
(0.596619 0.0692411 0)
(0.443973 -0.0143182 1.53889e-18)
(-0.0374026 2.8618 6.72134e-19)
(0.0412983 2.90962 0)
(0.0534456 2.88611 0)
(-0.00436248 2.70027 0)
(-0.0132428 2.98526 8.60861e-19)
(-0.0178362 2.8951 0)
(-0.0153561 2.98809 -2.6698e-18)
(-0.0133324 2.92519 9.13895e-19)
(-0.0199028 1.3457 0)
(0.00250153 1.37432 0)
(-0.0064852 2.12808 4.52115e-22)
(-0.00568408 2.09158 0)
(-0.0200706 1.90007 0)
(0.938434 -0.00745338 0)
(0.8572 -0.00993746 0)
(0.863309 0.00583188 0)
(0.949489 -0.0078709 0)
(0.883948 -0.00817293 0)
(0.515255 1.12808 -2.26366e-19)
(0.564391 1.17914 0)
(0.368234 0.879943 3.3526e-20)
(0.310702 0.738749 0)
(0.912327 1.05515 -1.51785e-19)
(1.02902 0.865343 3.06798e-19)
(0.356507 1.3451 0)
(0.522449 1.31755 0)
(0.545624 1.25508 0)
(0.120198 0.185157 -3.01769e-19)
(0.235947 0.144846 0)
(0.210599 0.0727078 1.93982e-19)
(1.00006 0.919666 0)
(1.07294 0.774043 0)
(1.09804 0.715536 -2.418e-19)
(1.13106 0.618745 0)
(1.18187 0.403017 5.66683e-20)
(0.957694 -0.00874023 0)
(0.962477 -0.0100545 0)
(0.901687 -0.00797421 0)
(0.984195 -0.00915429 0)
(0.974694 -0.00934717 0)
(0.937115 -0.00636926 0)
(1.00019 0.00233885 0)
(1.0009 0.00141023 0)
(0.99991 0.000854463 0)
(0.0352444 2.07321 4.29033e-19)
(0.119205 1.76593 0)
(0.0176357 2.18742 6.59759e-19)
(0.0466745 1.87656 -5.50905e-19)
(0.101158 1.14643 -2.6198e-19)
(0.0432416 1.03461 0)
(0.140048 0.978605 0)
(0.00496893 0.876298 0)
(0.0170436 0.634564 0)
(-0.00137897 2.23952 -8.69837e-22)
(0.0161377 2.01223 0)
(-0.00214397 2.24097 -3.29436e-20)
(0.00860733 2.01571 5.27856e-20)
(0.0022708 0.852379 0)
(0.00187677 0.831628 0)
(0.0115264 0.596129 0)
(-0.00642187 0.811885 0)
(0.00308307 0.525233 0)
(0.937678 0.00961164 0)
(0.849166 -0.0148658 0)
(0.927064 0.000273187 0)
(0.841956 -0.0129448 0)
(0.812084 -0.000873018 0)
(0.899753 0.0212912 0)
(0.874227 0.0262479 0)
(0.788752 -0.00385692 0)
(0.00574761 3.0649 -8.54091e-21)
(0.0167279 3.05774 0)
(0.0147164 2.96903 0)
(0.00869504 2.87619 0)
(0.92198 3.95816 0)
(1.23571 3.29155 9.28683e-19)
(0.0694262 3.07059 0)
(-0.0288886 2.90296 0)
(-0.00673149 1.39465 0)
(-0.0241523 1.69147 0)
(-0.0114085 1.52841 0)
(-0.0265072 2.5567 -1.13551e-20)
(-0.0100266 2.24296 0)
(-0.0154123 2.39231 0)
(0.000386197 1.94233 8.28522e-22)
(-0.00346861 2.23514 -3.6858e-21)
(-0.00531006 2.19697 -7.76878e-22)
(-0.00718008 1.92866 0)
(0.416137 0.127069 5.38889e-19)
(0.354457 0.0135649 -5.28837e-19)
(0.259255 1.58478 0)
(0.275992 0.751415 -3.15113e-19)
(0.176992 1.67155 -1.04893e-18)
(0.226163 1.21585 1.05128e-18)
(0.902073 0.00640257 0)
(0.967424 0.0111052 0)
(0.97456 0.010801 0)
(0.923336 0.00642567 0)
(-0.000642796 0.806201 0)
(-0.0049967 0.80403 0)
(-0.000392231 0.519984 0)
(0.158384 0.129793 6.23328e-19)
(0.132739 0.11831 -7.35123e-19)
(0.122753 0.0901948 0)
(1.09538 0.0852386 2.72467e-20)
(1.07758 0.0388675 0)
(1.01077 0.0395324 0)
(0.905339 -0.00594723 0)
(0.463888 0.106674 0)
(0.521276 0.0877689 -2.45847e-18)
(0.397942 0.00880924 9.19052e-19)
(0.00881525 2.98106 7.21405e-19)
(-0.0324047 2.86565 4.71688e-20)
(0.00359404 3.05024 -1.80814e-20)
(0.0202217 3.04336 6.43154e-19)
(-0.0150163 2.99658 3.00117e-20)
(-0.012932 2.94947 -1.20788e-22)
(-0.0172503 3.01194 -5.55514e-19)
(0.0148409 3.02386 4.01943e-19)
(0.0073606 3.03678 -6.36465e-19)
(0.933646 -0.00133706 0)
(0.939232 -0.00329219 0)
(0.845574 -0.00946467 0)
(0.956578 0.0118658 0)
(0.942751 0.0131819 0)
(0.88163 0.00591701 0)
(0.917115 0.0171774 0)
(0.926007 0.0149938 0)
(0.838534 0.00253465 0)
(0.717787 1.40553 4.23862e-20)
(0.751098 1.51428 0)
(0.183458 0.318088 7.0657e-20)
(0.226612 0.667881 5.69467e-19)
(0.262357 0.72128 -3.3225e-19)
(0.264493 0.525623 6.60695e-19)
(0.344271 0.80852 1.58802e-18)
(0.139266 0.229336 3.74668e-19)
(0.294341 0.15655 7.32776e-19)
(0.263965 0.153679 1.90489e-19)
(0.226166 0.060187 3.61935e-19)
(1.1711 0.461085 5.78882e-20)
(1.18756 0.254978 5.33327e-20)
(0.00975259 2.23541 2.54649e-19)
(0.0408351 1.94369 0)
(0.969171 0.0290552 0)
(0.942227 0.0137159 0)
(0.86768 -0.0180366 0)
(0.0112024 3.07415 0)
(0.0196173 2.9441 1.17752e-18)
(0.016426 2.95624 0)
(0.00644557 2.85058 -1.1679e-18)
(0.00638345 3.09132 2.85701e-19)
(0.00721456 3.08268 0)
(0.783993 1.81603 -1.59929e-19)
(1.24359 2.4921 4.07338e-19)
(0.766006 1.95542 -1.23427e-18)
(0.0196788 2.98037 -6.22061e-19)
(0.0353957 2.99951 0)
(-0.03446 2.87667 0)
(-0.00417561 2.21995 -1.31113e-20)
(-0.00325046 2.24103 3.68253e-21)
(0.0025186 1.97688 -7.32825e-21)
(0.277706 1.39319 1.02409e-18)
(0.236222 0.544129 -7.02316e-19)
(0.0635473 1.99797 7.63863e-19)
(0.13538 1.88448 -9.11007e-19)
(0.180301 1.50809 9.44232e-20)
(0.00324236 3.11805 -1.78187e-18)
(0.0169699 3.11803 1.90988e-18)
(-0.00917572 2.9808 7.91588e-19)
(-0.00336785 2.97723 -7.48309e-19)
(-0.0212971 2.8813 -8.0621e-19)
(0.00866575 3.09884 -2.1236e-18)
(0.00191627 3.10687 2.07266e-18)
(0.280882 0.694491 0)
(0.247816 0.683919 -1.1819e-18)
(0.0960284 0.225639 5.24846e-19)
(0.35621 0.934857 1.11033e-18)
(0.194332 0.274744 -1.71186e-18)
(1.18055 0.173695 6.42484e-20)
(1.1881 0.309445 0)
(1.16891 0.121771 -8.29608e-21)
(0.000993309 2.2521 -1.5115e-21)
(0.00436503 2.24439 0)
(0.0250106 1.97875 0)
(0.340068 1.30217 -3.67984e-19)
(0.373461 1.14647 -7.98951e-19)
(0.208761 0.375568 1.42396e-18)
(1.00588 -0.0108389 0)
(1.00767 -0.00763979 5.0596e-19)
(-0.0176221 1.32572 0)
(-0.032078 1.32266 0)
(1.00222 0.00350931 1.80848e-21)
(1.00366 0.00946054 1.03297e-18)
(-0.0173137 2.54041 1.43943e-20)
(-0.0222618 2.58315 0)
(0.0348254 3.1773 4.11402e-19)
(0.391761 3.4857 0)
(1.16981 0.659294 -5.98473e-20)
(1.01287 0.0131216 -2.14009e-21)
(1.02131 -0.0103259 0)
(1.0017 0.000120971 7.61651e-23)
(0.103401 1.36168 0)
(0.143968 2.57441 0)
(0.025831 1.30424 0)
(-0.0012001 2.62488 3.10717e-20)
(-0.0223017 2.58115 7.09161e-21)
(0.99947 0.0291547 2.403e-21)
(1.06272 0.00440395 0)
(1.09671 0.0245435 0)
(-0.025843 1.73438 0)
(-0.0180512 2.58207 0)
(-0.00273177 1.30751 0)
(0.30756 1.47627 -1.70918e-19)
(1.01129 -0.00962723 0)
(1.0094 -0.0149212 0)
(1.00236 0.000741551 6.46527e-19)
(1.00547 -0.00480886 -7.59959e-19)
(1.00118 -0.000975308 0)
(-0.0118861 1.46018 0)
(-0.00533395 1.37261 0)
(-0.003698 1.41798 0)
(-0.00669642 1.29588 0)
(-0.0126418 1.28395 0)
(-0.00429306 1.26509 0)
(1.03491 -0.00615213 0)
(1.01993 0.0156287 -8.59293e-22)
(0.820234 1.27 2.58658e-19)
(1.00224 0.000304929 -6.44248e-19)
(1.00406 0.00525421 7.54054e-19)
(1.00118 0.00207041 0)
(1.01275 0.0103398 6.40966e-19)
(1.008 0.00830491 -7.76631e-19)
(1.00856 0.0146919 0)
(-0.0223829 2.61016 0)
(-0.0237528 2.59013 -1.76583e-20)
(-0.0216297 2.60398 1.26023e-20)
(1.2345 0.265143 5.86384e-19)
(1.16066 0.0862044 0)
(0.0412765 3.0779 -9.18736e-19)
(0.064744 2.85601 -6.6886e-20)
(0.139348 3.19231 1.4054e-18)
(0.134864 3.22021 -1.99314e-19)
(0.133729 3.23141 0)
(0.0193801 3.13723 2.37126e-19)
(0.0748755 3.16028 9.0608e-19)
(0.0678301 3.18532 -4.46991e-19)
(0.0218259 3.13006 0)
(0.605386 0.277084 0)
(0.528614 0.308929 0)
(1.14046 0.695628 1.38107e-19)
(1.13537 0.816989 -1.24196e-19)
(1.19756 0.581993 0)
(1.22626 0.517029 0)
(1.01608 0.0133528 -1.19478e-18)
(1.01498 0.0142731 1.49974e-18)
(1.02533 -0.00984696 0)
(1.02339 -0.0118791 0)
(1.00642 0.00259933 0)
(1.01042 0.00372157 0)
(1.00459 0.00185185 0)
(1.0098 0.00622773 0)
(1.00782 0.00596092 0)
(1.00451 0.00469878 0)
(0.0925978 1.35942 0)
(0.0875754 1.32716 0)
(0.124965 1.39747 0)
(0.140455 1.40363 0)
(0.14537 2.59934 0)
(0.185517 2.66875 -4.2432e-19)
(0.100958 2.65509 0)
(0.0846988 2.65753 1.98642e-19)
(0.037899 2.67966 -1.51606e-19)
(0.0174676 1.31877 0)
(0.0210265 1.24543 0)
(0.0209698 1.32883 0)
(0.0341618 1.26772 0)
(0.00187348 1.9835 -2.1768e-22)
(-0.0211318 2.60904 -1.44695e-20)
(-0.00961572 2.66642 1.72761e-20)
(-0.0192994 2.68459 0)
(-0.02378 2.61467 -1.34511e-20)
(-0.0238706 2.60943 7.7314e-21)
(0.010798 1.98207 2.74092e-21)
(-0.00819795 2.39734 1.94137e-20)
(-0.0143236 2.41924 -1.95926e-20)
(1.00973 0.0379198 1.21902e-18)
(1.00512 0.0160154 -1.5084e-18)
(1.00132 0.0455016 -1.22518e-18)
(0.976635 0.0250021 1.55791e-18)
(1.06395 0.00820354 0)
(1.04915 -0.00836469 0)
(1.09389 0.0345644 0)
(1.07396 0.0126394 0)
(1.07173 0.000376713 0)
(1.13977 0.0823683 0)
(1.11113 0.0440381 0)
(1.11467 0.0319412 0)
(-0.0224521 2.43109 9.79694e-22)
(-0.0118737 2.00825 0)
(-0.0119762 2.21336 0)
(-0.0197918 2.60286 -9.09978e-21)
(-0.0172973 2.61279 1.23681e-22)
(0.00370487 1.56979 -3.18156e-20)
(-0.00367688 1.49879 3.23971e-20)
(-0.0130331 1.38805 0)
(-0.0164748 1.39497 0)
(-0.0207128 1.38989 0)
(-0.00281463 1.30804 0)
(0.00792503 1.23588 0)
(0.385966 1.4932 2.78825e-19)
(0.429105 1.4934 1.45894e-19)
(0.598028 2.44814 -2.39897e-19)
(0.399666 2.54523 7.06161e-19)
(0.351699 2.05913 7.05429e-20)
(1.02104 -0.0081424 0)
(1.01549 -0.00976178 0)
(1.01491 -0.015507 0)
(1.0074 -0.00110441 0)
(1.00493 -0.000922515 0)
(1.00778 -0.00470665 0)
(1.00927 -0.00363794 0)
(1.01421 -0.00440663 0)
(1.02068 0.0162559 1.17023e-18)
(1.01777 0.0155887 -1.49744e-18)
(1.02101 0.0182508 -1.17923e-18)
(1.01873 0.0166872 1.47561e-18)
(0.783496 1.32096 0)
(0.721005 1.36997 2.46084e-19)
(0.894249 1.22172 9.60958e-20)
(0.940012 1.1662 -1.27856e-19)
(1.15566 2.60195 2.74102e-19)
(0.776816 0.11998 5.9923e-19)
(1.16268 0.10777 0)
(1.21068 0.192698 -4.71589e-19)
(1.1974 0.154359 -2.00244e-20)
(1.00583 0.155118 0)
(0.130772 2.95895 5.35373e-19)
(0.107503 2.86507 -1.16555e-18)
(0.0167481 2.37509 7.80813e-19)
(0.091956 -0.114468 -3.39404e-19)
(0.336746 3.41555 -2.14807e-19)
(0.191898 3.3096 0)
(0.235273 3.35049 2.79754e-19)
(0.240928 3.03164 -1.78543e-18)
(0.334566 3.19009 0)
(0.00552817 3.12118 4.62218e-20)
(0.0158667 3.12979 -5.45147e-19)
(0.0139455 3.12584 8.0234e-19)
(0.0344937 3.14007 0)
(0.0329341 3.15024 0)
(1.21201 2.59994 0)
(0.542486 0.812455 -5.28246e-19)
(1.06236 0.990542 -5.41529e-21)
(0.996498 1.07607 0)
(0.850282 0.97279 -1.10526e-19)
(1.08631 0.891825 2.82176e-20)
(0.33112 0.351888 -8.7624e-19)
(0.667646 0.317306 -1.81392e-20)
(0.595835 0.220492 4.13694e-19)
(0.554713 0.344972 3.05353e-20)
(0.451166 0.294712 -1.2272e-18)
(0.63087 0.322261 0)
(0.702866 0.419954 7.04804e-19)
(0.710365 0.421431 0)
(0.591276 0.341438 0)
(0.535055 0.251691 0)
(0.815524 0.619534 4.15487e-19)
(1.23554 0.287528 -4.94234e-19)
(1.23513 0.426062 0)
(1.24342 0.366263 0)
(0.706819 0.193592 6.20491e-19)
(0.86453 0.548148 -3.82112e-19)
(0.76263 0.517842 6.78236e-19)
(0.958543 0.439312 -7.44434e-19)
(1.01936 0.0148862 8.02985e-19)
(1.01766 0.0143118 -8.08082e-19)
(1.01591 0.0154248 0)
(1.03637 -0.00568742 0)
(1.02982 -0.00842926 -7.56847e-19)
(1.02786 -0.0120057 7.49326e-19)
(1.0249 0.0103307 0)
(1.02344 0.0140377 0)
(1.01142 0.00412708 0)
(1.01422 0.00911067 0)
(1.01514 0.00411288 0)
(1.01426 0.00286226 0)
(0.0621074 1.34344 0)
(0.0669893 1.2963 0)
(0.143076 1.3783 1.20889e-20)
(0.278312 1.47361 9.1211e-20)
(0.170157 1.44465 1.91929e-19)
(0.203065 1.45018 -3.12765e-19)
(0.166534 1.40374 0)
(0.134519 1.59949 -6.99803e-20)
(0.117167 1.57552 0)
(0.349209 2.01021 -1.02567e-19)
(0.343986 2.3444 6.14403e-19)
(0.191768 1.46004 6.09969e-20)
(0.264285 1.39288 2.46197e-20)
(0.200532 1.38213 -1.99573e-20)
(0.277109 1.33717 -9.9496e-20)
(0.243376 1.58174 0)
(0.266696 1.61979 1.09506e-19)
(0.0304104 2.26453 -2.94076e-20)
(0.0429109 2.66926 0)
(0.0657915 2.40141 1.34443e-19)
(0.0621976 2.42222 0)
(0.0689381 2.67119 -2.20114e-19)
(0.0484683 2.69921 0)
(0.0265392 1.42392 2.80407e-20)
(0.0335201 1.47559 0)
(0.0288705 1.3919 0)
(0.0237717 1.39551 -3.16397e-20)
(-0.000584592 2.65275 -1.72387e-20)
(0.0288531 2.69826 1.70507e-19)
(0.00945004 2.72271 1.20519e-21)
(0.00199142 1.83283 1.11926e-21)
(-0.00378327 1.68488 -1.51381e-21)
(0.0153454 1.29791 0)
(0.0188345 1.22137 0)
(0.0461695 1.58372 -2.45107e-20)
(0.0292362 1.45764 -2.99521e-20)
(0.0360548 1.52238 3.77813e-20)
(0.0389883 1.60782 0)
(-0.0288901 2.26951 8.74997e-20)
(-0.0300096 2.5493 -3.64631e-20)
(-0.0163756 2.44651 2.87805e-21)
(-0.00427462 1.84952 -1.35625e-21)
(-0.0255501 2.49934 3.53345e-22)
(-0.0210964 2.44282 6.96866e-21)
(1.01886 0.0211293 -8.00744e-19)
(1.01465 0.0271889 8.03332e-19)
(1.01376 0.0166567 0)
(1.01169 0.0718884 1.12596e-18)
(0.99008 0.0597994 -1.26871e-18)
(0.947511 0.0495817 1.41769e-18)
(1.01451 0.111739 -1.50166e-19)
(1.04275 -0.00569539 0)
(1.05107 -0.00136669 7.21834e-19)
(1.03904 -0.00984058 -7.23338e-19)
(1.07133 0.0424526 -4.29326e-20)
(1.06461 0.0237534 3.70203e-19)
(1.06322 0.0561888 0)
(1.05356 0.0499416 -1.33144e-19)
(1.03256 0.0429748 0)
(1.02535 0.039269 0)
(1.02782 0.0133834 0)
(1.02393 0.0160581 0)
(1.03979 0.0323132 2.74289e-19)
(1.03911 0.0274186 -6.06421e-19)
(1.05105 0.0342069 -2.90629e-19)
(1.04818 0.0341769 -3.20199e-19)
(1.07128 0.0648315 6.24371e-19)
(1.09643 0.0523668 0)
(1.10515 0.0963263 0)
(-0.0243117 2.27455 4.96925e-20)
(-0.0221567 2.01643 4.76515e-22)
(-0.0186701 2.02303 0)
(-0.0260915 2.44427 -4.94726e-20)
(-0.0201638 2.4 -1.4057e-21)
(-0.0306681 2.47222 5.06697e-21)
(-0.0209477 2.62191 -7.24048e-21)
(-0.0227917 2.56341 -2.69496e-22)
(-0.0215534 2.51498 -1.58222e-21)
(-0.0156819 2.61574 7.91053e-21)
(-0.0209534 2.61771 -8.08298e-21)
(-0.0042369 1.48917 -3.64899e-22)
(0.00461946 1.61804 -2.8609e-20)
(0.370321 1.44389 -1.17984e-19)
(0.37055 1.38158 3.27108e-20)
(0.661224 1.4203 -2.38082e-19)
(0.528377 1.48624 -1.43259e-19)
(0.587275 1.45232 0)
(0.593793 2.42495 2.06699e-19)
(0.661841 2.4196 3.37384e-19)
(0.411617 2.51531 8.73727e-20)
(0.403139 2.53988 -6.08836e-19)
(0.51123 2.48153 6.11366e-19)
(0.55362 2.46193 0)
(0.488845 2.51953 -5.59139e-19)
(0.248661 2.59251 1.14511e-18)
(0.354998 2.56459 -7.81174e-20)
(0.284371 2.65417 -1.58698e-18)
(0.94779 2.37685 7.25907e-19)
(0.838289 2.38231 0)
(1.01105 0.000492824 2.62289e-20)
(1.01532 -0.00541289 -2.128e-20)
(1.01766 -0.00353302 -3.88672e-19)
(1.01501 -0.000887254 3.90703e-19)
(1.01243 0.00120145 0)
(0.647082 1.28703 0)
(0.669617 1.18267 0)
(0.782268 1.10033 0)
(0.662136 1.14561 0)
(1.18555 2.6156 5.97954e-20)
(1.07389 2.36271 0)
(0.835744 2.1698 3.80666e-21)
(0.825001 2.43505 0)
(0.92256 2.52795 -4.20297e-19)
(0.957874 2.48402 2.79611e-19)
(0.803718 0.178265 0)
(0.753327 0.153624 1.62539e-19)
(0.91313 0.149776 9.4617e-19)
(0.827651 0.152228 -3.55152e-19)
(0.786036 0.0876053 -1.09262e-18)
(1.08104 0.238375 -8.93883e-19)
(0.998491 0.299141 -1.66173e-20)
(0.929263 0.302112 8.62818e-19)
(1.00782 0.230525 7.21628e-19)
(0.950167 0.195443 -1.2526e-18)
(0.913639 0.199804 1.56588e-19)
(0.953285 0.263868 -3.32521e-19)
(0.92883 0.225959 0)
(0.99436 0.191815 6.17555e-19)
(1.04694 0.192 0)
(1.04443 0.219831 0)
(1.10664 0.119785 2.90056e-19)
(1.07087 0.178989 -1.48124e-20)
(1.07493 0.238635 -1.57797e-19)
(1.10139 0.204965 0)
(1.02315 0.047113 6.18797e-19)
(1.03974 0.0597783 7.71316e-19)
(1.03397 0.0455305 -6.13514e-19)
(1.04297 0.0668281 -5.16896e-19)
(1.02007 0.0748256 -7.92255e-19)
(0.987235 0.16109 0)
(0.99604 0.106144 0)
(0.964567 0.0693494 -5.03887e-19)
(0.908635 0.0956502 1.98727e-19)
(1.03949 0.106527 7.14695e-19)
(1.06909 0.12316 -8.36557e-19)
(1.07488 0.15583 7.46828e-19)
(1.02999 0.146958 0)
(1.07473 0.111121 0)
(1.0548 0.0919379 -3.426e-19)
(1.04357 0.0964387 -5.84322e-19)
(0.58009 1.06118 1.38706e-19)
(0.606772 1.38903 -4.01456e-20)
(1.15541 2.73153 -2.24809e-19)
(1.22129 3.07358 1.18165e-21)
(1.24737 2.7145 -1.19723e-19)
(1.2762 2.69797 -3.42813e-20)
(1.20392 2.33848 -1.08872e-20)
(1.20887 2.97749 -9.07764e-20)
(1.22884 2.94288 2.30485e-19)
(1.21167 3.22664 -1.4441e-19)
(1.37165 2.95787 1.99589e-19)
(1.36086 2.87603 0)
(0.556699 0.820465 -4.99976e-20)
(0.117989 1.23402 5.70255e-19)
(0.547669 0.385127 5.70121e-19)
(0.386385 0.132151 6.23154e-19)
(0.490311 0.334048 6.94175e-19)
(0.541373 0.444668 -1.11788e-18)
(0.543763 0.442254 9.14152e-19)
(0.474053 0.342698 -3.47544e-19)
(0.365886 0.272983 7.89344e-19)
(0.723089 0.264018 -3.57733e-19)
(0.684385 0.287341 0)
(0.642568 0.206465 7.57716e-21)
(0.737651 0.506359 3.70976e-19)
(0.711435 0.477238 -1.3508e-18)
(0.616012 0.451336 1.26095e-20)
(0.618815 0.441573 0)
(0.68549 0.720185 3.97669e-19)
(0.846279 0.777013 3.97805e-19)
(0.771166 0.859646 -4.65441e-19)
(0.894093 0.815431 -1.56384e-19)
(0.926181 0.859738 -3.79051e-20)
(0.933318 0.86007 3.88132e-20)
(0.858546 0.655421 -6.88348e-19)
(0.939897 0.709695 1.45253e-19)
(1.00058 0.725984 0)
(0.991279 0.702375 -1.9683e-19)
(1.02783 0.338694 2.14083e-19)
(1.14671 0.303184 2.90423e-19)
(1.06848 0.275513 3.65505e-19)
(1.01613 0.371058 -4.33421e-19)
(1.06392 0.434586 0)
(1.11976 0.417871 0)
(0.922649 0.373136 2.98273e-21)
(0.841778 0.307458 0)
(0.884544 0.30533 4.06823e-19)
(0.91142 0.309642 -6.91897e-21)
(0.951939 0.442179 2.07409e-18)
(0.91095 0.498391 5.35048e-19)
(0.91647 0.464923 -5.6991e-19)
(0.835831 0.449607 6.10812e-19)
(0.818283 0.442363 3.66657e-19)
(0.787097 0.424746 -3.60611e-19)
(1.02734 -0.000294371 6.47388e-19)
(1.02 1.69621e-05 0)
(1.01852 0.000942432 4.22113e-19)
(1.02169 -0.00161077 -9.56192e-19)
(1.02234 0.00442513 4.64523e-19)
(1.02033 0.0114153 -9.72762e-19)
(1.02125 0.010787 0)
(1.02052 0.011012 -2.0274e-19)
(1.01595 0.00778888 5.08621e-19)
(1.01664 0.0105642 -2.53783e-19)
(1.01734 0.00991208 1.86905e-19)
(0.0283483 1.31921 0)
(0.0344454 1.36472 0)
(0.042885 1.32024 0)
(0.0478505 1.27483 0)
(0.0701739 1.3886 -4.92012e-20)
(0.0768192 1.35778 2.18217e-20)
(0.114083 1.53093 -1.21844e-20)
(0.0961392 1.37604 -7.51934e-21)
(0.0339602 1.46254 1.09724e-20)
(0.0379045 1.45566 -8.28821e-21)
(0.0621266 1.37328 -8.50147e-21)
(0.0542429 1.37445 4.22702e-20)
(0.0481254 1.34978 6.13926e-21)
(0.0388881 1.37283 2.81027e-21)
(0.107246 2.37134 -1.48383e-19)
(0.0961 2.41871 0)
(0.171176 2.04627 1.0667e-19)
(0.111901 1.71041 3.80592e-20)
(0.233639 2.04093 -8.87735e-20)
(0.202397 2.43235 0)
(0.264039 2.38226 -6.01354e-19)
(0.304157 2.37988 4.25308e-19)
(0.230901 2.002 -2.45942e-19)
(0.155352 2.16121 1.67868e-19)
(0.142452 2.26936 0)
(0.0173113 1.87848 3.35622e-21)
(-0.001271 2.39551 -3.91965e-20)
(0.00491648 2.15094 0)
(0.0105367 2.45791 -1.35429e-20)
(0.0271373 2.30197 9.97528e-21)
(0.0157363 1.40548 -5.81672e-21)
(0.0143005 1.39018 9.83707e-20)
(0.0136552 1.39539 -3.25047e-20)
(0.0204262 1.3964 -2.73552e-20)
(0.0252026 1.42771 0)
(0.00966149 1.37712 0)
(0.000541315 1.29171 -3.69262e-20)
(0.00752006 1.36842 1.03798e-20)
(0.00937182 1.36856 0)
(0.00747716 1.28539 -2.72044e-20)
(0.0155625 1.21113 5.57306e-20)
(1.04067 0.0118427 0)
(1.04681 0.00810311 -6.77272e-20)
(1.03858 0.0219196 -4.88743e-19)
(1.04824 0.0207598 0)
(1.05225 0.0206378 0)
(1.03627 0.0120282 -6.78259e-21)
(1.03096 0.0118572 7.85546e-19)
(1.0317 0.0167766 9.52414e-19)
(1.02552 0.020658 0)
(1.02239 0.0210251 0)
(1.03505 0.0256439 4.87612e-19)
(1.02562 0.027005 0)
(1.0237 0.027099 0)
(-0.018478 2.02177 0)
(0.00103797 1.64794 -4.25781e-21)
(-0.00467393 1.75697 -2.85323e-20)
(0.00181333 1.37998 0)
(-0.00694005 1.54726 -1.44874e-20)
(-0.00695818 1.45723 9.55838e-21)
(-0.000811633 1.3932 0)
(0.391935 1.65369 0)
(0.374284 1.30967 -6.55185e-20)
(0.304127 1.34574 0)
(0.428328 1.30877 7.54542e-22)
(0.476121 1.46517 0)
(0.457142 1.4125 2.7305e-20)
(1.03675 2.67811 -1.53471e-20)
(0.968464 2.4057 -9.12425e-19)
(0.921324 2.19321 1.02542e-18)
(0.85222 2.37413 2.41783e-19)
(0.848217 2.48842 0)
(0.918125 2.4844 0)
(0.931119 2.37049 0)
(0.909995 2.35958 -9.42948e-19)
(0.688496 2.4534 -3.92756e-19)
(0.80117 2.44297 -9.73203e-20)
(0.811606 2.41695 7.39887e-20)
(0.696007 2.39266 0)
(0.800951 2.38772 0)
(0.759252 2.40119 -3.68138e-19)
(0.768533 2.47867 0)
(0.627642 1.09387 0)
(0.481295 0.905852 -5.05573e-19)
(0.562615 0.946331 -3.20474e-20)
(0.52054 1.03936 0)
(0.520695 0.984011 7.57877e-19)
(0.792028 0.882556 -1.30503e-19)
(0.804873 1.01904 0)
(0.779728 0.985759 1.866e-19)
(0.662182 1.03232 0)
(0.663598 0.935647 0)
(1.16432 2.75424 -2.286e-19)
(1.14179 2.81757 -9.60835e-20)
(0.930235 2.33338 9.86769e-20)
(0.898145 2.3128 -8.28296e-20)
(1.12981 2.72729 0)
(1.0836 2.69686 9.96588e-20)
(1.08986 2.48082 -3.13474e-19)
(0.984514 2.23323 -3.04881e-20)
(0.495384 1.33782 0)
(0.510207 1.06551 -1.22283e-19)
(0.576468 1.1685 0)
(0.855141 0.244539 0)
(0.769925 0.194038 0)
(0.695177 0.155653 0)
(0.847711 0.245846 -6.40339e-19)
(0.741871 0.236539 3.73227e-19)
(0.925029 0.0835499 -4.10261e-19)
(0.935467 0.128609 0)
(0.919179 0.138315 1.76888e-19)
(0.854778 0.115995 7.08613e-19)
(0.81978 0.0758001 -4.43926e-19)
(1.1574 3.35171 -7.21682e-19)
(1.20609 3.27115 0)
(1.15513 3.38045 -1.49222e-18)
(0.643207 3.54175 1.26674e-18)
(0.86593 3.11024 7.48528e-20)
(0.519868 0.813335 6.02444e-19)
(0.426204 0.809961 0)
(0.316697 0.419442 -1.4961e-19)
(0.464972 0.657471 8.57304e-19)
(0.550529 0.38751 -1.99776e-19)
(0.512327 0.474678 2.33067e-19)
(0.669685 0.516363 5.00361e-19)
(0.705849 0.550582 0)
(0.656439 0.584846 0)
(0.618571 0.532471 0)
(1.00189 0.61209 9.08272e-20)
(0.915868 0.54844 -5.20779e-19)
(0.941358 0.581152 3.93035e-19)
(0.973854 0.519704 -4.02553e-19)
(1.08127 0.491611 0)
(1.0896 0.581249 -9.86033e-20)
(0.857357 0.402906 -8.37695e-19)
(0.858059 0.391809 -1.03738e-18)
(0.796061 0.387809 6.53061e-19)
(0.801685 0.362731 -6.6538e-19)
(0.846317 0.325815 -5.23982e-19)
(0.795162 0.325929 6.41596e-19)
(1.02666 0.00596076 -4.93822e-19)
(1.02637 0.00618187 1.00438e-18)
(1.0294 0.000132123 6.27388e-19)
(1.03359 0.00103618 -7.55613e-19)
(1.03374 0.00909597 0)
(1.03004 0.00978269 -1.23002e-18)
(0.0628563 1.6437 2.00842e-20)
(0.0460603 1.58344 0)
(0.0864511 1.69465 1.18589e-19)
(0.0969535 1.67681 -1.03868e-19)
(0.0889964 1.54042 2.28412e-20)
(0.0878834 1.53149 0)
(0.0101294 1.68084 0)
(-0.00358962 1.48578 5.07433e-21)
(-0.00324849 1.4321 -4.56245e-21)
(-0.00738533 1.54401 5.19955e-21)
(0.00114938 1.88232 7.577e-21)
(-0.0108805 1.93514 -2.86038e-22)
(0.49888 1.36337 -2.72668e-19)
(0.492368 1.36541 2.99508e-19)
(0.455226 1.30307 -2.82873e-20)
(0.438941 1.29031 7.65927e-21)
(0.63888 1.30565 0)
(0.555134 1.3951 1.06647e-19)
(0.5704 1.40063 -1.0384e-19)
(0.468641 1.2908 2.75082e-20)
(0.522637 1.24227 0)
(0.574588 1.20473 0)
(0.655682 2.41314 5.76969e-19)
(0.670605 2.45426 1.25841e-18)
(0.715174 2.465 -8.66889e-19)
(0.611464 2.43952 -2.01633e-19)
(0.561309 2.52969 2.82697e-19)
(0.510118 2.5042 -7.53816e-19)
(0.978465 2.37678 -5.7374e-19)
(1.01316 2.38908 0)
(0.926037 2.17099 -6.60804e-19)
(1.0544 2.67597 0)
(1.05668 2.66261 0)
(0.602715 2.26221 -1.19733e-19)
(1.03855 3.15614 1.3453e-19)
(0.909589 3.02655 -3.88587e-20)
(0.269692 0.866281 0)
(0.299431 0.714316 -3.16399e-19)
(0.467 0.672452 -3.17409e-19)
(0.382114 2.00729 0)
(0.463358 2.78068 -5.21037e-20)
(0.417901 2.54351 0)
(0.706341 0.670896 -8.4106e-19)
(0.787941 0.681156 1.13322e-18)
(0.810404 0.624818 -1.1201e-18)
(0.686195 0.634292 -1.08254e-19)
(0.741008 0.590889 -4.45133e-19)
(1.00179 2.75653 -1.02309e-19)
(1.04164 2.8163 -1.60794e-19)
(0.634494 2.12972 6.81549e-19)
(0.58776 1.69726 -4.85933e-19)
(0.695605 1.89414 -4.02447e-19)
(0.987825 2.44007 -1.13057e-19)
(0.994367 2.43316 2.92894e-19)
(0.653261 1.82958 2.79358e-20)
(0.443897 1.31726 1.43012e-19)
)
;

boundaryField
{
    wall-4
    {
        type            noSlip;
    }
    velocity-inlet-5
    {
        type            fixedValue;
        value           uniform (1 0 0);
    }
    velocity-inlet-6
    {
        type            fixedValue;
        value           uniform (0 3 0);
    }
    pressure-outlet-7
    {
        type            zeroGradient;
    }
    wall-8
    {
        type            noSlip;
    }
    frontAndBackPlanes
    {
        type            empty;
    }
}


// ************************************************************************* //
