/*--------------------------------*- C++ -*----------------------------------*\
  =========                 |
  \\      /  F ield         | OpenFOAM: The Open Source CFD Toolbox
   \\    /   O peration     | Website:  https://openfoam.org
    \\  /    A nd           | Version:  10
     \\/     M anipulation  |
\*---------------------------------------------------------------------------*/
FoamFile
{
    format      ascii;
    class       volScalarField;
    location    "58";
    object      p;
}
// * * * * * * * * * * * * * * * * * * * * * * * * * * * * * * * * * * * * * //

dimensions      [0 2 -2 0 0 0 0];

internalField   nonuniform List<scalar> 
2200
(
0.772407
0.750908
0.735
0.719332
0.704725
0.692207
0.681854
0.673757
0.66806
0.665124
0.665618
0.669446
0.675796
0.684358
0.695046
0.707815
0.722607
0.738533
0.754576
0.776074
0.704816
0.701557
0.698635
0.694521
0.689062
0.682593
0.675983
0.670036
0.665537
0.663157
0.663639
0.666961
0.672158
0.678626
0.685615
0.692374
0.698038
0.702136
0.704987
0.708348
0.664905
0.665126
0.667183
0.668524
0.668914
0.668065
0.666087
0.663419
0.660892
0.659419
0.659998
0.662458
0.665742
0.668969
0.671304
0.672303
0.67203
0.671037
0.669398
0.669149
0.642398
0.643848
0.646448
0.648906
0.651355
0.653378
0.654536
0.654774
0.654413
0.654142
0.654807
0.656197
0.657406
0.657802
0.657129
0.65546
0.653301
0.6511
0.648483
0.647079
0.628031
0.630003
0.632826
0.63567
0.638535
0.641374
0.643845
0.645717
0.646959
0.647775
0.648522
0.649008
0.648784
0.647686
0.645833
0.64347
0.640931
0.638208
0.635409
0.633485
0.620699
0.622298
0.624503
0.627034
0.629701
0.632372
0.634972
0.637408
0.639441
0.640968
0.641857
0.641909
0.641093
0.639595
0.637707
0.635565
0.633237
0.630896
0.6288
0.627226
0.617267
0.618291
0.61956
0.621424
0.62357
0.625745
0.627945
0.630243
0.632479
0.634354
0.635403
0.635435
0.634686
0.633497
0.632123
0.630582
0.628891
0.627317
0.626203
0.625186
0.614581
0.615249
0.615884
0.61719
0.618813
0.620509
0.622276
0.62422
0.626309
0.628295
0.62958
0.629912
0.62961
0.629007
0.628242
0.627307
0.626271
0.625352
0.624905
0.624227
0.611328
0.611774
0.612172
0.61317
0.614436
0.615827
0.617335
0.619021
0.620902
0.622901
0.624455
0.625282
0.625567
0.625535
0.625263
0.624799
0.624222
0.623692
0.623508
0.623044
0.607258
0.607556
0.607914
0.608786
0.609904
0.611188
0.612636
0.614262
0.616095
0.618155
0.620057
0.621408
0.622211
0.62261
0.622713
0.622586
0.6223
0.621982
0.621856
0.621532
0.602517
0.602718
0.603091
0.603922
0.605017
0.606329
0.607864
0.609622
0.61161
0.613882
0.616211
0.618078
0.619325
0.620075
0.620431
0.620536
0.62043
0.620255
0.620152
0.619914
0.597289
0.597435
0.597807
0.59862
0.599772
0.601213
0.602936
0.604945
0.607281
0.610001
0.612839
0.615204
0.616831
0.617844
0.618428
0.618702
0.618784
0.618756
0.618685
0.618496
0.591652
0.591761
0.592142
0.592966
0.594197
0.595804
0.597782
0.600139
0.602928
0.606213
0.609696
0.612582
0.614622
0.615973
0.616817
0.617316
0.617612
0.617717
0.617686
0.617518
0.585618
0.585688
0.58607
0.58692
0.588258
0.590044
0.592284
0.595029
0.59838
0.602383
0.606617
0.610185
0.612715
0.614474
0.615691
0.616492
0.617008
0.617248
0.61726
0.617103
0.579025
0.579065
0.579486
0.580394
0.581876
0.583873
0.586419
0.589624
0.593637
0.598504
0.603656
0.607995
0.611185
0.613488
0.615155
0.61632
0.617087
0.617478
0.617538
0.617381
0.571854
0.571819
0.572238
0.573244
0.574942
0.577213
0.580125
0.583861
0.588626
0.594499
0.600775
0.606086
0.610079
0.613066
0.615285
0.616861
0.617916
0.61847
0.618579
0.618419
0.563761
0.563745
0.564209
0.56533
0.567273
0.569864
0.573242
0.577622
0.583252
0.590269
0.597874
0.604474
0.609512
0.613282
0.61611
0.618186
0.619569
0.620293
0.620457
0.620288
0.554625
0.554651
0.555087
0.556318
0.558549
0.561554
0.565541
0.570735
0.57744
0.585897
0.595159
0.603236
0.609473
0.614216
0.617794
0.620393
0.622144
0.62305
0.623267
0.623082
0.543982
0.543959
0.544506
0.545964
0.548584
0.552189
0.557002
0.563298
0.571425
0.581665
0.59285
0.602588
0.610169
0.615976
0.620354
0.623579
0.625746
0.62683
0.627097
0.626891
0.53138
0.531314
0.531988
0.533822
0.536995
0.541402
0.547324
0.555041
0.56497
0.577385
0.590902
0.602619
0.611677
0.618646
0.623928
0.627836
0.630455
0.63173
0.632037
0.631803
0.516518
0.516413
0.517186
0.519402
0.523322
0.52881
0.536185
0.545794
0.558083
0.573229
0.589397
0.603326
0.614073
0.62232
0.628595
0.633278
0.636355
0.637796
0.638131
0.637866
0.498369
0.498285
0.49929
0.502056
0.506958
0.513889
0.523217
0.535308
0.55057
0.568995
0.588269
0.604685
0.617277
0.626967
0.634398
0.639894
0.643456
0.645067
0.645406
0.645109
0.475964
0.475821
0.477125
0.480705
0.4871
0.496175
0.508248
0.52366
0.542628
0.56493
0.58775
0.606847
0.621466
0.632713
0.641329
0.647728
0.651756
0.653494
0.653811
0.65348
0.447001
0.447017
0.449112
0.454201
0.462955
0.475209
0.491116
0.510753
0.534101
0.560838
0.587645
0.609872
0.626726
0.63961
0.649501
0.656714
0.661122
0.662948
0.663213
0.662846
0.408801
0.409042
0.412559
0.420488
0.43322
0.450366
0.471494
0.496458
0.525075
0.556929
0.588199
0.613658
0.632841
0.647511
0.658677
0.666739
0.671438
0.673249
0.673428
0.673044
0.35797
0.358352
0.36531
0.378514
0.397649
0.421925
0.450067
0.481735
0.516658
0.554239
0.590058
0.618763
0.640253
0.656612
0.669083
0.677782
0.682428
0.683926
0.683937
0.683608
0.291114
0.293909
0.308955
0.330353
0.358418
0.391656
0.427992
0.467132
0.508929
0.552844
0.59379
0.62626
0.650502
0.669043
0.682905
0.692353
0.696926
0.697997
0.69794
0.697758
0.215133
0.224598
0.249708
0.28091
0.319127
0.36149
0.406071
0.452983
0.502168
0.552973
0.599833
0.636583
0.664149
0.685047
0.700761
0.711005
0.715392
0.716004
0.715976
0.715913
0.147209
0.161864
0.193259
0.233404
0.281217
0.332414
0.385074
0.439701
0.496113
0.553447
0.605664
0.646874
0.677756
0.701005
0.718197
0.729085
0.733459
0.733727
0.733828
0.733828
0.095553
0.108672
0.145266
0.191485
0.246618
0.305312
0.365324
0.427089
0.490196
0.553897
0.611697
0.657148
0.6907
0.716028
0.734556
0.746258
0.750742
0.751735
0.751932
0.751925
0.0527809
0.0652005
0.105556
0.155669
0.216259
0.280907
0.347283
0.415518
0.485061
0.555181
0.618545
0.667348
0.703486
0.730689
0.750457
0.762822
0.76804
0.769193
0.769249
0.769323
0.0162449
0.0288945
0.0718952
0.124881
0.189811
0.259291
0.331182
0.405242
0.48071
0.556388
0.62415
0.676581
0.715306
0.744143
0.765517
0.778369
0.783897
0.785206
0.785297
0.785373
-0.0156086
-0.00273772
0.0423974
0.0979554
0.166549
0.240113
0.316727
0.39573
0.476208
0.556831
0.629328
0.68533
0.726062
0.756481
0.778801
0.792194
0.798172
0.799634
0.799779
0.79984
-0.043948
-0.0310596
0.0157785
0.0738554
0.145632
0.222654
0.303253
0.386465
0.471459
0.556997
0.634077
0.692819
0.735725
0.767292
0.790321
0.804461
0.810654
0.812298
0.812475
0.812517
-0.0697881
-0.0568809
-0.00875082
0.0517239
0.126252
0.206268
0.290348
0.377337
0.46657
0.55665
0.637643
0.699311
0.744128
0.77687
0.800292
0.814941
0.82151
0.823279
0.823512
0.823523
-0.0938246
-0.0806561
-0.0317251
0.0309468
0.107901
0.190602
0.277791
0.36823
0.461349
0.555579
0.640488
0.705278
0.751681
0.785332
0.809168
0.824255
0.830881
0.832816
0.833046
0.833032
-0.116452
-0.103016
-0.0533463
0.0112257
0.0902786
0.175409
0.265426
0.358978
0.455578
0.553703
0.642591
0.71029
0.758275
0.793165
0.817411
0.832255
0.83913
0.841036
0.841306
0.841229
-0.137778
-0.12425
-0.073863
-0.0076793
0.0732027
0.160551
0.253094
0.349378
0.44909
0.550921
0.643838
0.714663
0.764705
0.800427
0.824965
0.839652
0.846259
0.848203
0.848395
0.84825
-0.158129
-0.14452
-0.0934402
-0.0258847
0.0565501
0.145832
0.240592
0.339321
0.441926
0.547332
0.644195
0.718403
0.770829
0.807686
0.832203
0.846328
0.85274
0.854468
0.854637
0.854534
-0.177896
-0.163869
-0.112294
-0.0435769
0.0401881
0.131159
0.227879
0.328853
0.434158
0.542858
0.643639
0.721602
0.776751
0.814936
0.839396
0.852938
0.85866
0.860119
0.860248
0.860158
-0.197337
-0.182583
-0.130571
-0.0608263
0.0240792
0.116507
0.214966
0.317986
0.425737
0.537483
0.642226
0.724164
0.782551
0.822732
0.847273
0.859694
0.86447
0.865253
0.865325
0.865283
-0.216322
-0.200812
-0.148392
-0.0777036
0.00821207
0.101926
0.201918
0.306756
0.416713
0.531337
0.639894
0.725992
0.788243
0.830982
0.856245
0.867583
0.870297
0.870045
0.869925
0.869785
-0.234816
-0.218673
-0.165766
-0.0941739
-0.00736229
0.0874615
0.188773
0.295204
0.407176
0.524419
0.636409
0.726853
0.793491
0.839911
0.86694
0.877067
0.877216
0.874968
0.874614
0.875514
-0.252682
-0.236083
-0.182671
-0.110232
-0.0226192
0.0731639
0.175595
0.283418
0.397193
0.51671
0.63172
0.726594
0.798187
0.849181
0.879526
0.889799
0.88718
0.880485
0.875503
0.874339
-0.269961
-0.252987
-0.199037
-0.125814
-0.0375024
0.0590814
0.162443
0.271457
0.386793
0.508239
0.625853
0.724905
0.801612
0.8586
0.893982
0.906659
0.904547
0.893285
0.892837
0.89699
-0.286591
-0.269268
-0.21481
-0.140898
-0.0519793
0.0452733
0.149394
0.259393
0.376026
0.499098
0.618906
0.721527
0.803534
0.866997
0.909341
0.927563
0.927658
0.898398
0.859321
0.825006
-0.302566
-0.284964
-0.230014
-0.155527
-0.0661288
0.0316256
0.136305
0.247044
0.364677
0.489078
0.610627
0.716076
0.802754
0.873459
0.92493
0.951815
0.967109
0.944197
0.961373
1.02164
-0.317805
-0.300079
-0.244744
-0.16986
-0.0801411
0.0179218
0.122915
0.234082
0.352311
0.477585
0.600384
0.707787
0.798264
0.874931
0.932501
0.964419
0.9708
0.946012
0.903314
0.919299
-0.332312
-0.31463
-0.258958
-0.183823
-0.093921
0.0042642
0.109347
0.22064
0.339063
0.464724
0.588184
0.69645
0.787967
0.866841
0.925479
0.95755
0.941314
0.88508
0.820091
0.807477
-0.346048
-0.328567
-0.272654
-0.197437
-0.107484
-0.0093466
0.0956168
0.206754
0.324975
0.450468
0.573834
0.681607
0.771592
0.84625
0.899531
0.904899
0.867734
0.788893
0.713414
0.689705
-0.359072
-0.341925
-0.285845
-0.2107
-0.120836
-0.0229244
0.0817201
0.192437
0.310089
0.434855
0.557261
0.663101
0.747753
0.810923
0.839419
0.824845
0.764213
0.66134
0.57317
0.550097
-0.371816
-0.355056
-0.298915
-0.223997
-0.134346
-0.0367858
0.0673905
0.177475
0.294235
0.417701
0.538195
0.64031
0.717577
0.764821
0.759332
0.723315
0.610224
0.486655
0.378469
0.350531
-0.385165
-0.368808
-0.312557
-0.237917
-0.148557
-0.0514046
0.0522189
0.161527
0.277139
0.398804
0.516418
0.612916
0.682862
0.705372
0.67185
0.582593
0.425561
0.272073
0.142007
0.113744
-0.399622
-0.383487
-0.327083
-0.252729
-0.163677
-0.0669151
0.0361242
0.144551
0.258788
0.37817
0.491866
0.581767
0.641098
0.634983
0.582797
0.432071
0.231938
0.0190607
-0.161288
-0.210296
-0.415339
-0.399307
-0.34256
-0.26841
-0.179645
-0.0832795
0.0191295
0.126567
0.239229
0.355885
0.464547
0.548276
0.592627
0.55481
0.467652
0.279656
0.0487674
-0.239613
-0.560299
-0.708836
-0.432355
-0.41623
-0.359104
-0.285112
-0.19657
-0.100574
0.00117132
0.107523
0.21842
0.331981
0.434803
0.511993
0.538425
0.470275
0.333914
0.128969
-0.104235
-0.447119
-1.03231
-1.60339
-0.450805
-0.434513
-0.376795
-0.302828
-0.214421
-0.118782
-0.0177269
0.0874828
0.196526
0.306849
0.403751
0.472856
0.480455
0.396002
0.205022
-0.0275827
-0.22933
-0.462684
-1.01536
-2.52383
-0.470653
-0.454034
-0.395737
-0.321772
-0.23343
-0.138126
-0.0377999
0.0661861
0.173229
0.280155
0.371122
0.430566
0.417599
0.337878
0.112192
-0.124817
-0.271708
-0.30804
-0.296459
-0.682663
-0.491899
-0.475186
-0.416104
-0.342145
-0.253919
-0.159084
-0.0596806
0.0428463
0.147583
0.250517
0.335841
0.384831
0.356122
0.288331
0.0625157
-0.138417
-0.248365
-0.255741
-0.202269
-0.242236
-0.51434
-0.497527
-0.437902
-0.364134
-0.276082
-0.181822
-0.0835209
0.0173127
0.119382
0.217857
0.298219
0.337224
0.30194
0.234814
0.0307731
-0.128629
-0.210078
-0.217808
-0.26581
-0.26972
-0.538108
-0.521324
-0.461042
-0.387593
-0.299789
-0.206323
-0.109377
-0.0105101
0.0885843
0.182442
0.257821
0.287545
0.255213
0.174306
0.00278771
-0.118625
-0.188236
-0.165527
-0.185806
-0.187407
-0.562734
-0.545754
-0.485426
-0.412595
-0.325049
-0.232564
-0.13717
-0.0404797
0.0553401
0.144649
0.215257
0.234253
0.214305
0.10653
-0.0320323
-0.113686
-0.151825
-0.200028
-0.174456
-0.183008
-0.58815
-0.570795
-0.510875
-0.438775
-0.351461
-0.26033
-0.166731
-0.0724353
0.0197454
0.104732
0.171407
0.180062
0.17187
0.0464107
-0.0685777
-0.132246
-0.108477
-0.16851
-0.149415
-0.154323
-0.613198
-0.595711
-0.537222
-0.465982
-0.378888
-0.28946
-0.197777
-0.106006
-0.0179339
0.0631832
0.127265
0.128434
0.119928
-0.00531769
-0.0954246
-0.146097
-0.134858
-0.149358
-0.154912
-0.153048
-0.637709
-0.62034
-0.5638
-0.493309
-0.40675
-0.319519
-0.229911
-0.140838
-0.057207
0.0203074
0.0831954
0.0806243
0.0626057
-0.0473893
-0.108962
-0.139852
-0.178844
-0.150305
-0.156006
-0.150441
-0.660487
-0.64383
-0.589329
-0.520049
-0.434945
-0.350071
-0.262612
-0.17636
-0.0971667
-0.0235874
0.0388149
0.0370035
0.006933
-0.0831249
-0.123115
-0.114151
-0.187475
-0.130492
-0.145745
-0.137919
-0.681048
-0.665509
-0.61301
-0.544937
-0.462811
-0.380228
-0.295203
-0.211984
-0.136879
-0.0680457
-0.00614872
-0.00356635
-0.0390725
-0.102338
-0.130988
-0.0912122
-0.135158
-0.117506
-0.124029
-0.120946
-0.697594
-0.683714
-0.633818
-0.567807
-0.489501
-0.409087
-0.326864
-0.24692
-0.175445
-0.112196
-0.0516838
-0.0421223
-0.0715178
-0.104718
-0.123099
-0.0992852
-0.113176
-0.116069
-0.117268
-0.117591
-0.70947
-0.697742
-0.651118
-0.587576
-0.51313
-0.435661
-0.356696
-0.280293
-0.212067
-0.154872
-0.0964473
-0.0784719
-0.0973836
-0.100541
-0.113505
-0.12667
-0.119074
-0.124497
-0.120638
-0.121667
-0.715099
-0.70581
-0.66336
-0.603256
-0.532735
-0.458829
-0.383562
-0.310936
-0.245851
-0.194198
-0.137824
-0.115321
-0.127356
-0.102932
-0.0988322
-0.134864
-0.114319
-0.129657
-0.122875
-0.125891
-0.714643
-0.707501
-0.669398
-0.613132
-0.546876
-0.47728
-0.406272
-0.337597
-0.275818
-0.228383
-0.174246
-0.152307
-0.163379
-0.126221
-0.0713559
-0.101363
-0.087308
-0.110946
-0.117234
-0.121907
-0.706975
-0.699623
-0.666664
-0.615964
-0.554802
-0.48988
-0.423372
-0.35868
-0.300197
-0.255465
-0.204939
-0.188432
-0.200726
-0.195006
-0.143823
-0.171119
-0.186996
-0.195379
-0.196411
-0.195857
-0.686864
-0.678473
-0.653615
-0.610266
-0.555269
-0.495766
-0.434185
-0.372906
-0.316644
-0.273066
-0.225986
-0.213819
-0.257538
-0.372336
-0.5644
-0.667937
-0.693276
-0.659824
-0.608079
-0.568372
-0.644865
-0.636865
-0.627725
-0.596271
-0.548795
-0.494646
-0.437813
-0.378995
-0.322807
-0.277873
-0.232434
-0.206114
-0.300941
-0.481862
-0.728451
-0.844048
-0.850332
-0.787045
-0.736908
-0.688951
-0.603457
-0.600535
-0.599793
-0.575031
-0.536419
-0.488878
-0.435338
-0.377156
-0.317496
-0.265902
-0.215306
-0.147819
-0.12462
-0.119358
-0.155701
-0.11736
-0.0322978
0.0334091
0.104855
0.144826
-0.581158
-0.58271
-0.573068
-0.55712
-0.525211
-0.480418
-0.427562
-0.368475
-0.302268
-0.234469
-0.167428
-0.0364357
0.126627
0.398776
0.671646
0.900498
1.06598
1.16135
1.20222
1.22853
-0.549785
-0.549761
-0.546107
-0.542834
-0.516164
-0.473772
-0.41952
-0.357048
-0.283285
-0.197508
-0.106529
0.0408896
0.26481
0.605002
0.947028
1.22874
1.4238
1.53924
1.59404
1.61452
-0.533808
-0.532126
-0.534759
-0.528728
-0.507871
-0.467839
-0.41239
-0.345957
-0.26691
-0.169461
-0.0639296
0.0675441
0.310541
0.626301
0.942037
1.21209
1.41312
1.53468
1.58908
1.60474
-0.520275
-0.51908
-0.523005
-0.51554
-0.502616
-0.463162
-0.40658
-0.337375
-0.255565
-0.153591
-0.044601
0.0558871
0.274226
0.548494
0.813373
1.04156
1.22212
1.33087
1.37876
1.39183
-0.500739
-0.500106
-0.501096
-0.496485
-0.495305
-0.460753
-0.405427
-0.334215
-0.251235
-0.151856
-0.0472657
0.0269639
0.202749
0.434697
0.648902
0.829596
0.975529
1.06392
1.10221
1.11189
-0.489145
-0.48801
-0.483315
-0.480462
-0.480827
-0.456371
-0.404811
-0.333922
-0.252839
-0.161196
-0.062363
-0.00373344
0.126968
0.317392
0.487778
0.626065
0.736496
0.804844
0.834368
0.842041
-0.501639
-0.499339
-0.494428
-0.49699
-0.49195
-0.464689
-0.407441
-0.334406
-0.255116
-0.173537
-0.0809137
-0.0295973
0.0609329
0.213379
0.347387
0.451416
0.532542
0.584378
0.605918
0.610227
-0.529098
-0.528986
-0.530521
-0.540926
-0.532374
-0.489836
-0.41439
-0.334442
-0.255023
-0.182812
-0.097242
-0.0493321
0.0106514
0.13022
0.233375
0.310288
0.369733
0.407834
0.422697
0.427784
-0.548091
-0.551868
-0.562085
-0.571558
-0.557488
-0.499387
-0.410376
-0.327958
-0.248703
-0.185033
-0.108136
-0.0632888
-0.0243998
0.0697851
0.146687
0.201557
0.245588
0.275528
0.285785
0.28868
-0.499009
-0.502369
-0.516061
-0.524766
-0.512365
-0.456716
-0.380482
-0.305206
-0.232496
-0.177255
-0.112557
-0.0718461
-0.0465275
0.0275542
0.0833963
0.121768
0.15481
0.175633
0.184834
0.187481
-0.362999
-0.369462
-0.377744
-0.38336
-0.37743
-0.348412
-0.305113
-0.257099
-0.203047
-0.158354
-0.109891
-0.0758452
-0.0572417
-0.00102298
0.0385205
0.0662752
0.0885412
0.10147
0.107285
0.108644
-0.209838
-0.212747
-0.217199
-0.222874
-0.223139
-0.217168
-0.205487
-0.187488
-0.158787
-0.130757
-0.0996858
-0.0745548
-0.0576571
-0.018521
0.00857258
0.0273665
0.0405755
0.0473119
0.0493104
0.0490056
-0.0835358
-0.0850396
-0.0882905
-0.0948104
-0.102216
-0.110252
-0.116628
-0.117846
-0.109906
-0.0991767
-0.0829959
-0.0671199
-0.0527985
-0.027874
-0.010964
-0.000194266
0.00611711
0.00793398
0.0073885
0.00632573
-0.000699993
-0.00174156
-0.00403981
-0.0111548
-0.0243406
-0.0398355
-0.0535074
-0.0635369
-0.0675815
-0.0691379
-0.0631758
-0.0550941
-0.0462313
-0.0322339
-0.0236043
-0.0191789
-0.0173532
-0.0183034
-0.0202508
-0.0216472
0.0415624
0.0409375
0.0390922
0.032429
0.0189006
0.00147778
-0.0149045
-0.0287083
-0.0378381
-0.0451235
-0.0446433
-0.0412011
-0.0387602
-0.033067
-0.0306552
-0.0303822
-0.031388
-0.0337834
-0.0360258
-0.0374483
0.0586791
0.0581371
0.0565294
0.0507941
0.0390868
0.0230666
0.00687798
-0.00802407
-0.0191746
-0.0282616
-0.0299323
-0.0299839
-0.0320582
-0.031504
-0.0326574
-0.0347474
-0.0373017
-0.0402155
-0.0423293
-0.0436901
0.0613657
0.0609571
0.0596852
0.0551749
0.0458919
0.032742
0.0184795
0.00419757
-0.00727892
-0.0170175
-0.0196447
-0.021935
-0.0262116
-0.0281887
-0.0311803
-0.0345858
-0.0377989
-0.0406414
-0.042462
-0.0436788
0.0569348
0.0566461
0.0556753
0.0522987
0.0453142
0.0352336
0.0236936
0.0112016
0.000710266
-0.00925194
-0.0128665
-0.0158918
-0.0207902
-0.0237394
-0.0276022
-0.0315444
-0.0349496
-0.0376303
-0.0390967
-0.0401248
0.0496912
0.0495013
0.0487981
0.0463807
0.0413112
0.0338013
0.0248651
0.0146172
0.00593774
-0.00365489
-0.00810783
-0.0113058
-0.0158583
-0.0190768
-0.0233014
-0.0272635
-0.0303776
-0.0327032
-0.0338262
-0.03468
0.0417154
0.0416095
0.0411077
0.0394317
0.0358891
0.0305022
0.0238248
0.0157407
0.00897118
0.000218097
-0.00437605
-0.00762421
-0.0117238
-0.0145853
-0.0185876
-0.022206
-0.0249559
-0.0269399
-0.0277509
-0.0284429
0.0338986
0.0338435
0.0334901
0.0323228
0.0298344
0.0260219
0.0211638
0.0150335
0.0100658
0.0026633
-0.00132484
-0.00442571
-0.00829849
-0.0107108
-0.0141775
-0.0172578
-0.0196041
-0.0212553
-0.0218526
-0.0223952
0.0268169
0.0267744
0.0265328
0.0257458
0.0240364
0.0212893
0.0176712
0.0129678
0.00948596
0.00363725
0.000709253
-0.00177384
-0.00521533
-0.00739551
-0.0103855
-0.0128428
-0.0146365
-0.0158908
-0.0162669
-0.0166964
0.0205744
0.0205561
0.0204073
0.0198803
0.0187386
0.0168595
0.0142465
0.0106086
0.00818162
0.00362647
0.00154388
-0.000406992
-0.00308113
-0.00471854
-0.00704369
-0.00877721
-0.0100187
-0.0108453
-0.0111021
-0.0115064
0.0149548
0.0149341
0.014851
0.0145288
0.0138043
0.0125813
0.0109206
0.00829727
0.00675228
0.00314211
0.0016454
9.29081e-05
-0.00186217
-0.00278118
-0.00439223
-0.00551542
-0.00628505
-0.00679228
-0.00693994
-0.00730249
0.00997054
0.0099464
0.00988923
0.00973574
0.00936148
0.00868411
0.00777611
0.00598508
0.00521374
0.00240415
0.0014517
0.000316596
-0.000984123
-0.00156124
-0.00273355
-0.00340332
-0.0037625
-0.00393714
-0.00397987
-0.00434752
0.00567276
0.00564932
0.00562643
0.00558598
0.00544931
0.00512658
0.00475992
0.00355057
0.00343666
0.00146482
0.00120257
0.000617202
-0.000385895
-0.00076972
-0.00184478
-0.002244
-0.00238365
-0.00242352
-0.00231801
-0.00259998
0.00200025
0.00200499
0.00203286
0.00205461
0.002037
0.00184182
0.00179014
0.00109542
0.00140917
0.000416906
0.000879961
0.00100976
0.000178494
9.86398e-05
-0.00118708
-0.00184872
-0.00255702
-0.00314561
-0.00295167
-0.002983
-1.07389
-0.236215
0.0337345
0.309218
0.489795
0.644597
0.769139
0.896206
1.03662
1.12009
-0.0957394
0.309946
0.325568
0.513236
0.636013
0.746189
0.840852
0.925321
0.952464
0.9107
0.279365
0.492439
0.526696
0.662693
0.747752
0.826852
0.892127
0.941155
0.943083
0.957329
0.507604
0.649762
0.684541
0.785575
0.842256
0.899348
0.943891
0.976088
0.985068
1.0088
0.684593
0.785371
0.815091
0.882103
0.926492
0.967131
0.999091
1.02329
1.03301
1.06464
0.827221
0.895673
0.925917
0.968508
1.00445
1.03441
1.0586
1.07931
1.09339
1.12171
0.945966
0.996331
1.02182
1.04965
1.07719
1.10089
1.12079
1.14002
1.15488
1.18141
1.04948
1.08639
1.1074
1.12798
1.1487
1.16804
1.18543
1.20353
1.2184
1.24207
1.14331
1.17237
1.18867
1.2039
1.21998
1.23602
1.25156
1.26847
1.28209
1.30441
1.23149
1.25193
1.26676
1.27991
1.29347
1.30723
1.32073
1.33532
1.34687
1.36651
1.31689
1.33266
1.34648
1.35829
1.37021
1.38184
1.39298
1.40466
1.41233
1.42913
1.40211
1.41465
1.42836
1.44011
1.45075
1.46054
1.46936
1.47763
1.48119
1.49243
1.49085
1.50168
1.51515
1.52468
1.53225
1.53954
1.54673
1.55321
1.5543
1.56167
1.58927
1.59387
1.60206
1.60681
1.6102
1.61468
1.62068
1.62835
1.63224
1.64212
1.70257
1.68946
1.68217
1.67645
1.67372
1.67507
1.6814
1.69377
1.70859
1.73826
1.82455
1.76851
1.73749
1.72029
1.71207
1.71201
1.72085
1.74046
1.77227
1.84153
)
;

boundaryField
{
    wall-4
    {
        type            zeroGradient;
    }
    pressure-outlet-7
    {
        type            fixedValue;
        value           uniform 0;
    }
    velocity-inlet-6
    {
        type            zeroGradient;
    }
    velocity-inlet-5
    {
        type            zeroGradient;
    }
    frontAndBackPlanes
    {
        type            empty;
    }
}


// ************************************************************************* //
