/*--------------------------------*- C++ -*----------------------------------*\
  =========                 |
  \\      /  F ield         | OpenFOAM: The Open Source CFD Toolbox
   \\    /   O peration     | Website:  https://openfoam.org
    \\  /    A nd           | Version:  10
     \\/     M anipulation  |
\*---------------------------------------------------------------------------*/
FoamFile
{
    format      ascii;
    class       surfaceScalarField;
    location    "58";
    object      phi;
}
// * * * * * * * * * * * * * * * * * * * * * * * * * * * * * * * * * * * * * //

dimensions      [0 3 -1 0 0 0 0];

internalField   nonuniform List<scalar> 
4262
(
0.107135
0.470853
0.0955584
0.705162
0.0693691
0.858492
0.0473624
1.02077
0.0309881
1.21489
0.0197754
1.44943
0.0123582
1.73328
0.00712582
2.07627
0.003144
2.48923
-0.000548165
2.98598
-0.00412392
2.98587
-0.00789308
2.48901
-0.0129201
2.07606
-0.0201121
1.73306
-0.0310739
1.44918
-0.0471459
1.21459
-0.0689038
1.02052
-0.0951836
0.858583
-0.107062
0.705464
0.470927
0.112884
0.357969
0.135322
0.682724
0.12045
0.873364
0.0979136
1.04331
0.0746786
1.23813
0.0529422
1.47117
0.034535
1.75169
0.0203415
2.09046
0.00913056
2.50044
-0.000938689
2.99605
-0.011208
2.99614
-0.022431
2.50024
-0.0364592
2.09009
-0.0547318
1.75133
-0.0765618
1.47101
-0.100311
1.23834
-0.123497
1.04371
-0.137013
0.872098
-0.113562
0.682013
0.357365
0.0920279
0.265942
0.124935
0.649817
0.121039
0.877259
0.104759
1.05959
0.0860988
1.25679
0.0669796
1.49029
0.0480371
1.77063
0.0299805
2.10852
0.013356
2.51706
-0.00267901
3.01209
-0.0182541
3.01171
-0.0342112
2.51619
-0.0517711
2.10765
-0.0701796
1.76974
-0.0885042
1.48934
-0.105704
1.25554
-0.119791
1.05779
-0.125201
0.877509
-0.092334
0.649145
0.265031
0.0640293
0.201912
0.104909
0.608938
0.106717
0.875452
0.0953388
1.07097
0.0813901
1.27073
0.0666237
1.50505
0.050462
1.78679
0.033286
2.12569
0.0156788
2.53467
-0.00293349
3.0307
-0.0215218
3.0303
-0.0389323
2.5336
-0.0553718
2.12409
-0.0706499
1.78501
-0.0845076
1.50319
-0.0982391
1.26927
-0.110011
1.06957
-0.107044
0.874543
-0.0649097
0.60701
0.200121
0.0374876
0.164425
0.080714
0.565711
0.0909923
0.865173
0.0837963
1.07816
0.0712131
1.28332
0.0593978
1.51687
0.046425
1.79976
0.0314704
2.14065
0.0144173
2.55172
-0.00490689
3.05003
-0.0236044
3.049
-0.0395432
2.54954
-0.0535059
2.13805
-0.065566
1.79707
-0.0767456
1.51437
-0.0886291
1.28115
-0.0950063
1.07594
-0.0831687
0.862705
-0.0383804
0.562222
0.161741
0.0194469
0.144978
0.057181
0.527977
0.0725714
0.849783
0.0704652
1.08027
0.061672
1.29211
0.0508188
1.52772
0.0396734
1.81091
0.0270531
2.15327
0.0120249
2.56675
-0.00544057
3.06749
-0.0227753
3.06633
-0.0371381
2.5639
-0.0486608
2.14958
-0.058743
1.80716
-0.068677
1.52431
-0.0763514
1.28883
-0.0771817
1.07677
-0.0600163
0.84554
-0.0203811
0.522587
0.14136
0.0106343
0.134344
0.0423895
0.496222
0.0585335
0.833639
0.0588234
1.07998
0.0526614
1.29827
0.0432371
1.53715
0.0328379
1.82131
0.0215186
2.16459
0.00825823
2.58001
-0.00782985
3.08358
-0.0231843
3.08169
-0.0349919
2.57571
-0.0447741
2.15936
-0.0535931
1.81598
-0.0614995
1.53221
-0.0660907
1.29342
-0.0642078
1.07489
-0.0458737
0.827206
-0.0116959
0.488409
0.129664
0.00658996
0.127754
0.0329956
0.469816
0.0492869
0.817348
0.0507885
1.07848
0.0456883
1.30337
0.0373257
1.54551
0.0276624
1.83097
0.0167245
2.17553
0.00465531
2.59208
-0.00899473
3.09723
-0.0223186
3.09501
-0.0332394
2.58663
-0.0425488
2.16867
-0.0503618
1.82379
-0.0569568
1.53881
-0.060157
1.29662
-0.0564167
1.07115
-0.0372437
0.808033
-0.00787453
0.45904
0.121789
0.00471347
0.12304
0.02657
0.44796
0.0423992
0.801519
0.0445517
1.07632
0.039966
1.30796
0.0323495
1.55313
0.02323
1.84009
0.0127185
2.18604
0.0010308
2.60377
-0.0121915
3.11045
-0.0242492
3.10707
-0.0339032
2.59629
-0.0421371
2.1769
-0.0489682
1.83062
-0.0543076
1.54415
-0.0565386
1.29885
-0.0515641
1.06618
-0.0319523
0.788421
-0.00635865
0.433446
0.115431
0.00377378
0.119266
0.0217751
0.429958
0.0369667
0.786327
0.039732
1.07356
0.0353695
1.31232
0.028019
1.56048
0.0192205
1.84889
0.0090781
2.19618
-0.00223782
2.61508
-0.0142962
3.12251
-0.0256969
3.11847
-0.0351876
2.60578
-0.0426556
2.18437
-0.048603
1.83657
-0.0532793
1.54882
-0.0545114
1.30008
-0.0481287
1.05979
-0.0282162
0.768509
-0.00573844
0.410969
0.109692
0.00306145
0.116205
0.017582
0.415438
0.0315314
0.772378
0.0344955
1.07059
0.0303825
1.31643
0.0232945
1.56756
0.0148181
1.85737
0.00493513
2.20606
-0.00639448
2.62641
-0.0186682
3.13478
-0.029658
3.12946
-0.0377837
2.6139
-0.0442375
2.19082
-0.0494148
1.84174
-0.0531655
1.55258
-0.053343
1.30026
-0.045612
1.05206
-0.025544
0.748441
-0.00550167
0.390926
0.10419
0.00239951
0.113805
0.0139284
0.403909
0.0266171
0.759689
0.0297912
1.06742
0.0257576
1.32047
0.0186277
1.57469
0.0101603
1.86583
0.000591371
2.21563
-0.0100657
2.63707
-0.0218459
3.14656
-0.0322658
3.13988
-0.040302
2.62194
-0.0461632
2.19668
-0.0505011
1.84608
-0.0533419
1.55542
-0.052728
1.29964
-0.0436289
1.04296
-0.0235255
0.728337
-0.00533759
0.372738
0.0988529
0.00170176
0.112104
0.0105519
0.395059
0.0213884
0.748852
0.0240465
1.06476
0.0200314
1.32448
0.013064
1.58166
0.00453357
1.87437
-0.00529771
2.22546
-0.0164016
2.64817
-0.0281764
3.15834
-0.0381317
3.14983
-0.0446101
2.62842
-0.0491948
2.20127
-0.0528818
1.84977
-0.0546495
1.55718
-0.0531769
1.29817
-0.0426893
1.03248
-0.0222831
0.707931
-0.00526208
0.355717
0.0935908
0.000854451
0.111249
0.00715356
0.388759
0.0163718
0.739634
0.0187165
1.06242
0.014375
1.32882
0.00700662
1.58903
-0.00168302
1.88305
-0.011344
2.23512
-0.0218598
2.65869
-0.0331373
3.16962
-0.0425432
3.15924
-0.0489346
2.63481
-0.0530309
2.20537
-0.0556931
1.85243
-0.0564652
1.55796
-0.0539387
1.29565
-0.042178
1.02071
-0.0214935
0.687247
-0.005233
0.339457
0.0883578
0.000191525
0.111058
0.0043537
0.384597
0.0112191
0.732769
0.0123322
1.0613
0.00762578
1.33353
0.000129391
1.59653
-0.00910817
1.89229
-0.0195802
2.2456
-0.0309289
2.67004
-0.0422091
3.1809
-0.0506647
3.1677
-0.0553538
2.6395
-0.0581543
2.20817
-0.0601205
1.8544
-0.0599794
1.55781
-0.0558089
1.29148
-0.0424718
1.00738
-0.0211941
0.665969
-0.00525404
0.323517
0.0831038
-0.000807405
0.111865
0.000582106
0.383208
0.00542589
0.727925
0.00581966
1.06091
0.000370322
1.33898
-0.00816552
1.60506
-0.0180152
1.90214
-0.0285349
2.25612
-0.0392917
2.68079
-0.0497799
3.19138
-0.0577004
3.17562
-0.0621755
2.64397
-0.0643271
2.21032
-0.0652938
1.85536
-0.0642207
1.55674
-0.0585908
1.28585
-0.0435585
0.992345
-0.0214247
0.643835
-0.00540053
0.307492
0.0777032
-0.00165117
0.113516
-0.00247627
0.384033
-0.000490329
0.725939
-0.00222323
1.06264
-0.00874214
1.3455
-0.0178915
1.61421
-0.0285088
1.91276
-0.0401109
2.26772
-0.0519969
2.69268
-0.062726
3.20211
-0.0692571
3.18215
-0.0722547
2.64697
-0.073335
2.2114
-0.0729152
1.85495
-0.0703107
1.55414
-0.0627766
1.27831
-0.0455846
0.975153
-0.0221911
0.620442
-0.00566565
0.290967
0.0720376
-0.00299767
0.116514
-0.00616283
0.387198
-0.00772483
0.727501
-0.0108008
1.06572
-0.0182499
1.35295
-0.0286046
1.62457
-0.0402215
1.92438
-0.0523209
2.27982
-0.0641854
2.70454
-0.074326
3.21225
-0.0805556
3.18838
-0.0828512
2.64927
-0.0823763
2.21092
-0.0812311
1.8538
-0.0777303
1.55064
-0.0681958
1.26878
-0.0485084
0.955466
-0.0234668
0.5954
-0.0060417
0.273542
0.0659959
-0.00427715
0.120791
-0.0103733
0.393294
-0.0152967
0.732424
-0.0213102
1.07173
-0.0302235
1.36186
-0.0419465
1.63629
-0.0549478
1.93738
-0.068709
2.29358
-0.082048
2.71788
-0.0929506
3.22316
-0.0977945
3.19322
-0.0980977
2.64957
-0.0967081
2.20953
-0.0933262
1.85042
-0.0872768
1.54459
-0.0751203
1.25662
-0.0524992
0.932845
-0.0252408
0.568142
-0.00651597
0.254817
0.0594799
-0.0057413
0.126532
-0.0154166
0.40297
-0.0243338
0.741342
-0.0331822
1.08058
-0.0438549
1.37253
-0.0570738
1.64951
-0.07151
1.95181
-0.0863251
2.30839
-0.100155
2.73171
-0.110479
3.23348
-0.114729
3.19747
-0.114205
2.64905
-0.110618
2.20595
-0.106093
1.84589
-0.0988563
1.53735
-0.0835869
1.24135
-0.0573728
0.906631
-0.0273948
0.538164
-0.00703884
0.234461
0.0524411
-0.00805777
0.13459
-0.022252
0.417164
-0.0365066
0.755596
-0.0488327
1.09291
-0.0616399
1.38534
-0.077125
1.66499
-0.0938972
1.96859
-0.111033
2.32553
-0.126219
2.7469
-0.136206
3.24347
-0.1381
3.19936
-0.135218
2.64616
-0.130644
2.20137
-0.123525
1.83877
-0.112741
1.52657
-0.0938702
1.22248
-0.0633836
0.876144
-0.0299485
0.504728
-0.00761183
0.212124
0.0448293
-0.0104933
0.145083
-0.0295166
0.436187
-0.0498962
0.775976
-0.0671714
1.11018
-0.0832799
1.40145
-0.10143
1.68314
-0.120408
1.98756
-0.138403
2.34352
-0.15303
2.76153
-0.162107
3.25254
-0.163237
3.20049
-0.158524
2.64145
-0.150612
2.19346
-0.141529
1.82969
-0.128767
1.5138
-0.105356
1.19907
-0.0697771
0.840566
-0.0325159
0.467467
-0.00810862
0.187717
0.0367206
-0.0151534
0.160237
-0.0415394
0.462573
-0.0686871
0.803124
-0.0909434
1.13244
-0.11091
1.42142
-0.132963
1.7052
-0.154846
2.00945
-0.175193
2.36387
-0.191101
2.77744
-0.198301
3.25974
-0.194501
3.1967
-0.186083
2.63303
-0.176803
2.18418
-0.165106
1.81799
-0.147573
1.49627
-0.119097
1.17059
-0.0774647
0.798933
-0.0352739
0.425276
-0.0085548
0.160998
0.0281658
-0.0193073
0.179544
-0.0546449
0.497911
-0.091699
0.840178
-0.121812
1.16255
-0.147717
1.44732
-0.174129
1.73161
-0.198488
2.03381
-0.218342
2.38373
-0.230845
2.78994
-0.234028
3.26293
-0.22859
3.19126
-0.217895
2.62234
-0.203855
2.17014
-0.189036
1.80318
-0.168576
1.47581
-0.13325
1.13527
-0.0842587
0.749942
-0.0373869
0.378405
-0.0086615
0.132273
0.0195043
-0.0325197
0.212064
-0.0817008
0.547092
-0.129414
0.887891
-0.165931
1.19907
-0.196978
1.47837
-0.227218
1.76185
-0.252162
2.05875
-0.271478
2.40304
-0.283116
2.80158
-0.283662
3.26347
-0.270991
3.17859
-0.253886
2.60523
-0.238218
2.15448
-0.219487
1.78444
-0.191633
1.44796
-0.148835
1.09247
-0.0921246
0.693231
-0.0394796
0.32576
-0.00859515
0.101388
0.0109092
-0.0468858
0.25895
-0.120338
0.620544
-0.183572
0.951125
-0.228728
1.24422
-0.265872
1.51551
-0.29682
1.7928
-0.319672
2.0816
-0.334831
2.4182
-0.339462
2.80621
-0.330289
3.2543
-0.312614
3.16091
-0.293737
2.58635
-0.272313
2.13305
-0.248953
1.76108
-0.216076
1.41508
-0.16321
1.0396
-0.0960915
0.626112
-0.0391149
0.268783
-0.00839644
0.0706698
0.00251275
-0.0338966
0.292846
-0.0973442
0.683992
-0.155957
1.00974
-0.203302
1.29157
-0.246111
1.55832
-0.284542
1.83123
-0.320372
2.11743
-0.352415
2.45024
-0.377061
2.83085
-0.391974
3.26921
-0.390164
3.1591
-0.374316
2.57051
-0.354788
2.11352
-0.324747
1.73104
-0.273184
1.36352
-0.196157
0.962576
-0.107799
0.537754
-0.0417054
0.202689
-0.00944464
0.0384091
-0.00693189
-0.0127515
0.305598
-0.0477068
0.718947
-0.0893698
1.0514
-0.128741
1.33094
-0.167795
1.59738
-0.202388
1.86582
-0.234429
2.14947
-0.261969
2.47778
-0.281292
2.85018
-0.285392
3.27331
-0.271001
3.14471
-0.251301
2.55081
-0.226163
2.08839
-0.194145
1.69903
-0.152604
1.32198
-0.0983158
0.908288
-0.045124
0.484562
-0.0160447
0.17361
-0.00387682
0.0262411
-0.0108087
0.000137216
0.305461
-0.0247289
0.743813
-0.0542758
1.08095
-0.0843262
1.36099
-0.115778
1.62883
-0.146316
1.89636
-0.174612
2.17777
-0.198067
2.50124
-0.212564
2.86467
-0.212261
3.27301
-0.198467
3.13092
-0.176266
2.52861
-0.147997
2.06012
-0.117036
1.66806
-0.078007
1.28295
-0.0370864
0.867367
-0.00997673
0.457453
-0.00197769
0.165611
-0.000793834
0.0250573
-0.0116025
0.000612812
0.304848
-0.0128955
0.757321
-0.0342922
1.10234
-0.0588549
1.38555
-0.0847363
1.65471
-0.110466
1.92209
-0.134303
2.2016
-0.15355
2.52049
-0.164295
2.87542
-0.161784
3.2705
-0.145627
3.11476
-0.120804
2.50378
-0.0923475
2.03166
-0.0580552
1.63377
-0.0268448
1.25174
-0.00278221
0.843305
0.00804642
0.446624
0.0057158
0.167942
0.0013738
0.0293993
-0.0102287
0.00417164
0.300676
-0.0049977
0.766491
-0.022984
1.12033
-0.0436622
1.40623
-0.0653224
1.67637
-0.0869275
1.94369
-0.107209
2.22189
-0.123418
2.5367
-0.131989
2.88399
-0.128248
3.26676
-0.109787
3.0963
-0.0838881
2.47788
-0.0546248
2.0024
-0.0280373
1.60718
0.000114121
1.22358
0.0190938
0.824325
0.0204802
0.445238
0.0114493
0.176973
0.00306598
0.0377826
-0.00716275
0.00514364
0.295532
-0.000948815
0.772583
-0.016753
1.13613
-0.0349408
1.42442
-0.0540038
1.69543
-0.0729035
1.96259
-0.0906753
2.23966
-0.105213
2.55123
-0.112775
2.89155
-0.108128
3.26211
-0.0896785
3.07785
-0.0646744
2.45288
-0.0375729
1.97529
-0.00816912
1.57778
0.0132314
1.20218
0.0246539
0.812903
0.023729
0.446163
0.0132517
0.18745
0.00371753
0.0473168
-0.00344522
0.00423326
0.291299
3.86893e-05
0.776778
-0.0132638
1.14944
-0.0298038
1.44096
-0.0469942
1.71262
-0.0642325
1.97983
-0.080567
2.25599
-0.0936411
2.56431
-0.0996371
2.89755
-0.0948248
3.2573
-0.0774366
3.06046
-0.0535809
2.42902
-0.0275197
1.94923
-0.00507811
1.55534
0.0151968
1.18191
0.0264925
0.801607
0.0232421
0.449413
0.0130832
0.197609
0.00376781
0.0566322
0.000322587
0.00260664
0.288693
-0.000987442
0.780372
-0.0127902
1.16124
-0.0276111
1.45578
-0.0437605
1.72877
-0.0597985
1.99587
-0.0749065
2.2711
-0.0873248
2.57673
-0.0940869
2.90431
-0.0907632
3.25397
-0.074283
3.04398
-0.0527879
2.40753
-0.0296004
1.92605
-0.00411343
1.52985
0.0134386
1.16436
0.0214801
0.793565
0.0199891
0.450904
0.0112839
0.206314
0.00336058
0.0645556
0.00368317
0.000589966
0.288103
-0.00277552
0.783737
-0.0134129
1.17188
-0.0268689
1.46924
-0.041874
1.74378
-0.05707
2.01107
-0.0717455
2.28578
-0.0841721
2.58915
-0.0913669
2.9115
-0.0884957
3.2511
-0.0745388
3.03003
-0.0541329
2.38712
-0.0307053
1.90262
-0.0122089
1.51136
0.00561998
1.14653
0.016312
0.782873
0.0148037
0.452412
0.00859775
0.21252
0.00261642
0.0705369
0.00629959
-0.000524667
0.288627
-0.00534405
0.788557
-0.0149142
1.18145
-0.0272669
1.48159
-0.0415973
1.75811
-0.0562757
2.02574
-0.0706669
2.30017
-0.0833995
2.60188
-0.0916598
2.91976
-0.0905556
3.25
-0.0774838
3.01695
-0.0581775
2.36782
-0.0395976
1.88404
-0.017994
1.48975
-0.00216112
1.1307
0.00628049
0.774432
0.00848337
0.450209
0.00511124
0.215892
0.0017864
0.0738618
0.00808599
-0.0018274
0.290455
-0.00689905
0.793628
-0.016297
1.19085
-0.028062
1.49335
-0.0415876
1.77163
-0.0558021
2.03996
-0.0702795
2.31464
-0.0835658
2.61517
-0.0929962
2.92919
-0.0942183
3.25122
-0.0839376
3.00667
-0.065628
2.34951
-0.0444171
1.86283
-0.0282117
1.47355
-0.0125052
1.11499
-0.000636245
0.762563
0.00209018
0.447483
0.00196466
0.216018
0.000896103
0.0749303
0.0089821
-0.00332329
0.293778
-0.00888583
0.799191
-0.0177987
1.19976
-0.0290188
1.50457
-0.0421543
1.78477
-0.0561555
2.05396
-0.0706779
2.32917
-0.0845637
2.62906
-0.0953886
2.94002
-0.0986114
3.25444
-0.0885242
2.99659
-0.0722674
2.33325
-0.0562068
1.84677
-0.035933
1.45327
-0.0201341
1.09919
-0.00946136
0.75189
-0.0028717
0.440893
-0.000939497
0.214085
2.10394e-06
0.0739887
0.0089842
-0.00401595
0.297794
-0.0098395
0.805014
-0.0188716
1.20879
-0.0298827
1.51559
-0.0425371
1.79742
-0.0561802
2.0676
-0.0707918
2.34378
-0.0853196
2.64358
-0.0976019
2.9523
-0.103678
3.26052
-0.0977319
2.99064
-0.0828254
2.31834
-0.0615141
1.82546
-0.0447788
1.43654
-0.027657
1.08207
-0.0136855
0.737919
-0.00712488
0.434333
-0.00247926
0.20944
-0.000376376
0.0718858
0.00860782
-0.00433972
0.302134
-0.0110102
0.811685
-0.0198643
1.21764
-0.0304599
1.52618
-0.0428475
1.80981
-0.0563757
2.08113
-0.0711287
2.35853
-0.0863576
2.65881
-0.100164
2.96611
-0.108502
3.26886
-0.104483
2.98662
-0.090832
2.30469
-0.0742849
1.80891
-0.0511078
1.41336
-0.0321156
1.06308
-0.0185181
0.724321
-0.00875057
0.424565
-0.00339308
0.204082
-0.000661447
0.0691542
0.00794638
-0.00435391
0.306488
-0.0112755
0.818607
-0.0202903
1.22666
-0.0307859
1.53668
-0.0428416
1.82187
-0.0560903
2.09438
-0.0709123
2.37335
-0.0866514
2.67455
-0.101734
2.98119
-0.11293
3.28005
-0.113447
2.98714
-0.101674
2.29292
-0.0792257
1.78646
-0.0578033
1.39194
-0.0356724
1.04095
-0.0180527
0.706701
-0.00895681
0.415469
-0.0030461
0.198172
-0.00069797
0.0668061
0.00724841
-0.00450985
0.310997
-0.0118658
0.825962
-0.020607
1.2354
-0.0307206
1.54679
-0.0425348
1.83368
-0.0557025
2.10755
-0.0706421
2.38829
-0.0869496
2.69086
-0.103505
2.99775
-0.117086
3.29363
-0.119737
2.98979
-0.109721
2.2829
-0.0920019
1.76874
-0.0630361
1.36297
-0.0362755
1.01418
-0.0172626
0.687688
-0.00441129
0.402618
0.000318334
0.193442
0.000917276
0.0662071
0.00816568
-0.00449793
0.315495
-0.0117289
0.833193
-0.0204414
1.24411
-0.0304573
1.55681
-0.0419839
1.84521
-0.0548677
2.12043
-0.0697639
2.40319
-0.0864302
2.70753
-0.104026
3.01534
-0.119716
3.30932
-0.126961
2.99703
-0.119792
2.27573
-0.0969526
1.7459
-0.0691866
1.33521
-0.0360664
0.981064
-0.00948718
0.661109
0.00409686
0.389034
0.00521451
0.192324
-0.00103159
0.0724532
0.00713409
-0.00457742
0.320073
-0.0119346
0.840551
-0.0202713
1.25245
-0.029855
1.56639
-0.0410755
1.85643
-0.0538228
2.13318
-0.0687519
2.41812
-0.0858436
2.72462
-0.104534
3.03403
-0.122381
3.32717
-0.132343
3.007
-0.127531
2.27092
-0.110621
1.72899
-0.075596
1.30018
-0.0348429
0.940311
0.00228238
0.623984
0.0310853
0.360231
0.0407732
0.182636
0.0266918
0.0865347
0.0338259
-0.00443307
0.324506
-0.0115049
0.847622
-0.0197222
1.26067
-0.0291464
1.57581
-0.0400419
1.86732
-0.0524581
2.1456
-0.0672292
2.43289
-0.0844695
2.74186
-0.103831
3.05339
-0.123443
3.34678
-0.1366
3.02015
-0.136686
2.27101
-0.116699
1.709
-0.083967
1.26745
-0.0354048
0.891749
0.0128287
0.57575
0.0532799
0.31978
0.0498195
0.186097
0.0219278
0.114426
0.0557537
-0.00433417
0.32884
-0.0114178
0.854706
-0.0192273
1.26848
-0.0281524
1.58474
-0.0387036
1.87787
-0.0509234
2.15781
-0.0656277
2.44759
-0.0830746
2.75931
-0.103149
3.07347
-0.124545
3.36818
-0.139863
3.03547
-0.143327
2.27447
-0.132071
1.69775
-0.0958569
1.23124
-0.0427679
0.83866
0.0289636
0.504019
0.127283
0.22146
0.197863
0.115517
0.183337
0.128952
0.239091
-0.00416639
0.333006
-0.0109968
0.861536
-0.0188692
1.27635
-0.0279518
1.59382
-0.0387185
1.88864
-0.0513283
2.17042
-0.0668739
2.46314
-0.0858227
2.77825
-0.108483
3.09613
-0.134251
3.39395
-0.155721
3.05694
-0.16553
2.28428
-0.153523
1.68574
-0.121659
1.19937
-0.0597486
0.77675
-0.00136513
0.445635
-0.0601774
0.280273
-0.355989
0.411329
-0.943184
0.716147
0.900968
-1.60506
-0.00403434
0.337041
-0.0108693
0.868371
-0.0184344
1.28391
-0.0272104
1.6026
-0.0378494
1.89928
-0.0506558
2.18323
-0.0667288
2.47921
-0.0867446
2.79827
-0.111377
3.12076
-0.14073
3.4233
-0.167046
3.08326
-0.181741
2.29898
-0.1874
1.6914
-0.164105
1.17608
-0.133427
0.746071
-0.229053
0.541262
-0.693516
0.744735
-1.44678
1.1646
-2.05333
1.32269
1.2164
-2.36877
-0.00379152
0.340832
-0.0102168
0.874797
-0.017664
1.29136
-0.0264174
1.61135
-0.0369963
1.90986
-0.049837
2.19607
-0.0662342
2.49561
-0.0870609
2.8191
-0.113516
3.14722
-0.146766
3.45655
-0.179788
3.11628
-0.204004
2.32319
-0.21037
1.69777
-0.195878
1.16159
-0.281462
0.831655
-0.75326
1.01306
-1.55005
1.54152
-2.11259
1.72714
-2.35114
1.56124
1.33038
-2.46511
-0.00366593
0.344498
-0.00991772
0.881048
-0.0169824
1.29843
-0.0253655
1.61973
-0.0357331
1.92023
-0.0486897
2.20903
-0.0655044
2.51242
-0.0872904
2.84088
-0.115647
3.17557
-0.15252
3.49342
-0.191247
3.15501
-0.22166
2.3536
-0.246897
1.723
-0.323077
1.23777
-0.681412
1.18999
-1.44046
1.7721
-2.02874
2.12981
-2.26798
1.96639
-2.3809
1.67415
1.3943
-2.44482
-0.00334234
0.347841
-0.00908667
0.886793
-0.0159377
1.30528
-0.0242273
1.62802
-0.0345449
1.93054
-0.0474637
2.22195
-0.0644647
2.52943
-0.0868939
2.86331
-0.116921
3.2056
-0.157813
3.53432
-0.204563
3.20176
-0.247591
2.39663
-0.286972
1.76238
-0.467593
1.41839
-1.09488
1.81727
-1.79011
2.46734
-2.10918
2.44888
-2.25695
2.11416
-2.33887
1.75607
1.46023
-2.40479
-0.00333727
0.351178
-0.00915393
0.892609
-0.0158745
1.312
-0.0240437
1.63619
-0.0345222
1.94102
-0.0478171
2.23524
-0.0654514
2.54706
-0.0889945
2.88685
-0.12097
3.23757
-0.165368
3.57871
-0.217926
3.25431
-0.263979
2.44269
-0.351782
1.85019
-0.744349
1.81095
-1.49138
2.5643
-1.96324
2.9392
-2.16296
2.6486
-2.26902
2.22021
-2.34612
1.83317
1.52358
-2.40947
-0.00339074
0.354569
-0.0092721
0.898491
-0.0164888
1.31921
-0.0253
1.645
-0.0363975
1.95212
-0.0502953
2.24914
-0.0687188
2.56548
-0.0934023
2.91154
-0.127365
3.27154
-0.176116
3.62747
-0.234281
3.31248
-0.295862
2.50427
-0.482739
2.03706
-1.04603
2.37424
-1.67901
3.19728
-1.95333
3.21353
-2.09998
2.79524
-2.21371
2.33395
-2.30724
1.9267
1.58515
-2.36881
-0.00352924
0.358098
-0.00999072
0.904952
-0.0174757
1.3267
-0.0265295
1.65406
-0.0380293
1.96362
-0.0526731
2.26378
-0.0721346
2.58494
-0.098318
2.93772
-0.134452
3.30767
-0.186716
3.67973
-0.249642
3.3754
-0.334831
2.58946
-0.616444
2.31868
-1.26408
3.02188
-1.75228
3.68548
-1.95921
3.42046
-2.09878
2.9348
-2.22242
2.45759
-2.33265
2.03693
1.6437
-2.3912
-0.00344179
0.36154
-0.00987872
0.911389
-0.0180362
1.33486
-0.0279473
1.66397
-0.0402004
1.97587
-0.0554922
2.27908
-0.0757631
2.60522
-0.103076
2.96504
-0.141112
3.34571
-0.196999
3.73562
-0.26537
3.44378
-0.389216
2.7133
-0.774988
2.70445
-1.41036
3.65726
-1.76221
4.03732
-1.93485
3.5931
-2.0365
3.03645
-2.12487
2.54596
-2.19181
2.10386
1.63638
-2.18449
-0.00347786
0.365017
-0.0106333
0.918545
-0.019039
1.34326
-0.0291367
1.67407
-0.0418037
1.98854
-0.0579161
2.29519
-0.0793131
2.62661
-0.108205
2.99393
-0.148356
3.38586
-0.205848
3.79311
-0.284181
3.52211
-0.453708
2.88283
-0.906409
3.15715
-1.46243
4.21328
-1.72363
4.29852
-1.87492
3.74439
-1.96805
3.12959
-1.96911
2.54702
-1.89957
2.03432
1.6
-1.8632
-0.00320504
0.368222
-0.0100732
0.925413
-0.0192251
1.35241
-0.0302877
1.68513
-0.0437048
2.00196
-0.0602209
2.3117
-0.0818964
2.64829
-0.110961
3.02299
-0.151354
3.42625
-0.208704
3.85046
-0.294795
3.6082
-0.498767
3.0868
-0.988608
3.64699
-1.42924
4.65392
-1.59388
4.46317
-1.66074
3.81124
-1.66503
3.13387
-1.51722
2.39921
-1.01717
1.53428
0.582834
-0.00284986
0.371072
-0.010716
0.933279
-0.0200507
1.36175
-0.0312864
1.69637
-0.0453861
2.01606
-0.0633279
2.32965
-0.0871226
2.67208
-0.119239
3.05511
-0.163864
3.47088
-0.227682
3.91428
-0.330394
3.71091
-0.58443
3.34084
-1.12419
4.18675
-1.48208
5.0118
-1.58107
4.56215
-1.57873
3.8089
-1.47471
3.02985
-1.23584
2.16035
-0.631611
0.930046
-0.048777
-0.00246894
0.373541
-0.00929739
0.940107
-0.0194953
1.37195
-0.032184
1.70905
-0.0476993
2.03157
-0.0669205
2.34887
-0.0923629
2.69753
-0.126805
3.08955
-0.175517
3.51959
-0.245603
3.98436
-0.368324
3.83363
-0.682617
3.65513
-1.24251
4.74664
-1.50254
5.27184
-1.56075
4.62036
-1.53842
3.78658
-1.33663
2.82806
-0.782641
1.60636
-0.108675
0.25608
-0.157452
-0.00174054
0.375282
-0.00962055
0.947987
-0.019682
1.38201
-0.0322183
1.72159
-0.0481334
2.04749
-0.0687185
2.36945
-0.0963886
2.7252
-0.134167
3.12733
-0.186902
3.57232
-0.265068
4.06253
-0.41384
3.9824
-0.786127
4.02742
-1.32101
5.28153
-1.49684
5.44767
-1.52799
4.65151
-1.43977
3.69835
-1.10176
2.49006
-0.312911
0.817513
0.0247923
-0.0816238
-0.132659
-0.000623639
0.375905
-0.00660973
0.953973
-0.0174793
1.39288
-0.0317287
1.73584
-0.0491992
2.06496
-0.0710435
2.3913
-0.100211
2.75436
-0.139888
3.167
-0.195308
3.62774
-0.28158
4.1488
-0.456382
4.15721
-0.894643
4.46568
-1.36592
5.75281
-1.48209
5.56383
-1.48484
4.65426
-1.2594
3.47292
-0.686031
1.91668
-0.0625744
0.194056
0.0302766
-0.174475
-0.102383
9.40335e-05
0.375811
-0.00586058
0.959928
-0.0161436
1.40316
-0.029807
1.7495
-0.0470604
2.08221
-0.0700406
2.41428
-0.101266
2.78559
-0.143984
3.20972
-0.202916
3.68668
-0.298852
4.24474
-0.500456
4.35881
-0.98883
4.95405
-1.36199
6.12597
-1.42585
5.62769
-1.37918
4.60758
-1.09032
3.18406
-0.322244
1.14861
0.0050996
-0.133287
0.0151819
-0.184557
-0.0872008
0.0032915
0.37252
0.000363555
0.962856
-0.0109065
1.41443
-0.0265116
1.76511
-0.0452278
2.10093
-0.0694195
2.43847
-0.101669
2.81784
-0.145395
3.25345
-0.206611
3.74789
-0.309914
4.34804
-0.536885
4.58578
-1.04967
5.46684
-1.32539
6.40169
-1.36638
5.66868
-1.22563
4.46683
-0.771401
2.72983
-0.0684365
0.445643
0.0447679
-0.246491
0.024439
-0.164228
-0.0627617
0.0044777
0.368042
0.00249488
0.964839
-0.00726211
1.42419
-0.0208846
1.77873
-0.0384129
2.11846
-0.0631984
2.46325
-0.0968499
2.85149
-0.143064
3.29966
-0.207267
3.81209
-0.319476
4.46025
-0.577651
4.84395
-1.07325
5.96244
-1.26272
6.59116
-1.27113
5.67708
-1.05148
4.24719
-0.460069
2.13842
-0.0182693
0.00384366
-0.00643182
-0.258329
0.00502087
-0.175681
-0.0577409
0.00867179
0.35937
0.00994553
0.963565
0.00244385
1.43169
-0.0121056
1.79328
-0.031315
2.13767
-0.0568586
2.4888
-0.0905766
2.88521
-0.136113
3.3452
-0.201378
3.87736
-0.318753
4.57762
-0.596972
5.12217
-1.04811
6.41358
-1.17203
6.71508
-1.15793
5.66298
-0.897024
3.98629
-0.263272
1.50467
-0.0708525
-0.188576
-0.0388989
-0.290282
-0.0142051
-0.200375
-0.0719459
0.0114968
0.347874
0.0161105
0.958951
0.0111311
1.43667
0.000957849
1.80345
-0.0172142
2.15584
-0.0416181
2.5132
-0.0751925
2.91878
-0.121915
3.39192
-0.188421
3.94387
-0.310751
4.69995
-0.598175
5.4096
-0.986429
6.80183
-1.05141
6.78007
-0.979116
5.59068
-0.67761
3.68478
-0.0722871
0.899344
0.0143521
-0.275215
-0.000424529
-0.275506
-0.00185624
-0.198943
-0.0738022
0.0185147
0.329359
0.0300854
0.947381
0.0284966
1.43826
0.0168884
1.81506
-0.00160315
2.17433
-0.02465
2.53625
-0.0568049
2.95094
-0.10073
3.43585
-0.164757
4.00789
-0.285441
4.82064
-0.563696
5.68785
-0.87082
7.10896
-0.904859
6.81411
-0.806638
5.49246
-0.448009
3.32615
0.0663306
0.385005
0.0760423
-0.284927
0.056555
-0.256018
0.0218521
-0.16424
-0.0519501
0.0243696
0.304989
0.0425005
0.92925
0.0456138
1.43515
0.0390993
1.82158
0.026922
2.18651
0.00560289
2.55757
-0.0242817
2.98082
-0.066696
3.47826
-0.128482
4.06968
-0.244155
4.93631
-0.493151
5.93685
-0.714367
7.33017
-0.746575
6.84631
-0.637241
5.38313
-0.307531
2.99644
-0.00391283
0.0813871
0.0165647
-0.305405
0.0309758
-0.270429
0.0162719
-0.149536
-0.0356782
0.0352022
0.269787
0.0652679
0.899184
0.0759225
1.42449
0.071917
1.82558
0.0603303
2.19809
0.0408591
2.57704
0.0139381
3.00774
-0.0231692
3.51537
-0.0773213
4.12383
-0.175041
5.03403
-0.376366
6.13817
-0.532166
7.48597
-0.553587
6.86773
-0.461045
5.29058
-0.181707
2.7171
-0.0657368
-0.0345829
-0.049761
-0.321381
-0.0207907
-0.2994
-0.00304026
-0.167287
-0.0387185
0.0446431
0.225144
0.0871697
0.856657
0.10733
1.40433
0.112014
1.8209
0.108155
2.20195
0.094459
2.59073
0.0737582
3.02844
0.0418427
3.54728
-0.00861851
4.17429
-0.0829972
5.10841
-0.219776
6.27495
-0.308912
7.57511
-0.325816
6.88464
-0.26908
5.23385
-0.0569802
2.505
-0.0820338
-0.00952938
-0.0760206
-0.327394
-0.0344537
-0.340967
0.00931324
-0.211054
-0.0294052
0.0579056
0.167238
0.120438
0.794125
0.15668
1.36809
0.168438
1.80914
0.16783
2.20256
0.157545
2.60102
0.143053
3.04294
0.122126
3.56821
0.0892431
4.20717
0.0450525
5.1526
-0.00445875
6.32446
-0.0418828
7.61253
-0.0464844
6.88924
-0.0400408
5.2274
-0.0200144
2.48498
-0.194374
0.16483
-0.179277
-0.34249
-0.0854253
-0.434818
0.0151954
-0.311674
-0.0142098
0.0601726
0.107066
0.15045
0.703848
0.206865
1.31167
0.233754
1.78225
0.245516
2.1908
0.245071
2.60146
0.239617
3.04839
0.228491
3.57934
0.212697
4.22297
0.194222
5.17108
0.253737
6.26495
0.30643
7.55984
0.282301
6.91337
0.10664
5.40306
-0.213963
2.80558
-0.524022
0.474889
-0.526828
-0.339684
-0.384962
-0.576685
-0.170559
-0.526077
-0.184769
0.0504638
0.056602
0.183458
0.570853
0.278334
1.2168
0.323155
1.73743
0.342374
2.17158
0.34973
2.59411
0.350607
3.04751
0.355032
3.57491
0.363007
4.21499
0.386111
5.14797
0.54042
6.11064
0.70597
7.39429
0.714379
6.90496
0.588881
5.52856
0.0994004
3.29506
-0.46285
1.03714
-0.710324
-0.0922095
-0.591184
-0.695825
-0.321584
-0.795677
-0.506352
0.0347307
0.0218714
0.218387
0.387197
0.344039
1.09114
0.420672
1.6608
0.461483
2.13077
0.485048
2.57054
0.494321
3.03824
0.51077
3.55846
0.542141
4.18362
0.609322
5.08079
0.889386
5.83058
1.30332
6.98036
1.59781
6.61047
1.78415
5.34222
1.41966
3.65955
0.68349
1.77331
0.103347
0.487933
-0.201228
-0.39125
-0.213665
-0.78324
-0.720017
0.0310208
-0.00914946
0.236806
0.181412
0.444235
0.883716
0.556877
1.54816
0.607655
2.07999
0.640388
2.53781
0.662359
3.01627
0.691972
3.52885
0.749819
4.12577
0.874756
4.95585
1.25636
5.44897
1.94318
6.29354
2.31497
6.23868
2.53464
5.12255
2.39111
3.80307
1.79839
2.36604
1.21259
1.07373
0.578985
0.242352
0.183566
-0.387821
-0.536451
0.026562
-0.0357115
0.165324
0.04265
0.490722
0.558318
0.682647
1.35623
0.781111
1.98153
0.831434
2.48749
0.866469
2.98123
0.894603
3.50072
0.970372
4.05001
1.11437
4.81186
1.49735
5.06598
2.28314
5.50775
2.66277
5.85904
2.85403
4.9313
2.74621
3.91089
2.26026
2.85199
1.60854
1.72545
1.01374
0.837154
0.444763
0.181153
-0.0916885
0.00579117
-0.0415026
0.0851269
-0.0366857
0.413944
0.229501
0.699838
1.07034
0.829751
1.85161
0.869594
2.44764
0.881661
2.96916
0.868095
3.51428
0.866021
4.05208
0.908768
4.76911
1.05341
4.92134
1.48156
5.0796
1.65397
5.68664
1.68365
4.90162
1.60413
3.99041
1.38211
3.07401
1.01528
2.09228
0.642649
1.20978
0.258863
0.564938
0.167175
0.00289322
-0.0443959
0.0438896
-0.077682
0.225829
0.0475614
0.528556
0.76761
0.696852
1.68332
0.749505
2.39499
0.763504
2.95517
0.759022
3.51877
0.743357
4.06774
0.76479
4.74768
0.832295
4.85383
1.10848
4.80342
1.30545
5.48967
1.30879
4.89828
1.24646
4.05274
1.09139
3.22908
0.812178
2.3715
0.507156
1.51481
0.213728
0.858366
0.380903
0.00314924
-0.0475451
0.0235883
-0.0981211
0.0992006
-0.028051
0.363672
0.503139
0.545824
1.50116
0.629634
2.31118
0.646636
2.93816
0.644557
3.52084
0.618186
4.09412
0.612306
4.75356
0.641015
4.82512
0.80369
4.64074
0.984064
5.30929
0.976558
4.90579
0.915322
4.11397
0.798263
3.34614
0.604525
2.56523
0.371699
1.74763
0.148221
1.08184
0.529124
-0.0107072
-0.0368379
-0.00964066
-0.0991876
0.0266097
-0.0643013
0.238691
0.291058
0.410694
1.32916
0.493281
2.22859
0.51804
2.9134
0.522126
3.51676
0.501414
4.11483
0.483508
4.77146
0.486279
4.82235
0.583543
4.54348
0.714617
5.17822
0.709666
4.91074
0.646545
4.1771
0.550454
3.44223
0.413201
2.70249
0.243794
1.91704
0.0871841
1.23845
0.616308
-0.0065209
-0.030317
0.0113766
-0.117085
0.046886
-0.0998108
0.176751
0.161193
0.322086
1.18383
0.379983
2.1707
0.391539
2.90185
0.395089
3.51321
0.38588
4.12404
0.370714
4.78663
0.359398
4.83367
0.411075
4.4918
0.50112
5.08818
0.494745
4.91711
0.438423