/*--------------------------------*- C++ -*----------------------------------*\
  =========                 |
  \\      /  F ield         | OpenFOAM: The Open Source CFD Toolbox
   \\    /   O peration     | Website:  https://openfoam.org
    \\  /    A nd           | Version:  10
     \\/     M anipulation  |
\*---------------------------------------------------------------------------*/
FoamFile
{
    format      ascii;
    class       volVectorField;
    location    "28";
    object      U;
}
// * * * * * * * * * * * * * * * * * * * * * * * * * * * * * * * * * * * * * //

dimensions      [0 1 -1 0 0 0 0];

internalField   nonuniform List<vector> 
8800
(
(0.980153 -0.0915211 0)
(1.00234 -0.0587238 0)
(0.999609 -0.0321241 0)
(0.999997 -0.0165151 0)
(1.00005 -0.00882741 0)
(1.00002 -0.0050725 0)
(1.00001 -0.00297335 0)
(1 -0.00168586 0)
(1 -0.000809106 0)
(1.00005 -0.000123309 0)
(1 0.000566157 0)
(1.00001 0.00132467 0)
(1.00001 0.00235975 0)
(1.00002 0.00397212 0)
(1.00004 0.00672442 0)
(1.00005 0.012034 0)
(0.999883 0.023086 0)
(0.999076 0.043153 0)
(1.00722 0.0790283 0)
(0.775024 0.0478396 0)
(0.35898 -0.0147488 0)
(1.04649 -0.0724915 0)
(1.08849 -0.0660288 0)
(1.04947 -0.0509212 0)
(1.02553 -0.0376972 0)
(1.01267 -0.0258855 0)
(1.00648 -0.0166954 0)
(1.00356 -0.0102361 0)
(1.00215 -0.00564689 0)
(1.00151 -0.00209703 0)
(1.00139 0.0010825 0)
(1.00175 0.0043733 0)
(1.00271 0.00827207 0)
(1.00473 0.0136071 0)
(1.00897 0.0213009 0)
(1.01799 0.0318029 0)
(1.0359 0.0445964 0)
(1.06752 0.058061 0)
(1.09475 0.0699581 0)
(0.845713 0.0554955 0)
(0.217767 -0.00138076 0)
(1.07567 -0.0506572 0)
(1.09942 -0.0489452 0)
(1.06437 -0.0400337 0)
(1.03981 -0.0325731 0)
(1.02368 -0.0253566 0)
(1.01392 -0.0181665 0)
(1.00844 -0.0116054 0)
(1.0056 -0.00591769 0)
(1.00446 -0.000681276 0)
(1.00479 0.00439849 0)
(1.00665 0.00967622 0)
(1.01058 0.0156603 0)
(1.01789 0.0224459 0)
(1.03052 0.0295786 0)
(1.05057 0.0366928 0)
(1.08019 0.0444901 0)
(1.10582 0.0518387 0)
(0.943476 0.040961 0)
(0.217323 0.0013987 0)
(0.176626 -0.000628152 0)
(1.0194 -0.0354576 0)
(1.10572 -0.0414023 0)
(1.07795 -0.0363801 0)
(1.05234 -0.0303237 0)
(1.03505 -0.0244558 0)
(1.02319 -0.0187206 0)
(1.01542 -0.0128178 0)
(1.01086 -0.00681179 0)
(1.00887 -0.000659431 0)
(1.00943 0.00543223 0)
(1.01253 0.0113284 0)
(1.01849 0.0171039 0)
(1.02809 0.0226976 0)
(1.04234 0.0282722 0)
(1.06324 0.034096 0)
(1.0941 0.0400348 0)
(1.09473 0.0416171 0)
(0.830693 0.0227034 0)
(0.175875 0.000642713 0)
(0.154727 -0.000461828 0)
(0.958182 -0.0256611 0)
(1.10438 -0.0350853 0)
(1.08801 -0.0326597 0)
(1.06108 -0.028185 0)
(1.04297 -0.0232518 0)
(1.03059 -0.0180109 0)
(1.02203 -0.0125573 0)
(1.01651 -0.00675833 0)
(1.0139 -0.000424212 0)
(1.01461 0.00594134 0)
(1.01848 0.0117755 0)
(1.02528 0.0171247 0)
(1.03543 0.0221972 0)
(1.05023 0.0270676 0)
(1.07224 0.0315291 0)
(1.10134 0.0354343 0)
(1.07024 0.0337139 0)
(0.743469 0.0143415 0)
(0.153605 0.000478263 0)
(0.140079 -0.000333115 0)
(0.901268 -0.0192622 0)
(1.09678 -0.0301235 0)
(1.09606 -0.0292257 0)
(1.06868 -0.0254364 0)
(1.04979 -0.0214019 0)
(1.03682 -0.0168535 0)
(1.02786 -0.0117832 0)
(1.02196 -0.00622852 0)
(1.01905 -2.35138e-05 0)
(1.01976 0.00623306 0)
(1.02386 0.0118115 0)
(1.03095 0.0167751 0)
(1.04149 0.0212393 0)
(1.05694 0.0251976 0)
(1.07981 0.0287727 0)
(1.1038 0.0315862 0)
(1.03893 0.0277445 0)
(0.677324 0.0101469 0)
(0.138504 0.000352662 0)
(0.129405 -0.000250922 0)
(0.851599 -0.0147961 0)
(1.08445 -0.0259307 0)
(1.10173 -0.0263006 0)
(1.07543 -0.0230301 0)
(1.05595 -0.0194443 0)
(1.04252 -0.015402 0)
(1.03318 -0.0107296 0)
(1.027 -0.00542642 0)
(1.02387 0.000501032 0)
(1.02452 0.00643441 0)
(1.02869 0.0116771 0)
(1.03596 0.0162269 0)
(1.04684 0.0201397 0)
(1.06276 0.0235399 0)
(1.08614 0.0266189 0)
(1.1033 0.0285071 0)
(1.00497 0.0230126 0)
(0.626248 0.0076767 0)
(0.12728 0.000274888 0)
(0.121335 -0.000191425 0)
(0.809543 -0.0115226 0)
(1.06916 -0.0221613 0)
(1.10502 -0.0234733 0)
(1.08142 -0.0206998 0)
(1.06156 -0.0174121 0)
(1.04787 -0.0137201 0)
(1.03822 -0.00943748 0)
(1.03175 -0.00450259 0)
(1.02842 0.00112525 0)
(1.02894 0.00674938 0)
(1.03312 0.0115615 0)
(1.04055 0.0155929 0)
(1.05161 0.018999 0)
(1.06776 0.0219716 0)
(1.09146 0.0247093 0)
(1.09996 0.02573 0)
(0.971029 0.0191865 0)
(0.58587 0.00602565 0)
(0.118542 0.000220683 0)
(0.115167 -0.000145154 0)
(0.774499 -0.00900544 0)
(1.0526 -0.0187595 0)
(1.10727 -0.0207448 0)
(1.08704 -0.0182995 0)
(1.06672 -0.0152056 0)
(1.05277 -0.0118196 0)
(1.04294 -0.00787966 0)
(1.03625 -0.00331278 0)
(1.03269 0.00191006 0)
(1.03306 0.00706585 0)
(1.0372 0.0113818 0)
(1.04461 0.0148942 0)
(1.05572 0.0178408 0)
(1.07218 0.0204452 0)
(1.09573 0.02291 0)
(1.09423 0.0232301 0)
(0.938664 0.0160712 0)
(0.553337 0.00483379 0)
(0.111561 0.000180973 0)
(0.110467 -0.000109074 0)
(0.745659 -0.00698977 0)
(1.03572 -0.0156252 0)
(1.10846 -0.0181558 0)
(1.09224 -0.0161654 0)
(1.07155 -0.0133069 0)
(1.05731 -0.0100753 0)
(1.04734 -0.00629412 0)
(1.04049 -0.00199902 0)
(1.03669 0.00282425 0)
(1.03687 0.00750943 0)
(1.04084 0.0113599 0)
(1.04813 0.0144911 0)
(1.05925 0.0171011 0)
(1.07606 0.0193722 0)
(1.09876 0.0213865 0)
(1.08633 0.0209374 0)
(0.908601 0.0135138 0)
(0.526744 0.00394322 0)
(0.105872 0.000153293 0)
(0.106968 -7.73215e-05 0)
(0.722435 -0.00527912 0)
(1.01961 -0.0126321 0)
(1.10861 -0.0153773 0)
(1.09697 -0.0137534 0)
(1.07616 -0.0110744 0)
(1.06167 -0.00803131 0)
(1.05144 -0.00447979 0)
(1.04436 -0.000491807 0)
(1.04032 0.00393866 0)
(1.04021 0.00817069 0)
(1.04396 0.0115212 0)
(1.05119 0.0141679 0)
(1.06239 0.0163349 0)
(1.07934 0.0182242 0)
(1.1003 0.0197776 0)
(1.07684 0.0186809 0)
(0.881357 0.0113516 0)
(0.504861 0.00324003 0)
(0.101159 0.000131815 0)
(0.104515 -4.88669e-05 0)
(0.704335 -0.00376356 0)
(1.00509 -0.00976485 0)
(1.1082 -0.0124569 0)
(1.10141 -0.0109999 0)
(1.08043 -0.00843866 0)
(1.06557 -0.00568647 0)
(1.05507 -0.00246793 0)
(1.04771 0.0012136 0)
(1.04339 0.0052814 0)
(1.04292 0.00903923 0)
(1.04642 0.0118601 0)
(1.05349 0.0138739 0)
(1.06473 0.0154024 0)
(1.08193 0.0168694 0)
(1.10092 0.0181243 0)
(1.06646 0.0165578 0)
(0.857073 0.00952262 0)
(0.486804 0.00268206 0)
(0.0972132 0.000117368 0)
(0.102983 -2.48132e-05 0)
(0.691049 -0.0023615 0)
(0.992641 -0.00696237 0)
(1.10741 -0.00955386 0)
(1.10549 -0.00845952 0)
(1.08449 -0.00615927 0)
(1.06939 -0.00344837 0)
(1.0588 -0.000275138 0)
(1.05124 0.00322969 0)
(1.04651 0.0069276 0)
(1.04565 0.0101814 0)
(1.04874 0.0125178 0)
(1.05547 0.0141694 0)
(1.06655 0.015379 0)
(1.08396 0.0162548 0)
(1.10065 0.0168358 0)
(1.0554 0.0145852 0)
(0.835741 0.0079298 0)
(0.471967 0.00223046 0)
(0.0938418 0.000109538 0)
(0.10236 2.3659e-06 0)
(0.682381 -0.000997532 0)
(0.98263 -0.00412873 0)
(1.10594 -0.00637682 0)
(1.10875 -0.00562739 0)
(1.08829 -0.0035363 0)
(1.07298 -0.000847568 0)
(1.06204 0.00223193 0)
(1.05412 0.00553883 0)
(1.04893 0.00894852 0)
(1.04753 0.0117692 0)
(1.05018 0.0135127 0)
(1.05665 0.0144892 0)
(1.06766 0.0150883 0)
(1.08483 0.0155823 0)
(1.09872 0.0155612 0)
(1.04369 0.0126784 0)
(0.817294 0.00654222 0)
(0.459888 0.00184623 0)
(0.0909461 0.000100528 0)
(0.102692 4.8071e-05 0)
(0.678191 0.000227247 0)
(0.975664 -0.0014187 0)
(1.10474 -0.00297607 0)
(1.11167 -0.00216782 0)
(1.09194 -0.000214897 0)
(1.07652 0.00231668 0)
(1.06534 0.00523834 0)
(1.057 0.00834566 0)
(1.05125 0.0114267 0)
(1.04915 0.0137363 0)
(1.05121 0.0148722 0)
(1.05724 0.015228 0)
(1.06786 0.0152124 0)
(1.08465 0.0149699 0)
(1.09575 0.0143076 0)
(1.03212 0.011128 0)
(0.801521 0.0055248 0)
(0.450043 0.00158721 0)
(0.0884942 8.78783e-05 0)
(0.103939 6.60149e-05 0)
(0.677949 0.0012105 0)
(0.971712 0.000782388 0)
(1.10435 -0.000101512 0)
(1.11469 0.00080586 0)
(1.09546 0.00276824 0)
(1.07986 0.00533495 0)
(1.06848 0.00828034 0)
(1.05978 0.0114458 0)
(1.05338 0.0144343 0)
(1.05044 0.016412 0)
(1.05168 0.0171209 0)
(1.05704 0.0169031 0)
(1.0673 0.0161785 0)
(1.0837 0.0154943 0)
(1.09179 0.0142758 0)
(1.02047 0.0105317 0)
(0.787519 0.00520995 0)
(0.441263 0.00158326 0)
(0.0862292 8.77919e-05 0)
(0.105854 9.51896e-05 0)
(0.680568 0.00198212 0)
(0.970544 0.00272583 0)
(1.10462 0.00245505 0)
(1.11782 0.00342552 0)
(1.09906 0.00549654 0)
(1.08331 0.00837708 0)
(1.07168 0.0117032 0)
(1.06242 0.0151427 0)
(1.0551 0.0181681 0)
(1.05119 0.0198876 0)
(1.05149 0.0201447 0)
(1.05602 0.019437 0)
(1.06565 0.0182812 0)
(1.08169 0.0169729 0)
(1.0865 0.0149978 0)
(1.00845 0.0107186 0)
(0.77429 0.00550149 0)
(0.432302 0.0017723 0)
(0.0838232 9.8066e-05 0)
(0.108458 0.000124451 0)
(0.686059 0.00276155 0)
(0.972242 0.00446476 0)
(1.10585 0.00522305 0)
(1.12117 0.00645709 0)
(1.10321 0.00886812 0)
(1.08749 0.0122957 0)
(1.07547 0.0161017 0)
(1.06547 0.0198076 0)
(1.05702 0.0228155 0)
(1.05179 0.0241689 0)
(1.05094 0.0238325 0)
(1.05454 0.0225273 0)
(1.06348 0.0208522 0)
(1.07858 0.0189658 0)
(1.07995 0.0163226 0)
(0.996064 0.0116521 0)
(0.760754 0.00629478 0)
(0.422185 0.00208912 0)
(0.0810203 0.000117378 0)
(0.11185 0.000160341 0)
(0.694139 0.00364653 0)
(0.976909 0.00632404 0)
(1.10917 0.00826504 0)
(1.12542 0.0104343 0)
(1.10818 0.0136297 0)
(1.09225 0.0176655 0)
(1.07949 0.0218839 0)
(1.06836 0.0257376 0)
(1.0585 0.0285624 0)
(1.05172 0.0293357 0)
(1.04959 0.0282538 0)
(1.05224 0.0262451 0)
(1.06034 0.023873 0)
(1.07441 0.0213748 0)
(1.07251 0.0182746 0)
(0.983231 0.013375 0)
(0.745643 0.00741237 0)
(0.41031 0.00248639 0)
(0.077677 0.000142557 0)
(0.116237 0.000210447 0)
(0.70507 0.00484921 0)
(0.984589 0.00852061 0)
(1.11527 0.0115252 0)
(1.13172 0.0148085 0)
(1.11434 0.0190699 0)
(1.09773 0.0238948 0)
(1.0839 0.0286538 0)
(1.07137 0.0328452 0)
(1.05975 0.0356288 0)
(1.05107 0.0358565 0)
(1.04749 0.0338803 0)
(1.04909 0.0309396 0)
(1.05642 0.0279625 0)
(1.06939 0.0249741 0)
(1.06447 0.0215119 0)
(0.968944 0.0158327 0)
(0.727973 0.00870117 0)
(0.396378 0.00292495 0)
(0.073685 0.000170833 0)
(0.121981 0.000280972 0)
(0.719653 0.00650049 0)
(0.994865 0.01141 0)
(1.12368 0.0151314 0)
(1.14001 0.0191898 0)
(1.12196 0.0244983 0)
(1.10417 0.0303476 0)
(1.08893 0.0360415 0)
(1.07468 0.0410712 0)
(1.06087 0.0443399 0)
(1.04993 0.0445354 0)
(1.04445 0.0420965 0)
(1.04476 0.0383417 0)
(1.05162 0.0342849 0)
(1.06367 0.0305742 0)
(1.05474 0.0261905 0)
(0.951197 0.0187563 0)
(0.707307 0.0100916 0)
(0.380271 0.00341878 0)
(0.0690001 0.000199283 0)
(0.129564 0.000383408 0)
(0.739067 0.00883144 0)
(1.00806 0.0154528 0)
(1.13357 0.0198415 0)
(1.14973 0.0242828 0)
(1.13119 0.0305179 0)
(1.11205 0.0375228 0)
(1.09519 0.0446432 0)
(1.07881 0.0509526 0)
(1.06232 0.0550853 0)
(1.04872 0.0555555 0)
(1.04103 0.0529467 0)
(1.03953 0.0487648 0)
(1.04507 0.04392 0)
(1.05559 0.0387534 0)
(1.04076 0.0317106 0)
(0.928991 0.0217686 0)
(0.683752 0.0117119 0)
(0.361683 0.00400955 0)
(0.0635314 0.000231059 0)
(0.139823 0.000547741 0)
(0.765111 0.0122015 0)
(1.02579 0.0212372 0)
(1.14495 0.0268564 0)
(1.16056 0.0317944 0)
(1.14181 0.0388668 0)
(1.12179 0.047304 0)
(1.10299 0.0560198 0)
(1.08386 0.0635418 0)
(1.06413 0.0682809 0)
(1.04744 0.068612 0)
(1.0372 0.0654323 0)
(1.03344 0.0604069 0)
(1.03677 0.0543829 0)
(1.04343 0.0469934 0)
(1.02098 0.0371099 0)
(0.902873 0.0250779 0)
(0.657066 0.0137368 0)
(0.340024 0.00472625 0)
(0.0571814 0.000265311 0)
(0.154028 0.000814762 0)
(0.799989 0.0172056 0)
(1.0505 0.0294526 0)
(1.15926 0.0371248 0)
(1.17281 0.0434231 0)
(1.15446 0.0520152 0)
(1.13342 0.0620532 0)
(1.11201 0.0719454 0)
(1.08937 0.0799722 0)
(1.06575 0.0843648 0)
(1.04545 0.083553 0)
(1.03226 0.0788518 0)
(1.02578 0.0721037 0)
(1.02568 0.0641292 0)
(1.02666 0.0544135 0)
(0.996988 0.0424672 0)
(0.874045 0.0291497 0)
(0.626634 0.0162772 0)
(0.314645 0.00554767 0)
(0.0498603 0.000297321 0)
(0.174387 0.00128396 0)
(0.846897 0.0250422 0)
(1.08501 0.0415378 0)
(1.17917 0.0524195 0)
(1.18845 0.0615904 0)
(1.16946 0.0722278 0)
(1.14635 0.0834935 0)
(1.12137 0.093659 0)
(1.09442 0.101004 0)
(1.06624 0.103693 0)
(1.04187 0.100462 0)
(1.02528 0.093179 0)
(1.01561 0.0839526 0)
(1.01134 0.0735949 0)
(1.00656 0.0620337 0)
(0.970679 0.0489741 0)
(0.842346 0.0344755 0)
(0.591253 0.0194398 0)
(0.285039 0.00648596 0)
(0.0415902 0.000324556 0)
(0.204304 0.00234782 0)
(0.911554 0.0385891 0)
(1.13248 0.0612432 0)
(1.20654 0.075579 0)
(1.20879 0.0886089 0)
(1.18642 0.101045 0)
(1.15948 0.112585 0)
(1.1298 0.121725 0)
(1.09785 0.126973 0)
(1.06462 0.126549 0)
(1.03585 0.119723 0)
(1.01561 0.109108 0)
(1.00249 0.0970374 0)
(0.994139 0.0843806 0)
(0.984388 0.0714549 0)
(0.942567 0.0576108 0)
(0.806404 0.0413003 0)
(0.549822 0.023243 0)
(0.251389 0.00756552 0)
(0.0326251 0.000343456 0)
(0.245477 0.00871047 7.43737e-20)
(0.997518 0.0659725 6.4473e-20)
(1.19028 0.0945102 -2.2234e-20)
(1.24032 0.111011 0)
(1.23198 0.127226 -5.31604e-34)
(1.20365 0.139801 7.67865e-21)
(1.17128 0.150068 -1.33066e-20)
(1.13604 0.156855 0)
(1.09857 0.158889 2.61806e-34)
(1.05984 0.154477 -1.54055e-20)
(1.02617 0.143474 0)
(1.00182 0.129303 -1.78094e-20)
(0.984781 0.114409 -5.22007e-20)
(0.972352 0.099865 -2.45443e-20)
(0.958135 0.0862035 -7.33931e-21)
(0.909525 0.0718128 -4.34388e-21)
(0.761421 0.0524017 0)
(0.498263 0.0295265 3.04317e-21)
(0.213981 0.0103214 3.59707e-21)
(0.0245096 0.000881833 6.47553e-20)
(0.273146 0.024503 6.16904e-20)
(1.06798 0.109086 5.07021e-22)
(1.23818 0.142401 6.27247e-21)
(1.27225 0.160548 0)
(1.2535 0.175803 -2.80715e-20)
(1.2187 0.18707 -3.12105e-20)
(1.18036 0.195412 -1.37007e-20)
(1.13914 0.199764 -4.71329e-20)
(1.09562 0.19871 0)
(1.0506 0.190566 6.59348e-20)
(1.01082 0.175717 6.45194e-20)
(0.981091 0.158355 1.90098e-20)
(0.959167 0.141031 6.83814e-20)
(0.942016 0.12466 9.5128e-20)
(0.921979 0.109523 0)
(0.866547 0.0935822 1.33679e-19)
(0.708343 0.0698978 1.91938e-19)
(0.446458 0.0409914 2.12985e-19)
(0.182833 0.0158422 -2.43906e-19)
(0.0183022 0.00159348 -4.58491e-21)
(0.272503 0.0399184 0)
(1.11169 0.165301 1.25463e-20)
(1.27193 0.20202 0)
(1.29708 0.219776 -4.14224e-20)
(1.2705 0.231902 0)
(1.22988 0.240075 -6.33332e-20)
(1.18584 0.245183 2.84564e-20)
(1.13889 0.246145 -9.67488e-20)
(1.08954 0.241487 -1.5738e-21)
(1.03851 0.229444 3.45116e-20)
(0.993087 0.211031 1.4152e-19)
(0.958552 0.191 -3.10436e-22)
(0.932547 0.171974 -4.96405e-20)
(0.911787 0.154596 -8.96736e-20)
(0.888399 0.13863 1.06024e-19)
(0.831484 0.120872 -1.87926e-19)
(0.678486 0.0924246 -2.4817e-20)
(0.431339 0.0572451 0)
(0.185235 0.0243405 3.50458e-23)
(0.0205576 0.00288874 0)
(0.265368 0.0534696 2.06329e-19)
(1.13433 0.22457 -9.44925e-20)
(1.29339 0.266535 -6.45011e-20)
(1.31347 0.283627 2.07216e-20)
(1.28145 0.292118 -3.41992e-20)
(1.23629 0.296501 1.33932e-19)
(1.18746 0.297783 6.00086e-20)
(1.13551 0.294876 0)
(1.08097 0.286279 -1.77292e-19)
(1.0245 0.270269 0)
(0.974032 0.248425 -7.47943e-20)
(0.935424 0.226006 -9.07016e-20)
(0.906169 0.205497 -5.40366e-20)
(0.882836 0.187227 -6.50675e-20)
(0.857699 0.170358 0)
(0.802569 0.151159 0)
(0.662173 0.119535 -1.6266e-19)
(0.434572 0.078497 3.20466e-20)
(0.198976 0.0361664 -1.88747e-20)
(0.0258937 0.00502083 -2.20626e-20)
(0.257725 0.065592 -1.1368e-19)
(1.14343 0.28358 0)
(1.30545 0.331975 1.48192e-19)
(1.32233 0.34868 6.21351e-20)
(1.28644 0.35366 7.6399e-20)
(1.23784 0.354209 0)
(1.1852 0.351591 6.05571e-20)
(1.1291 0.344741 1.08493e-19)
(1.07011 0.332155 9.19935e-20)
(1.00895 0.312146 1.62066e-19)
(0.954165 0.286933 0)
(0.912165 0.262213 -1.95581e-19)
(0.880379 0.240261 -1.16682e-19)
(0.855094 0.221189 -6.86531e-20)
(0.829059 0.203792 4.18139e-19)
(0.7771 0.183521 4.99106e-20)
(0.650466 0.149141 2.352e-19)
(0.441814 0.101837 -1.11471e-18)
(0.21342 0.0498948 6.61721e-19)
(0.0312169 0.00766773 -7.97553e-19)
(0.25079 0.0765885 -9.33868e-20)
(1.14404 0.340464 2.19056e-20)
(1.31051 0.396754 -1.99631e-20)
(1.32518 0.413151 -7.56959e-20)
(1.28645 0.414852 -7.19736e-20)
(1.23517 0.411741 1.71149e-21)
(1.17946 0.405386 -6.5364e-20)
(1.11994 0.39471 1.13452e-19)
(1.05718 0.378231 -1.97789e-19)
(0.992017 0.354294 0)
(0.93363 0.325708 -8.93222e-20)
(0.888906 0.298656 -1.57148e-21)
(0.855136 0.275223 -1.27043e-19)
(0.828486 0.25531 0)
(0.802128 0.237421 -9.03072e-20)
(0.753414 0.216131 -2.14958e-19)
(0.638865 0.179734 5.76819e-19)
(0.445635 0.126085 -5.68544e-19)
(0.223421 0.0640427 8.07887e-19)
(0.0352861 0.0104454 -8.39499e-19)
(0.245179 0.0868335 -4.10856e-22)
(1.13946 0.394627 -1.9205e-20)
(1.3105 0.459848 -7.52228e-20)
(1.32338 0.47597 3.61615e-20)
(1.2825 0.47471 -3.72744e-20)
(1.2291 0.468203 0)
(1.17089 0.458347 -6.38857e-20)
(1.10849 0.444053 -1.19547e-19)
(1.04252 0.423845 -1.03601e-19)
(0.973887 0.396079 0)
(0.912435 0.364093 -9.31931e-20)
(0.865553 0.334602 -1.13318e-19)
(0.830339 0.30958 1.37239e-19)
(0.802843 0.288641 -8.26278e-20)
(0.776588 0.270077 -3.91806e-19)
(0.730891 0.247883 2.34077e-19)
(0.625626 0.209403 7.05066e-20)
(0.443742 0.149126 0)
(0.226531 0.0768616 -7.75004e-19)
(0.0372246 0.0128299 -2.84271e-20)
(0.240878 0.0966342 -1.02496e-20)
(1.13183 0.445924 1.78464e-20)
(1.30658 0.520366 3.89493e-20)
(1.31805 0.536443 1.20443e-19)
(1.2755 0.532591 -1.48247e-19)
(1.22039 0.523039 1.44724e-19)
(1.16013 0.509959 1.371e-19)
(1.09527 0.492293 -1.91136e-19)
(1.0265 0.468564 6.15485e-20)
(0.9548 0.437075 -3.97679e-19)
(0.890632 0.401671 -1.04062e-19)
(0.84197 0.369535 0)
(0.805737 0.342668 1.4816e-19)
(0.777809 0.320491 1.76171e-19)
(0.75195 0.300948 2.10064e-19)
(0.708794 0.277623 -2.52715e-19)
(0.610197 0.236503 -7.4909e-20)
(0.436429 0.169141 8.82862e-20)
(0.224277 0.0871863 0)
(0.0373162 0.0145758 -6.13371e-20)
(0.237722 0.10613 8.72709e-20)
(1.12263 0.494467 -6.49381e-20)
(1.29992 0.578054 -3.9898e-20)
(1.31012 0.59427 8.05628e-20)
(1.26619 0.588143 -7.32817e-20)
(1.20971 0.575862 -3.97466e-21)
(1.14772 0.559872 -1.48453e-19)
(1.08075 0.539123 -6.87859e-20)
(1.00947 0.512099 -1.7916e-19)
(0.934982 0.477042 2.15086e-22)
(0.868367 0.438177 -3.26883e-19)
(0.818092 0.403244 2.69533e-19)
(0.781087 0.374191 -1.61451e-19)
(0.752961 0.350404 1.92543e-19)
(0.727566 0.329562 0)
(0.686407 0.304575 -1.36113e-19)
(0.592632 0.260286 -9.78847e-22)
(0.42449 0.185845 -3.817e-19)
(0.217691 0.0948794 -5.62515e-20)
(0.036073 0.0156626 0)
(0.235541 0.115432 0)
(1.11271 0.540458 -6.61088e-20)
(1.29134 0.632806 -7.40481e-20)
(1.3003 0.649303 -8.13919e-20)
(1.25522 0.641177 -8.44449e-20)
(1.1976 0.626475 0)
(1.13415 0.607875 -7.16157e-20)
(1.06533 0.584336 -1.18429e-21)
(0.99179 0.554287 3.83139e-19)
(0.914691 0.515838 -5.50103e-20)
(0.845724 0.473531 -2.35176e-19)
(0.793977 0.435598 1.40915e-19)
(0.756238 0.404132 -2.00134e-21)
(0.727996 0.378429 2.04704e-19)
(0.703038 0.35595 1.25168e-19)
(0.663365 0.328888 -2.93379e-19)
(0.572762 0.280611 3.48596e-19)
(0.408616 0.199114 1.03065e-19)
(0.207387 0.0999785 4.24931e-19)
(0.0336548 0.0160286 -1.13846e-18)
(0.234258 0.124652 1.21521e-20)
(1.10264 0.584088 -2.73301e-20)
(1.28156 0.684655 2.74672e-20)
(1.28915 0.701516 7.88198e-20)
(1.24309 0.691592 0)
(1.18452 0.67475 -7.55175e-20)
(1.11982 0.653843 2.35735e-19)
(1.04936 0.62781 1.52176e-19)
(0.973738 0.59502 0)
(0.894134 0.553407 -7.84065e-19)
(0.822836 0.507701 6.32982e-19)
(0.769547 0.466643 0)
(0.731052 0.432488 1.87223e-19)
(0.702685 0.40455 -1.99392e-21)
(0.678101 0.380106 -3.99257e-19)
(0.639403 0.350537 1.5644e-19)
(0.550732 0.297592 0)
(0.389603 0.208759 5.54897e-19)
(0.194306 0.102586 0)
(0.0304935 0.0158293 -5.36927e-19)
(0.233657 0.133852 -9.63668e-21)
(1.0928 0.625521 -2.12842e-20)
(1.27088 0.733654 3.10601e-20)
(1.27711 0.750897 0)
(1.23022 0.739381 -8.39492e-20)
(1.17085 0.720653 0)
(1.10507 0.697707 -2.39694e-19)
(1.03314 0.669475 -7.38786e-20)
(0.955574 0.634247 6.8795e-20)
(0.873519 0.589734 -3.87241e-19)
(0.79977 0.540736 6.57848e-20)
(0.744761 0.496449 0)
(0.705429 0.459373 -3.99617e-19)
(0.676881 0.428918 2.04844e-21)
(0.652542 0.402184 0)
(0.614299 0.369616 2.33885e-21)
(0.526461 0.311277 5.04855e-19)
(0.367676 0.214813 -4.7895e-19)
(0.179082 0.102746 1.41241e-19)
(0.0268287 0.0150495 0)
(0.233425 0.142871 0)
(1.08344 0.664816 -1.65748e-20)
(1.25967 0.779954 -2.38939e-20)
(1.26455 0.797496 -2.26327e-21)
(1.21693 0.784566 -3.79768e-20)
(1.15689 0.764184 -1.69858e-19)
(1.09017 0.739453 8.78283e-20)
(1.01691 0.709303 -8.4217e-20)
(0.937521 0.671938 3.02901e-19)
(0.853007 0.624833 -6.17641e-19)
(0.776657 0.572723 -3.30233e-21)
(0.719758 0.525162 -1.77135e-19)
(0.679344 0.484945 6.46343e-19)
(0.650485 0.45168 -2.42019e-21)
(0.626258 0.422338 -3.08479e-19)
(0.587975 0.38624 -5.51318e-19)
(0.499924 0.321773 0)
(0.343242 0.217492 0)
(0.162107 0.100477 1.52551e-19)
(0.0228724 0.0137366 -8.92709e-20)
(0.233739 0.151857 -2.89593e-21)
(1.07448 0.701857 2.80188e-20)
(1.24822 0.823632 2.51411e-20)
(1.25174 0.841396 0)
(1.20349 0.827201 -1.55123e-21)
(1.14289 0.805367 -1.67936e-19)
(1.07536 0.779087 2.20327e-19)
(1.0009 0.747287 3.40043e-19)
(0.919769 0.708097 3.95881e-19)
(0.832807 0.658743 -5.05635e-19)
(0.753711 0.603772 -5.40646e-19)
(0.694571 0.55296 4.73251e-19)
(0.652789 0.509395 0)
(0.623426 0.473029 -1.40188e-19)
(0.599163 0.440707 -3.33407e-19)
(0.560367 0.400441 -3.95556e-19)
(0.471254 0.328931 -4.7072e-19)
(0.316551 0.216695 1.39363e-19)
(0.143599 0.0957355 -8.20142e-20)
(0.0186053 0.0119068 3.45451e-22)
(0.234078 0.160703 0)
(1.06614 0.7371 0)
(1.23671 0.864763 2.58093e-21)
(1.23888 0.882691 0)
(1.19008 0.867371 1.1478e-19)
(1.12901 0.844262 1.2451e-19)
(1.0608 0.816638 0)
(0.985264 0.783443 4.19314e-20)
(0.902507 0.742733 6.63469e-19)
(0.813118 0.691499 -1.15979e-18)
(0.731065 0.633989 0)
(0.669309 0.58003 -3.0366e-19)
(0.625758 0.532958 -2.9581e-21)
(0.595627 0.493138 -2.42566e-21)
(0.571153 0.457353 3.56115e-19)
(0.531423 0.41215 -4.19001e-22)
(0.440543 0.332691 -1.01293e-18)
(0.287646 0.212249 3.00011e-19)
(0.124068 0.0887212 8.8688e-20)
(0.014287 0.00971739 0)
(0.234425 0.169342 -1.54565e-20)
(1.05814 0.770626 3.05193e-21)
(1.22523 0.90344 3.21525e-20)
(1.22613 0.921479 -1.18746e-19)
(1.17687 0.905141 1.88114e-19)
(1.11543 0.880925 0)
(1.04664 0.852152 1.39422e-19)
(0.970151 0.817795 -9.18323e-20)
(0.885874 0.775864 3.81195e-21)
(0.794083 0.723127 8.45885e-20)
(0.708878 0.663462 6.98542e-19)
(0.64412 0.606568 -1.06718e-19)
(0.598307 0.555899 -3.96795e-19)
(0.566979 0.512216 -1.6281e-19)
(0.542067 0.472274 1.93561e-19)
(0.501088 0.421133 -2.86126e-22)
(0.408127 0.33276 2.73317e-19)
(0.257195 0.204184 -6.45321e-19)
(0.104211 0.0797923 7.63516e-19)
(0.0100917 0.00729103 1.11243e-19)
(0.234609 0.177659 9.70896e-21)
(1.05051 0.802504 -9.55028e-22)
(1.21392 0.939787 6.07642e-21)
(1.21359 0.957881 -5.12911e-20)
(1.16396 0.940616 -3.35127e-20)
(1.10223 0.915425 -2.27091e-19)
(1.03298 0.885674 4.43429e-20)
(0.955661 0.850364 -3.85426e-19)
(0.869981 0.807487 -7.35403e-19)
(0.775832 0.75363 -6.92177e-19)
(0.687345 0.692264 0)
(0.619169 0.632749 -4.64849e-19)
(0.5705 0.578523 5.69766e-19)
(0.537342 0.53054 0)
(0.511596 0.48543 -4.1405e-19)
(0.469194 0.42694 2.481e-19)
(0.374253 0.328632 -2.93524e-19)
(0.226295 0.192566 -3.47782e-19)
(0.0849814 0.0694659 -6.15354e-19)
(0.00626661 0.00482042 -4.79755e-19)
(0.235083 0.185776 -1.4795e-20)
(1.04307 0.832708 1.11131e-21)
(1.20284 0.97388 -5.35936e-21)
(1.20135 0.991982 -5.95208e-20)
(1.15144 0.973882 7.48623e-20)
(1.08951 0.947845 -1.34949e-19)
(1.0199 0.917257 1.4482e-19)
(0.941865 0.881192 -4.00513e-19)
(0.8549 0.837627 -4.36166e-19)
(0.758493 0.783022 7.25477e-19)
(0.666623 0.720439 1.53023e-18)
(0.594655 0.658728 0)
(0.542466 0.601133 0)
(0.50656 0.548503 -1.87109e-19)
(0.479205 0.49687 0)
(0.435246 0.428827 5.34293e-19)
(0.339272 0.319215 6.32512e-19)
(0.196454 0.177086 0)
(0.0677699 0.0582856 0)
(0.00305414 0.00255169 5.16057e-19)
(0.235171 0.193407 2.10348e-20)
(1.03588 0.861241 1.56497e-20)
(1.19203 1.00584 -1.86667e-21)
(1.18946 1.02391 3.89748e-20)
(1.13936 1.00504 7.24895e-20)
(1.0773 0.978258 1.55976e-19)
(1.00744 0.94696 -2.01552e-19)
(0.928813 0.910309 2.41931e-22)
(0.840703 0.866291 -4.91843e-21)
(0.742154 0.811294 -5.75145e-21)
(0.646881 0.748003 7.87222e-19)
(0.570798 0.684605 0)
(0.514432 0.624019 5.72836e-19)
(0.47456 0.566646 3.98187e-19)
(0.444109 0.506971 9.63836e-19)
(0.398035 0.425988 2.87022e-19)
(0.303171 0.302282 -3.41791e-19)
(0.170515 0.155797 -2.00817e-19)
(0.0569044 0.0461829 0)
(0.00182807 0.00111115 5.54881e-19)
(0.235537 0.200999 -5.60185e-20)
(1.02891 0.888204 0)
(1.18151 1.03572 7.56462e-21)
(1.17797 1.05374 2.59895e-20)
(1.12777 1.03418 -6.58432e-20)
(1.06565 1.00675 -1.9659e-19)
(0.995635 0.974841 4.0805e-19)
(0.916535 0.937752 -3.16367e-20)
(0.82742 0.893487 0)
(0.72688 0.838412 -8.0324e-19)
(0.628266 0.774936 -1.71105e-18)
(0.547832 0.710437 6.84717e-20)
(0.48673 0.647404 7.85345e-19)
(0.441463 0.585626 0)
(0.405451 0.516646 6.47933e-19)
(0.355231 0.418475 0)
(0.263131 0.274529 0)
(0.150482 0.119291 -2.17956e-19)
(0.0699978 0.0218581 0)
(0.0257511 0.0104293 1.48814e-19)
(0.235509 0.207954 -6.97729e-20)
(1.02211 0.913924 0)
(1.17127 1.06374 2.06944e-20)
(1.16684 1.0817 0)
(1.11663 1.06156 2.94262e-20)
(1.05449 1.03359 0)
(0.984425 1.00121 2.29623e-20)
(0.904933 0.963858 5.561e-20)
(0.814936 0.919577 5.45427e-20)
(0.712526 0.864765 -8.83186e-19)
(0.610646 0.801664 5.18658e-20)
(0.525624 0.736782 5.46713e-19)
(0.459178 0.671881 7.64148e-19)
(0.406848 0.606484 1.02396e-19)
(0.361709 0.527757 5.05406e-19)
(0.302813 0.40862 0)
(0.207416 0.236458 7.22008e-19)
(0.107103 0.0568393 -4.23373e-19)
(0.0468037 0.04665 4.91703e-19)
(-0.0678858 0.416484 -5.80533e-19)
(0.23546 0.214668 6.18738e-20)
(1.01527 0.938235 8.36049e-20)
(1.16124 1.0902 0)
(1.15594 1.10822 5.09909e-21)
(1.10577 1.08773 -6.69082e-20)
(1.04358 1.05946 3.12736e-19)
(0.973517 1.02684 1.50998e-19)
(0.893628 0.989552 0)
(0.802754 0.945637 3.7006e-19)
(0.698471 0.891642 -4.70404e-20)
(0.593172 0.829645 0)
(0.503109 0.765407 0)
(0.430493 0.699243 6.81085e-19)
(0.369472 0.63112 -3.14426e-19)
(0.310381 0.543731 -5.08352e-19)
(0.236184 0.402628 0)
(0.1189 0.217543 3.63642e-19)
(0.0119673 0.428201 -4.21772e-19)
(0.0406104 1.8432 -2.34213e-19)
(0.0714722 2.7865 -2.97186e-19)
(0.235261 0.220522 -5.13979e-20)
(1.00859 0.961284 -1.16642e-19)
(1.15141 1.11511 1.78135e-20)
(1.14526 1.13315 -3.13071e-21)
(1.09523 1.11248 0)
(1.03296 1.08406 2.05894e-19)
(0.963088 1.05144 2.20052e-19)
(0.88279 1.01441 -2.77764e-20)
(0.791121 0.971155 5.47386e-20)
(0.685068 0.918423 8.45325e-19)
(0.576424 0.858179 8.64595e-19)
(0.481257 0.795813 6.09084e-19)
(0.401809 0.72911 6.81254e-19)
(0.331592 0.657925 -7.31389e-19)
(0.257625 0.567487 -7.62047e-19)
(0.15857 0.428572 0)
(0.0598515 0.814169 0)
(0.116469 2.51689 2.01813e-19)
(0.118373 3.18128 0)
(0.121179 3.38048 4.92175e-19)
(0.237544 0.22592 0)
(1.00266 0.983219 0)
(1.14157 1.13831 0)
(1.13458 1.15626 2.25075e-21)
(1.0847 1.13557 -5.40742e-20)
(1.02242 1.10726 1.36282e-19)
(0.953033 1.07488 1.46677e-19)
(0.872372 1.03832 -2.76204e-20)
(0.780004 0.995998 4.71406e-19)
(0.672345 0.94497 -1.00691e-20)
(0.560548 0.887148 1.71014e-18)
(0.460439 0.827785 -6.9505e-20)
(0.373636 0.762264 8.25273e-20)
(0.295359 0.683777 1.04725e-19)
(0.200242 0.599004 1.15774e-22)
(0.122052 0.939692 1.80372e-21)
(0.160282 2.66105 -1.03507e-18)
(0.174413 3.27961 -3.9564e-19)
(0.159896 3.42486 2.08627e-19)
(0.143712 3.44926 -2.33814e-19)
(0.155104 0.18252 3.43812e-20)
(0.991015 1.00692 0)
(1.13148 1.16001 -5.2374e-20)
(1.12457 1.1781 -1.17416e-20)
(1.07495 1.15778 -7.50739e-20)
(1.01286 1.12971 -1.36919e-19)
(0.94325 1.09729 -1.57934e-19)
(0.862471 1.06142 3.31947e-19)
(0.769584 1.02029 -3.91105e-19)
(0.660635 0.971352 0)
(0.546024 0.916594 8.43447e-19)
(0.441312 0.861025 -4.96179e-19)
(0.346832 0.801096 0)
(0.261941 0.712327 9.77414e-20)
(0.176007 0.822683 2.30746e-19)
(0.175534 2.39448 -2.78497e-19)
(0.244366 3.31562 3.15348e-19)
(0.220612 3.44268 1.72642e-19)
(0.183375 3.46609 1.97782e-19)
(0.158605 3.47719 3.1935e-19)
(0.279979 0.263435 -5.90722e-20)
(0.975266 1.01569 0)
(1.11307 1.18424 6.72892e-20)
(1.11038 1.21015 3.47504e-20)
(1.05917 1.19036 5.0722e-20)
(0.996667 1.16279 1.11255e-19)
(0.926323 1.13178 1.8717e-19)
(0.845054 1.09706 2.55747e-20)
(0.751065 1.05804 3.84771e-19)
(0.639783 1.01288 7.47308e-19)
(0.520801 0.964359 4.85546e-20)
(0.408949 0.916582 4.42975e-19)
(0.29967 0.868477 7.76889e-20)
(0.230432 0.976697 -9.61262e-20)
(0.250624 2.24382 -2.21851e-19)
(0.31943 3.31893 2.18574e-19)
(0.304979 3.47806 -2.44858e-19)
(0.266132 3.50154 -1.42783e-19)
(0.226229 3.53007 -1.26001e-19)
(0.170341 3.52268 -1.47801e-20)
(0.267422 0.259861 0)
(0.972488 1.0375 2.69946e-20)
(1.10514 1.207 -1.6252e-20)
(1.10064 1.23289 -6.76452e-21)
(1.04935 1.21304 2.05747e-20)
(0.986949 1.1857 -1.01013e-19)
(0.91633 1.15484 -1.12074e-19)
(0.835037 1.1209 2.36804e-20)
(0.740828 1.08332 -4.07343e-19)
(0.62879 1.04092 -1.43404e-20)
(0.508007 0.997108 -1.54347e-18)
(0.393291 0.955595 6.27653e-20)
(0.287106 0.932982 -7.39066e-20)
(0.27145 1.42857 -8.99165e-20)
(0.355875 3.04888 1.80482e-20)
(0.385686 3.47272 9.08232e-22)
(0.341226 3.53949 3.70546e-19)
(0.301686 3.5642 1.8713e-19)
(0.249641 3.58869 -5.75172e-20)
(0.185399 3.58406 -7.42514e-20)
(0.250648 0.257791 7.51394e-20)
(0.967996 1.06183 1.91463e-19)
(1.09666 1.23175 -4.75811e-20)
(1.09039 1.25704 -2.53943e-20)
(1.03904 1.237 0)
(0.976813 1.20968 -1.05663e-19)
(0.906221 1.17904 -1.47189e-19)
(0.825189 1.14585 2.16824e-20)
(0.731091 1.10977 -4.47809e-20)
(0.618813 1.07031 -6.95499e-19)
(0.496971 1.03144 -7.20894e-19)
(0.381231 0.99709 -5.24629e-19)
(0.291123 1.05151 -5.57315e-19)
(0.343203 2.0728 5.75134e-19)
(0.447623 3.36597 4.90417e-19)
(0.434566 3.53881 0)
(0.383309 3.58663 0)
(0.344582 3.63065 -4.58658e-20)
(0.28412 3.69661 0)
(0.197885 3.66733 -6.24441e-20)
(0.239311 0.258974 -1.19885e-19)
(0.961524 1.08712 -1.71785e-19)
(1.08675 1.2576 0)
(1.07886 1.28199 6.00265e-21)
(1.02755 1.26154 -5.65908e-21)
(0.965605 1.23408 -1.26831e-19)
(0.895376 1.20368 -8.55836e-20)
(0.814814 1.17112 1.64793e-20)
(0.721077 1.13646 -3.06748e-19)
(0.608964 1.09985 3.63578e-20)
(0.486846 1.06603 0)
(0.372379 1.04114 0)
(0.318237 1.26386 -5.17409e-19)
(0.432592 2.75105 2.11926e-19)
(0.526901 3.48834 2.78691e-19)
(0.482498 3.57684 0)
(0.44222 3.63659 -3.6108e-20)
(0.399224 3.71019 -2.47168e-20)
(0.351667 3.70357 -1.0906e-19)