/*--------------------------------*- C++ -*----------------------------------*\
  =========                 |
  \\      /  F ield         | OpenFOAM: The Open Source CFD Toolbox
   \\    /   O peration     | Website:  https://openfoam.org
    \\  /    A nd           | Version:  10
     \\/     M anipulation  |
\*---------------------------------------------------------------------------*/
FoamFile
{
    format      ascii;
    class       volScalarField;
    location    "27";
    object      p;
}
// * * * * * * * * * * * * * * * * * * * * * * * * * * * * * * * * * * * * * //

dimensions      [0 2 -2 0 0 0 0];

internalField   nonuniform List<scalar> 
8800
(
0.620361
0.572573
0.533879
0.504878
0.484004
0.469154
0.45853
0.451011
0.446134
0.443988
0.445139
0.449219
0.45577
0.465013
0.47774
0.495438
0.52019
0.554112
0.596646
0.655345
0.451622
0.459299
0.466765
0.47007
0.46856
0.46347
0.456966
0.450861
0.446088
0.443164
0.442773
0.445154
0.449535
0.455394
0.462096
0.468327
0.471934
0.471178
0.465732
0.457029
0.430043
0.436204
0.440329
0.443269
0.445309
0.445898
0.444766
0.44262
0.440538
0.439527
0.440358
0.442612
0.445304
0.447398
0.447937
0.446685
0.444301
0.440877
0.436304
0.432538
0.424271
0.426921
0.429674
0.432075
0.433704
0.434852
0.435566
0.43564
0.435271
0.435103
0.435709
0.436738
0.437451
0.43741
0.436714
0.435554
0.433684
0.43107
0.428642
0.427137
0.418944
0.420369
0.422155
0.424194
0.425978
0.427309
0.428271
0.429017
0.429549
0.429985
0.430462
0.430785
0.430735
0.430319
0.429512
0.428171
0.426397
0.424486
0.423146
0.422316
0.413939
0.41486
0.416116
0.4177
0.419346
0.420874
0.422144
0.423162
0.424033
0.424774
0.425258
0.425377
0.425146
0.424535
0.423503
0.422172
0.420736
0.41939
0.418528
0.417982
0.409138
0.409806
0.410792
0.412128
0.413565
0.415041
0.41648
0.417767
0.418869
0.419799
0.420373
0.420478
0.420142
0.419402
0.418393
0.41727
0.416107
0.41507
0.414439
0.414043
0.404504
0.405016
0.405835
0.407023
0.408352
0.40976
0.411219
0.412668
0.414001
0.415128
0.415838
0.415977
0.415621
0.414933
0.414066
0.413105
0.412125
0.41129
0.410803
0.410501
0.399994
0.400393
0.401091
0.402173
0.403444
0.404811
0.406261
0.40777
0.409268
0.410624
0.411505
0.411756
0.411533
0.411009
0.410301
0.409487
0.408656
0.407979
0.4076
0.407364
0.395554
0.395868
0.396484
0.397515
0.398765
0.400128
0.401602
0.403177
0.404817
0.406403
0.407522
0.407988
0.407971
0.40763
0.40708
0.406405
0.405687
0.405122
0.404825
0.40464
0.391163
0.391409
0.391964
0.392963
0.394209
0.395607
0.397167
0.39886
0.400652
0.40247
0.403916
0.404706
0.404939
0.404775
0.404369
0.403829
0.403227
0.402765
0.402536
0.402392
0.386777
0.386964
0.387478
0.388476
0.389751
0.391204
0.392848
0.39472
0.396805
0.398986
0.400806
0.401893
0.402373
0.40244
0.402228
0.40182
0.401326
0.400948
0.40078
0.40067
0.382376
0.382503
0.382974
0.38396
0.385257
0.386756
0.38848
0.390473
0.392775
0.395351
0.397663
0.399244
0.400155
0.40057
0.400605
0.400407
0.400054
0.399782
0.399677
0.399601
0.378012
0.378088
0.37852
0.379488
0.380822
0.382414
0.384309
0.386596
0.389307
0.392415
0.395322
0.397418
0.398719
0.399445
0.399785
0.399791
0.399627
0.399485
0.399441
0.39939
0.373532
0.373585
0.373958
0.374849
0.376143
0.377772
0.379806
0.382351
0.385505
0.389266
0.392923
0.395687
0.397596
0.398818
0.399526
0.399912
0.400058
0.400105
0.400121
0.400076
0.368493
0.36854
0.368893
0.369746
0.371074
0.372833
0.375128
0.378097
0.381852
0.386438
0.391014
0.394592
0.397114
0.39886
0.400073
0.400832
0.401265
0.401488
0.401551
0.401504
0.362599
0.36264
0.363002
0.363892
0.365346
0.367341
0.370003
0.373522
0.378076
0.383715
0.389414
0.393957
0.39727
0.399635
0.401301
0.402437
0.403172
0.403553
0.403653
0.403598
0.355527
0.355569
0.356001
0.356995
0.358666
0.36101
0.364188
0.368447
0.374006
0.380959
0.38806
0.393772
0.397987
0.401045
0.40325
0.404803
0.405832
0.406355
0.406482
0.406416
0.346932
0.34698
0.347504
0.348724
0.350748
0.353612
0.35753
0.362815
0.36972
0.378341
0.387136
0.394228
0.399474
0.403304
0.406091
0.408079
0.409385
0.410017
0.410176
0.410102
0.336445
0.336497
0.337161
0.338695
0.341229
0.344817
0.349745
0.356371
0.364995
0.375704
0.386568
0.395277
0.401747
0.406504
0.40996
0.412442
0.41404
0.414798
0.414994
0.414909
0.323577
0.32363
0.324466
0.326448
0.329722
0.334337
0.340637
0.349047
0.359877
0.373167
0.386518
0.397189
0.405095
0.41086
0.415163
0.418162
0.420077
0.420977
0.421216
0.421117
0.307703
0.307754
0.308827
0.311424
0.315733
0.321764
0.329929
0.34068
0.354302
0.370757
0.387076
0.400032
0.409619
0.416659
0.421826
0.42545
0.427731
0.428824
0.429114
0.428997
0.287845
0.287916
0.289354
0.292814
0.298564
0.306587
0.317286
0.331127
0.348294
0.368591
0.388393
0.403992
0.415528
0.424012
0.430205
0.434555
0.437278
0.438593
0.43893
0.438785
0.262287
0.262409
0.264468
0.269338
0.277251
0.288141
0.302405
0.320346
0.34196
0.366844
0.390653
0.409227
0.422943
0.433054
0.440444
0.445645
0.448923
0.450486
0.450861
0.45068
0.228048
0.228322
0.231667
0.239132
0.250649
0.265903
0.28517
0.308475
0.33555
0.365779
0.39407
0.415901
0.431991
0.443887
0.452636
0.458849
0.462778
0.464607
0.465002
0.464774
0.179346
0.180547
0.187304
0.200119
0.217877
0.239788
0.265908
0.295975
0.329504
0.365723
0.398842
0.424101
0.442677
0.456473
0.466729
0.474129
0.478819
0.480934
0.481325
0.481034
0.106989
0.114822
0.130434
0.153131
0.180292
0.211112
0.245615
0.283484
0.324212
0.36703
0.405464
0.434564
0.456007
0.472084
0.484265
0.493273
0.499123
0.501852
0.502419
0.502218
0.0293354
0.0473013
0.0725329
0.105548
0.142377
0.182295
0.225305
0.271218
0.319619
0.369868
0.414749
0.448826
0.474138
0.493356
0.508223
0.519621
0.527051
0.530626
0.53169
0.531682
-0.0343471
-0.0134852
0.019575
0.061083
0.10648
0.154878
0.206059
0.259793
0.315654
0.373001
0.4239
0.462477
0.4912
0.513129
0.530114
0.543004
0.551907
0.556358
0.557154
0.557253
-0.0862606
-0.0635559
-0.0253558
0.0221837
0.0743014
0.129765
0.188107
0.248932
0.311699
0.37567
0.432057
0.474569
0.506106
0.530083
0.548645
0.562756
0.572734
0.57742
0.578376
0.578575
-0.129303
-0.105572
-0.0638151
-0.0115099
0.0459647
0.107212
0.17164
0.238702
0.307674
0.37765
0.438963
0.484862
0.51868
0.544272
0.56399
0.578976
0.589432
0.594593
0.5959
0.596128
-0.166104
-0.141764
-0.0973195
-0.0412868
0.0206614
0.0868102
0.156488
0.229029
0.303565
0.378965
0.444692
0.49354
0.52924
0.556044
0.576543
0.592083
0.602703
0.608227
0.609755
0.60999
-0.198584
-0.173852
-0.127323
-0.0681759
-0.00247778
0.067913
0.142223
0.219669
0.299251
0.379641
0.449424
0.500921
0.538225
0.565948
0.586924
0.602691
0.613434
0.619082
0.620708
0.62089
-0.228168
-0.203084
-0.154849
-0.093028
-0.0240989
0.0500018
0.128432
0.210326
0.294568
0.379645
0.45329
0.507291
0.546073
0.574584
0.595922
0.611787
0.622564
0.628254
0.629988
0.630148
-0.255724
-0.230319
-0.180581
-0.116498
-0.0447173
0.0326712
0.1148
0.200758
0.289351
0.378905
0.456336
0.512848
0.553098
0.582418
0.604147
0.620156
0.630945
0.636596
0.638412
0.638582
-0.281966
-0.256183
-0.20507
-0.138999
-0.0646849
0.0156336
0.101101
0.190789
0.283461
0.377341
0.458559
0.517672
0.559531
0.58978
0.611982
0.628178
0.639006
0.644557
0.646352
0.646547
-0.307179
-0.280988
-0.228777
-0.16082
-0.0842346
-0.00129269
0.0871907
0.180302
0.276804
0.374887
0.459964
0.52188
0.565558
0.596891
0.619697
0.63618
0.647086
0.652578
0.654248
0.65438
-0.331712
-0.304983
-0.251787
-0.182135
-0.103537
-0.0182386
0.0729798
0.16923
0.269321
0.371499
0.460554
0.525504
0.571221
0.603852
0.627424
0.644306
0.655328
0.660761
0.662271
0.662318
-0.355628
-0.328502
-0.274229
-0.203067
-0.122664
-0.0352513
0.0584303
0.157547
0.26099
0.36714
0.46024
0.52846
0.576528
0.610695
0.6352
0.652575
0.663721
0.669057
0.670433
0.670364
-0.379014
-0.35137
-0.296205
-0.223661
-0.141635
-0.0523358
0.0435463
0.145256
0.251796
0.36173
0.458901
0.530671
0.581426
0.617416
0.64303
0.660971
0.67222
0.677391
0.67859
0.678424
-0.401958
-0.373752
-0.317696
-0.243913
-0.160448
-0.0694712
0.0283668
0.132391
0.241738
0.355227
0.456464
0.532014
0.585822
0.623982
0.650916
0.669473
0.680772
0.68567
0.686652
0.686411
-0.424457
-0.395634
-0.338707
-0.263799
-0.179051
-0.0866055
0.012951
0.119007
0.230862
0.347634
0.452837
0.532325
0.589565
0.630341
0.658892
0.678091
0.689276
0.693774
0.694502
0.694195
-0.446337
-0.416942
-0.359194
-0.283276
-0.197392
-0.103662
-0.0026293
0.105194
0.219248
0.338981
0.447934
0.53144
0.592447
0.636384
0.667035
0.686964
0.697738
0.701554
0.701961
0.701605
-0.467564
-0.437625
-0.379119
-0.302286
-0.215408
-0.120574
-0.0182714
0.0910465
0.206987
0.329304
0.441717
0.529188
0.594216
0.641902
0.675419
0.696462
0.706432
0.708951
0.708849
0.708487
-0.488198
-0.457644
-0.398441
-0.320786
-0.23303
-0.137252
-0.0338819
0.0766735
0.19418
0.318689
0.434163
0.52543
0.594564
0.646503
0.683939
0.707179
0.716337
0.71647
0.715094
0.714862
-0.508069
-0.476977
-0.417104
-0.338707
-0.250196
-0.153612
-0.0493646
0.0621895
0.180955
0.307256
0.425304
0.520052
0.593182
0.649573
0.692011
0.719423
0.729418
0.726761
0.72219
0.720979
-0.527259
-0.495614
-0.435126
-0.356074
-0.266939
-0.169703
-0.0647782
0.0475337
0.167243
0.294932
0.415017
0.512801
0.589754
0.650307
0.698353
0.732308
0.747051
0.745847
0.735315
0.717223
-0.545701
-0.513552
-0.452631
-0.373079
-0.283548
-0.185856
-0.0805398
0.0322168
0.152492
0.281052
0.402609
0.502805
0.583569
0.647479
0.700146
0.741463
0.761781
0.754254
0.739927
0.719829
-0.563229
-0.530936
-0.469437
-0.389475
-0.299731
-0.201726
-0.0964208
0.0165727
0.137028
0.265922
0.388261
0.489787
0.574153
0.640294
0.692191
0.734342
0.756354
0.740756
0.669178
0.634388
-0.579206
-0.548895
-0.485205
-0.404677
-0.314778
-0.216833
-0.11213
0.000824196
0.121073
0.249689
0.371985
0.473619
0.560538
0.62909
0.671017
0.703201
0.709245
0.660488
0.587316
0.541379
-0.634692
-0.564506
-0.499634
-0.419929
-0.330113
-0.232557
-0.127729
-0.0152923
0.104289
0.231955
0.353286
0.453964
0.53972
0.615383
0.618337
0.634598
0.602238
0.537774
0.459107
0.414651
-0.595887
-0.580106
-0.520567
-0.441598
-0.352336
-0.255134
-0.151369
-0.0398797
0.078269
0.203798
0.322065
0.41966
0.496814
0.571143
0.570808
0.463926
0.35772
0.284702
0.209325
0.246181
-0.626508
-0.597578
-0.537354
-0.458716
-0.369631
-0.272794
-0.16892
-0.0582327
0.0586083
0.181965
0.296916
0.390199
0.459822
0.499232
0.45395
0.306471
0.173528
0.0792985
-0.0241469
0.0330698
-0.650071
-0.618114
-0.556823
-0.477852
-0.388786
-0.29212
-0.188465
-0.0787678
0.0364605
0.157127
0.26806
0.355654
0.415534
0.424434
0.318227
0.135361
-0.0274863
-0.153718
-0.293218
-0.252461
-0.67299
-0.639512
-0.577121
-0.497349
-0.408141
-0.311638
-0.208582
-0.0999899
0.0134545
0.131128
0.237312
0.318581
0.364119
0.338607
0.176498
-0.0344963
-0.24154
-0.429013
-0.63466
-0.637469
-0.695102
-0.661359
-0.598138
-0.517673
-0.428291
-0.332004
-0.229651
-0.122262
-0.0108228
0.103541
0.204442
0.278687
0.307103
0.246704
0.0410425
-0.187484
-0.427088
-0.643097
-0.913535
-1.2493
-0.717422
-0.683794
-0.620123
-0.539203
-0.449637
-0.353518
-0.251791
-0.145618
-0.03626
0.074616
0.170078
0.236479
0.247573
0.13594
-0.076936
-0.305911
-0.534993
-0.730773
-0.80613
-0.91496
-0.740755
-0.707235
-0.643377
-0.562258
-0.472633
-0.376766
-0.275751
-0.17095
-0.0639653
0.0429682
0.132576
0.189567
0.176141
0.0234034
-0.181077
-0.390629
-0.572803
-0.679348
-0.703569
-0.723809
-0.765433
-0.732
-0.668041
-0.586893
-0.497374
-0.401911
-0.301826
-0.198682
-0.0944668
0.00791925
0.0912117
0.136739
0.100296
-0.079991
-0.275273
-0.459065
-0.60038
-0.6485
-0.663684
-0.666109
-0.791655
-0.758179
-0.694156
-0.613062
-0.523771
-0.428913
-0.329982
-0.228802
-0.127774
-0.0305187
0.0458398
0.0780802
0.0234778
-0.177153
-0.362763
-0.527393
-0.626396
-0.639333
-0.642145
-0.64237
-0.819398
-0.785836
-0.72172
-0.640717
-0.55179
-0.457702
-0.360156
-0.26125
-0.163815
-0.0722031
-0.00360182
0.0163893
-0.0690794
-0.26685
-0.44444
-0.582518
-0.623053
-0.630588
-0.631555
-0.630837
-0.848351
-0.814598
-0.750602
-0.669726
-0.581284
-0.488151
-0.392231
-0.2959
-0.202474
-0.116937
-0.0566357
-0.0493426
-0.168022
-0.352109
-0.513985
-0.616277
-0.620743
-0.622896
-0.624135
-0.623811
-0.877937
-0.844164
-0.780463
-0.699825
-0.612004
-0.520016
-0.425951
-0.332499
-0.24344
-0.164458
-0.112094
-0.125112
-0.257226
-0.429259
-0.576756
-0.611835
-0.625874
-0.621943
-0.619031
-0.618127
-0.907733
-0.874177
-0.810711
-0.730578
-0.643538
-0.552884
-0.460912
-0.370622
-0.286218
-0.214139
-0.169462
-0.198917
-0.345427
-0.494646
-0.622646
-0.662213
-0.637781
-0.620997
-0.613912
-0.611222
-0.936831
-0.903759
-0.840754
-0.761323
-0.675281
-0.58617
-0.496512
-0.409616
-0.330112
-0.264955
-0.229479
-0.272572
-0.436652
-0.54547
-0.634909
-0.648266
-0.636684
-0.623356
-0.615943
-0.613222
-0.963957
-0.931579
-0.869744
-0.791221
-0.706399
-0.61906
-0.531915
-0.448546
-0.374144
-0.315977
-0.289149
-0.343649
-0.527879
-0.627079
-0.567705
-0.620921
-0.671491
-0.693612
-0.692951
-0.689076
-0.987738
-0.956499
-0.896403
-0.819152
-0.735875
-0.650507
-0.566027
-0.486215
-0.416875
-0.366242
-0.344686
-0.420653
-0.622738
-0.812805
-0.846526
-0.849982
-0.867148
-0.88569
-0.879016
-0.86913
-1.00645
-0.977034
-0.91909
-0.843795
-0.762439
-0.679254
-0.597456
-0.521165
-0.456449
-0.413301
-0.396739
-0.500085
-0.727197
-1.02408
-1.39513
-1.13014
-1.03856
-1.03213
-1.03212
-1.0326
-1.01837
-0.991501
-0.936461
-0.863598
-0.784559
-0.703802
-0.624643
-0.551557
-0.490761
-0.453742
-0.449446
-0.570243
-0.761867
-0.747235
-0.505783
-0.787616
-1.12608
-1.16862
-1.14883
-1.1435
-1.0215
-0.998239
-0.946928
-0.877103
-0.800726
-0.722566
-0.645881
-0.575058
-0.51744
-0.484837
-0.495403
-0.627586
-0.781736
-0.684132
-0.579542
-0.910755
-1.16545
-1.17068
-1.12194
-1.14994
-1.01472
-0.995505
-0.948937
-0.883074
-0.809696
-0.734091
-0.659358
-0.589653
-0.532783
-0.502618
-0.523448
-0.709065
-1.18042
-1.9466
-2.66118
-3.11193
-2.90778
-2.42335
-1.98598
-1.85631
-0.996451
-0.981146
-0.941372
-0.88069
-0.810702
-0.737426
-0.663743
-0.593637
-0.533524
-0.497196
-0.514366
-0.732516
-1.36642
-2.26719
-2.97337
-3.31648
-3.22774
-2.92536
-2.55094
-2.33564
-0.967872
-0.957124
-0.924493
-0.870189
-0.803807
-0.732503
-0.658748
-0.58569
-0.518359
-0.464021
-0.454972
-0.529815
-0.798534
-1.05503
-1.26383
-1.21545
-0.985522
-0.720252
-0.499324
-0.383841
-0.932404
-0.925855
-0.901081
-0.85344
-0.790605
-0.720525
-0.645621
-0.567303
-0.488112
-0.410318
-0.331674
-0.214007
-0.0405491
0.326962
0.7859
1.24477
1.60991
1.84912
1.96945
2.00791
-0.894685
-0.891035
-0.874884
-0.833752
-0.773972
-0.704447
-0.627331
-0.543793
-0.451274
-0.348556
-0.221665
-0.0824916
0.249346
0.837054
1.49919
2.09392
2.53368
2.78695
2.8979
2.92973
-0.859552
-0.857369
-0.848085
-0.814919
-0.758326
-0.687899
-0.608721
-0.520685
-0.42398
-0.310398
-0.184666
-0.0425773
0.156131
0.631694
1.1964
1.68891
2.04283
2.24586
2.33695
2.36406
-0.82553
-0.824348
-0.821265
-0.797962
-0.744687
-0.672869
-0.592356
-0.504815
-0.40988
-0.300903
-0.187944
-0.0694855
0.0581752
0.352673
0.769033
1.11842
1.3791
1.53652
1.61375
1.63721
-0.804049
-0.804196
-0.804132
-0.784434
-0.729542
-0.655636
-0.575284
-0.491338
-0.401975
-0.303839
-0.207108
-0.117384
-0.0331476
0.133381
0.410346
0.657693
0.84284
0.952886
1.00191
1.01431
-0.774725
-0.777848
-0.779465
-0.759292
-0.701871
-0.62802
-0.551424
-0.474604
-0.394894
-0.310658
-0.232605
-0.170407
-0.110516
-0.0111469
0.170059
0.33348
0.452469
0.521363
0.552293
0.559588
-0.695722
-0.699738
-0.701083
-0.683757
-0.637985
-0.577999
-0.515085
-0.451319
-0.38501
-0.315738
-0.255766
-0.216108
-0.182287
-0.116574
0.00638992
0.112241
0.187679
0.229001
0.246397
0.248485
-0.573439
-0.575363
-0.575829
-0.566881
-0.542966
-0.508708
-0.468016
-0.422315
-0.371755
-0.317316
-0.273349
-0.252731
-0.242629
-0.199124
-0.110663
-0.0350954
0.0139386
0.0399078
0.0501679
0.0502616
-0.461356
-0.461756
-0.462333
-0.461176
-0.4551
-0.442221
-0.421521
-0.392605
-0.356214
-0.314051
-0.27986
-0.267022
-0.271207
-0.237204
-0.175228
-0.123801
-0.0908529
-0.0739628
-0.0675578
-0.0678769
-0.390305
-0.39036
-0.391521
-0.394128
-0.395964
-0.393669
-0.384546
-0.367001
-0.340779
-0.306857
-0.275876
-0.259084
-0.254723
-0.223515
-0.179799
-0.151095
-0.134519
-0.126501
-0.12373
-0.124375
-0.355788
-0.355944
-0.357202
-0.3602
-0.363302
-0.363999
-0.359752
-0.348341
-0.327762
-0.297544
-0.264464
-0.236205
-0.212388
-0.188228
-0.1629
-0.149183
-0.140818
-0.135639
-0.133612
-0.13471
-0.343543
-0.343649
-0.34449
-0.346722
-0.349069
-0.349682
-0.346581
-0.337105
-0.318853
-0.290522
-0.254655
-0.217187
-0.175837
-0.150013
-0.146193
-0.141448
-0.134997
-0.128756
-0.125687
-0.127083
-0.345574
-0.345391
-0.345492
-0.346522
-0.34761
-0.347172
-0.343451
-0.333928
-0.315905
-0.287258
-0.251317
-0.214743
-0.173339
-0.151871
-0.148597
-0.139697
-0.129123
-0.12111
-0.117419
-0.119219
-0.360428
-0.359921
-0.359324
-0.359151
-0.358694
-0.356567
-0.351126
-0.34018
-0.320117
-0.290112
-0.25635
-0.229412
-0.205871
-0.19149
-0.181059
-0.161758
-0.140384
-0.125309
-0.119645
-0.122858
-0.388852
-0.388025
-0.386688
-0.385575
-0.383661
-0.379634
-0.372064
-0.358793
-0.335636
-0.301817
-0.267632
-0.249746
-0.247157
-0.252771
-0.229163
-0.198996
-0.178225
-0.167609
-0.164063
-0.164306
-0.430772
-0.429794
-0.428346
-0.426519
-0.423617
-0.418509
-0.409839
-0.395019
-0.368927
-0.329253
-0.286267
-0.261419
-0.275221
-0.28255
-0.251795
-0.216773
-0.192704
-0.184066
-0.181675
-0.182066
-0.487381
-0.486269
-0.48475
-0.482845
-0.480186
-0.47621
-0.469829
-0.45816
-0.435515
-0.393029
-0.329889
-0.274602
-0.26993
-0.274563
-0.243794
-0.209057
-0.183369
-0.168824
-0.16901
-0.169633
-0.557789
-0.556826
-0.555854
-0.555049
-0.55489
-0.556076
-0.559033
-0.562438
-0.561347
-0.533225
-0.442555
-0.338364
-0.300563
-0.290237
-0.248295
-0.195609
-0.156788
-0.142158
-0.142563
-0.142111
-0.637804
-0.637478
-0.637979
-0.64003
-0.645679
-0.658011
-0.681267
-0.720148
-0.77326
-0.790367
-0.664131
-0.489952
-0.402793
-0.357929
-0.276557
-0.191991
-0.121941
-0.0999859
-0.107505
-0.109161
-0.716801
-0.71766
-0.720602
-0.727398
-0.742386
-0.772262
-0.828128
-0.927102
-1.07487
-1.17214
-1.01351
-0.738772
-0.579622
-0.484052
-0.351759
-0.225164
-0.147319
-0.126872
-0.132292
-0.136524
-0.777202
-0.77957
-0.785453
-0.798044
-0.824211
-0.874916
-0.97036
-1.14552
-1.41676
-1.6229
-1.42206
-1.04189
-0.813015
-0.656869
-0.485856
-0.346567
-0.280046
-0.276619
-0.279524
-0.283496
-0.79827
-0.802057
-0.810409
-0.827899
-0.863571
-0.931936
-1.05881
-1.2977
-1.67111
-1.96337
-1.75149
-1.30891
-1.02949
-0.844747
-0.645853
-0.538385
-0.503082
-0.496804
-0.495888
-0.498094
-0.764503
-0.768645
-0.777722
-0.796997
-0.836246
-0.911065
-1.05055
-1.31263
-1.71884
-2.04926
-1.866
-1.44139
-1.19306
-1.00913
-0.851504
-0.747542
-0.728435
-0.725683
-0.725108
-0.727253
-0.673154
-0.676834
-0.684868
-0.702004
-0.737289
-0.80509
-0.934045
-1.17374
-1.52928
-1.79891
-1.6685
-1.37553
-1.24612
-1.16444
-1.11095
-1.02121
-0.980913
-0.963538
-0.95589
-0.955394
-0.538698
-0.541128
-0.546602
-0.559013
-0.585429
-0.636953
-0.735559
-0.919794
-1.18695
-1.35538
-1.27533
-1.16843
-1.14179
-1.31052
-1.41822
-1.29438
-1.19662
-1.14647
-1.12216
-1.11423
-0.384841
-0.385961
-0.388597
-0.395521
-0.411471
-0.443679
-0.506467
-0.627116
-0.81576
-0.940946
-0.91036
-0.874417
-0.942538
-1.16355
-1.36637
-1.26007
-1.15686
-1.10047
-1.07229
-1.06225
-0.236719
-0.236654
-0.237069
-0.239486
-0.246504
-0.261851
-0.293085
-0.356337
-0.472135
-0.577888
-0.590817
-0.570866
-0.573206
-0.714766
-0.875767
-0.857073
-0.813768
-0.788889
-0.7763
-0.770379
-0.111418
-0.110736
-0.110152
-0.110129
-0.111483
-0.115498
-0.124772
-0.144797
-0.187475
-0.256735
-0.25521
-0.214983
-0.220114
-0.303628
-0.388257
-0.401435
-0.397731
-0.39571
-0.395908
-0.395367
-0.015215
-0.0148501
-0.0131249
-0.0110019
-0.00940085
-0.00860601
-0.00806329
-0.00725889
-0.00511734
0.00458059
-0.0351642
-0.0777235
-0.0666724
-0.0434866
-0.0538375
-0.0502051
-0.052596
-0.057379
-0.0607534
-0.0628307
-0.383567
-0.193243
0.0281551
0.215722
0.367023
0.487998
0.589253
0.674715
0.7129
0.690158
-0.0373724
0.0977895
0.241468
0.365781
0.471112
0.558903
0.630069
0.680598
0.70638
0.718095
0.206678
0.29847
0.39577
0.482131
0.556639
0.61906
0.668638
0.704825
0.730649
0.748227
0.382503
0.446455
0.51459
0.576987
0.631177
0.67712
0.714716
0.744527
0.768588
0.786632
0.517431
0.564073
0.613579
0.660769
0.702369
0.738557
0.769382
0.794861
0.816037
0.833724
0.627574
0.662597
0.703006
0.74074
0.775225
0.805992
0.832759
0.855132
0.873508
0.890786
0.723738
0.753703
0.789274
0.822739
0.853851
0.881995
0.906513
0.9268
0.942672
0.959732
0.81461
0.844611
0.879599
0.912468
0.942798
0.970009
0.993375
1.01223
1.02587
1.04291
0.911364
0.944971
0.982239
1.01636
1.04687
1.07346
1.09573
1.11325
1.12531
1.14273
1.02734
1.06522
1.10429
1.13892
1.16856
1.19355
1.21412
1.23017
1.24176
1.25986
1.17292
1.21167
1.24783
1.27869
1.30454
1.32678
1.34596
1.36158
1.37409
1.39211
1.34799
1.37993
1.40623
1.42874
1.44881
1.46762
1.4854
1.50194
1.51734
1.53542
1.53679
1.55411
1.56929
1.5856
1.60156
1.61614
1.62939
1.64335
1.66093
1.68109
1.71885
1.72828
1.73985
1.7507
1.76001
1.76964
1.78047
1.79187
1.80326
1.81862
1.92598
1.92968
1.91476
1.89996
1.89373
1.89944
1.91793
1.94827
1.98046
2.00712
2.23233
2.09746
2.02085
1.97855
1.96115
1.96512
1.99254
2.04896
2.15159
2.37595
0.510959
0.508828
0.504341
0.495711
0.483479
0.471339
0.461092
0.453164
0.447494
0.444158
0.443687
0.446294
0.451286
0.45842
0.467741
0.47923
0.491844
0.502853
0.508953
0.511996
0.435423
0.441268
0.447606
0.452094
0.454555
0.454219
0.451464
0.447622
0.444058
0.441709
0.441437
0.443498
0.447041
0.451232
0.454965
0.456791
0.455812
0.452297
0.447107
0.440475
0.42703
0.429326
0.432728
0.435722
0.437791
0.439277
0.440011
0.43966
0.438574
0.437595
0.437632
0.438908
0.440592
0.441786
0.441876
0.440915
0.43931
0.43693
0.433638
0.430705
0.421558
0.422643
0.424479
0.426862
0.428886
0.430308
0.43131
0.432022
0.432357
0.432474
0.43281
0.433443
0.433882
0.433815
0.433292
0.432352
0.430807
0.42866
0.426528
0.425131
0.416414
0.417076
0.41819
0.419904
0.421694
0.423327
0.424609
0.425586
0.426393
0.427063
0.427613
0.427955
0.427958
0.427627
0.426918
0.425741
0.42421
0.422582
0.421206
0.420412
0.411513
0.411969
0.412766
0.414091
0.415603
0.417137
0.418603
0.419874
0.420937
0.421858
0.422562
0.422875
0.422779
0.422286
0.421395
0.420237
0.418967
0.417714
0.416722
0.416191
0.406806
0.407145
0.40777
0.408877
0.410215
0.411624
0.41308
0.414512
0.415817
0.41694
0.417795
0.418183
0.418056
0.417491
0.416633
0.415633
0.414588
0.413562
0.412796
0.412405
0.402238
0.402495
0.403005
0.403971
0.405204
0.40655
0.407969
0.409445
0.410922
0.412281
0.41333
0.41381
0.413717
0.413233
0.41252
0.411677
0.410779
0.40993
0.409323
0.409025
0.397769
0.397966
0.398391
0.399263
0.400444
0.40176
0.403167
0.404664
0.406221
0.407755
0.409029
0.409702
0.409799
0.409504
0.408959
0.408265
0.407496
0.406781
0.406296
0.406067
0.393356
0.393503
0.393865
0.394677
0.395832
0.397144
0.398585
0.400151
0.401829
0.40356
0.405097
0.406041
0.406377
0.406288
0.405906
0.405352
0.404715
0.404112
0.403725
0.40355
0.388973
0.38908
0.389395
0.390173
0.391333
0.392679
0.394195
0.395897
0.397761
0.399729
0.401589
0.402898
0.403521
0.403636
0.403421
0.403005
0.402484
0.401979
0.401673
0.401543
0.384571
0.384639
0.384912
0.385666
0.386836
0.38822
0.389778
0.391569
0.393637
0.395952
0.398237
0.399934
0.400895
0.40134
0.401407
0.401196
0.40082
0.40042
0.400194
0.400108
0.380192
0.380224
0.380458
0.38118
0.382356
0.383792
0.385455
0.387421
0.389724
0.392373
0.395165
0.397442
0.398899
0.399702
0.400053
0.400066
0.399869
0.399614
0.39948
0.399434
0.375813
0.375815
0.376015
0.376685
0.377834
0.379303
0.381068
0.383246
0.385919
0.389123
0.392574
0.395453
0.397422
0.398672
0.399351
0.399695
0.399782
0.399733
0.399704
0.399684
0.371107
0.371108
0.371278
0.371886
0.372977
0.374461
0.376348
0.378768
0.381831
0.385615
0.389859
0.393588
0.396255
0.398069
0.399254
0.399999
0.400453
0.400669
0.400761
0.40076
0.365675
0.365657
0.36584
0.366445
0.36758
0.369186
0.371327
0.374165
0.377845
0.382467
0.387719
0.392392
0.395815
0.398251
0.399964
0.401144
0.401897
0.402343
0.402528
0.402534
0.359228
0.359202
0.359411
0.360065
0.361311
0.363131
0.365621
0.368971
0.373389
0.379029
0.385535
0.391416
0.39581
0.398997
0.401278
0.402905
0.404027
0.404705
0.404973
0.404985
0.351441
0.351408
0.351667
0.352459
0.35391
0.35607
0.359079
0.363179
0.368625
0.3756
0.38366
0.390975
0.396467
0.400494
0.403404
0.405517
0.407
0.407885
0.408215
0.408233
0.341937
0.34189
0.342219
0.343204
0.345002
0.347674
0.351419
0.35653
0.363315
0.371988
0.381974
0.39101
0.397812
0.402781
0.406427
0.409083
0.410956
0.412032
0.412431
0.412459
0.330308
0.330244
0.330664
0.331931
0.334216
0.337609
0.342369
0.348842
0.357381
0.368195
0.380545
0.391659
0.39998
0.406108
0.410596
0.413863
0.41614
0.417431
0.417913
0.417951
0.315987
0.315898
0.316446
0.31809
0.321073
0.325486
0.331645
0.339932
0.350738
0.364244
0.379464
0.393034
0.403176
0.410633
0.4161
0.420097
0.422812
0.424337
0.424924
0.424974
0.298225
0.298114
0.298865
0.301026
0.304949
0.310784
0.31886
0.329581
0.343319
0.360164
0.378819
0.395273
0.407531
0.416558
0.423178
0.427959
0.43121
0.433048
0.433754
0.433809
0.275673
0.275552
0.276657
0.279637
0.284898
0.292801
0.303559
0.317581
0.335106
0.356066
0.378786
0.398558
0.41322
0.424028
0.431956
0.437677
0.441559
0.443769
0.444602
0.444655
0.246082
0.245999
0.247773
0.252155
0.259627
0.270656
0.28531
0.303821
0.326207
0.352155
0.379573
0.403062
0.420385
0.433165
0.442567
0.449378
0.454032
0.456669
0.457628
0.457669
0.205338
0.205441
0.208701
0.216001
0.227526
0.243639
0.264001
0.288532
0.316965
0.348763
0.381439
0.408961
0.429129
0.444025
0.455047
0.463109
0.468672
0.471775
0.472837
0.472851
0.145693
0.147019
0.154949
0.168636
0.187715
0.211885
0.240216
0.272383
0.307964
0.346311
0.384619
0.416335
0.439425
0.456501
0.469236
0.478677
0.485271
0.488876
0.490008
0.489982
0.0742592
0.0764069
0.0914543
0.11518
0.144791
0.178432
0.21553
0.255903
0.299231
0.344919
0.38993
0.427043
0.454196
0.474475
0.489786
0.501276
0.509454
0.513927
0.515153
0.515204
0.000782702
0.00773035
0.0299584
0.063613
0.102967
0.145812
0.19161
0.240205
0.291324
0.344455
0.396321
0.438978
0.470271
0.493857
0.511986
0.525911
0.535809
0.54048
0.54224
0.542644
-0.0580882
-0.0492512
-0.0223378
0.018057
0.0649667
0.115588
0.169156
0.225372
0.283851
0.344023
0.402306
0.449987
0.484889
0.511178
0.531366
0.546824
0.557832
0.563704
0.566358
0.566907
-0.105979
-0.0965878
-0.0662005
-0.0209135
0.0317484
0.0885815
0.14865
0.211513
0.276624
0.343257
0.407386
0.459521
0.497461
0.525888
0.547656
0.564385
0.576426
0.583178
0.586197
0.586813
-0.146096
-0.136501
-0.103849
-0.0547563
0.00255822
0.0645005
0.13005
0.198673
0.269652
0.342106
0.411511
0.467557
0.508045
0.53818
0.561122
0.578687
0.59142
0.598837
0.602066
0.602713
-0.180975
-0.171307
-0.136949
-0.0848236
-0.0236668
0.0426153
0.112916
0.186598
0.262833
0.340552
0.414765
0.474322
0.516996
0.548482
0.572238
0.59028
0.603333
0.61111
0.614455
0.61514
-0.212171
-0.202483
-0.166831
-0.112117
-0.0477579
0.0222391
0.0967211
0.17493
0.255939
0.33852
0.417219
0.480055
0.524707
0.557331
0.581686
0.599981
0.613148
0.621071
0.624382
0.625131
-0.240882
-0.231153
-0.194422
-0.137519
-0.0703912
0.00287674
0.0810579
0.163351
0.248748
0.335898
0.418891
0.484907
0.531498
0.565199
0.590102
0.608643
0.621864
0.629897
0.633213
0.63384
-0.267883
-0.258098
-0.220406
-0.161624
-0.0920312
-0.0158723
0.0656157
0.15162
0.241081
0.332558
0.419752
0.488965
0.537534
0.5724
0.597921
0.616754
0.63009
0.638098
0.641435
0.641931
-0.293662
-0.283807
-0.245224
-0.184825
-0.113
-0.034259
0.0501981
0.139577
0.232804
0.328405
0.419747
0.492267
0.542994
0.579186
0.605452
0.624658
0.638147
0.646139
0.649434
0.649917
-0.318641
-0.30862
-0.269212
-0.207315
-0.133516
-0.0524685
0.0346677
0.127118
0.22384
0.323369
0.418849
0.49487
0.547994
0.5857
0.612874
0.632586
0.646307
0.654318
0.657493
0.657967
-0.342982
-0.332726
-0.292592
-0.229259
-0.153706
-0.0706027
0.0189494
0.114194
0.214141
0.317418
0.417033
0.496727
0.552494
0.591979
0.620259
0.640609
0.654629
0.662656
0.665695
0.666115
-0.366738
-0.356268
-0.315413
-0.250775
-0.173637
-0.0886828
0.00302638
0.10079
0.2037
0.310512
0.414194
0.49773
0.55646
0.59802
0.627622
0.648736
0.663086
0.671092
0.673967
0.67429
-0.390037
-0.379263
-0.337693
-0.27188
-0.19332
-0.106718
-0.013089
0.0869304
0.192526
0.302618
0.410245
0.497784
0.559802
0.603784
0.634961
0.656958
0.671646
0.679589
0.682236
0.682429
-0.412797
-0.401747
-0.359464
-0.292566
-0.212733
-0.124672
-0.029343
0.072665
0.180652
0.293737
0.405151
0.496764
0.562369
0.609183
0.642271
0.665291
0.680256
0.687983
0.690335
0.690406
-0.435048
-0.423703
-0.380695
-0.312806
-0.231832
-0.142488
-0.0456772
0.0580672
0.168151
0.28392
0.398872
0.494536
0.56398
0.614079
0.649547
0.673808
0.688932
0.696207
0.698135
0.698074
-0.456616
-0.445044
-0.401337
-0.332548
-0.250556
-0.160086
-0.0620141
0.0432252
0.155117
0.273238
0.391389
0.490987
0.564425
0.618261
0.656752
0.68271
0.697867
0.70423
0.705469
0.705257
-0.477617
-0.46572
-0.421355
-0.351754
-0.268863
-0.177418
-0.078252
0.0282325
0.141649
0.26178
0.382734
0.486019
0.56348
0.621408
0.663705
0.692267
0.707672
0.712401
0.712267
0.711795
-0.497893
-0.485697
-0.440717
-0.370368
-0.286669
-0.194394
-0.0943049
0.0132129
0.127864
0.249634
0.372977
0.479569
0.560935
0.623096
0.669941
0.702537
0.71947
0.722285
0.719191
0.717424
-0.517492
-0.50502
-0.459368
-0.388334
-0.30393
-0.210944
-0.110088
-0.00174979
0.113883
0.236954
0.362224
0.471601
0.556635
0.622841
0.674556
0.712764
0.733965
0.737388
0.730445
0.719886
-0.536329
-0.523642
-0.477414
-0.405804
-0.320856
-0.227352
-0.125945
-0.0170692
0.0992363
0.223201
0.349888
0.461465
0.549952
0.619972
0.676149
0.721098
0.74967
0.757633
0.750944
0.740482
-0.55436
-0.541463
-0.494857
-0.422736
-0.337434
-0.24362
-0.14185
-0.0327558
0.0838927
0.208284
0.335825
0.448868
0.540249
0.613845
0.672123
0.721773
0.753863
0.766454
0.731936
0.677055
-0.571334
-0.557731
-0.511598
-0.439078
-0.353783
-0.259876