/*--------------------------------*- C++ -*----------------------------------*\
  =========                 |
  \\      /  F ield         | OpenFOAM: The Open Source CFD Toolbox
   \\    /   O peration     | Website:  https://openfoam.org
    \\  /    A nd           | Version:  10
     \\/     M anipulation  |
\*---------------------------------------------------------------------------*/
FoamFile
{
    format      ascii;
    class       volVectorField;
    location    "27";
    object      U;
}
// * * * * * * * * * * * * * * * * * * * * * * * * * * * * * * * * * * * * * //

dimensions      [0 1 -1 0 0 0 0];

internalField   nonuniform List<vector> 
8800
(
(0.980151 -0.0915211 0)
(1.00234 -0.0587244 0)
(0.99961 -0.0321241 0)
(0.999998 -0.0165129 0)
(1.00005 -0.00882228 0)
(1.00003 -0.00506502 0)
(1.00001 -0.00296823 0)
(1 -0.00168662 0)
(1 -0.000812417 0)
(1.00005 -0.0001242 0)
(1 0.000568199 0)
(1.00001 0.00132639 0)
(1.00001 0.00235612 0)
(1.00002 0.00396386 0)
(1.00004 0.0067175 0)
(1.00005 0.01203 0)
(0.999884 0.0230854 0)
(0.999078 0.0431537 0)
(1.00722 0.0790289 0)
(0.775024 0.0478396 0)
(0.358982 -0.0147487 0)
(1.04649 -0.0724898 0)
(1.08849 -0.0660271 0)
(1.04947 -0.0509218 0)
(1.02553 -0.0377055 0)
(1.01267 -0.0258997 0)
(1.00649 -0.0167096 0)
(1.00357 -0.010241 0)
(1.00216 -0.00564572 0)
(1.00151 -0.00209617 0)
(1.0014 0.00107313 0)
(1.00175 0.00435898 0)
(1.00272 0.00826392 0)
(1.00474 0.0136111 0)
(1.00897 0.0213113 0)
(1.01799 0.0318129 0)
(1.0359 0.0445983 0)
(1.06752 0.0580569 0)
(1.09475 0.0699597 0)
(0.845721 0.0554945 0)
(0.217772 -0.00138049 0)
(1.07568 -0.0506518 0)
(1.09943 -0.0489362 0)
(1.06437 -0.0400145 0)
(1.03982 -0.0325387 0)
(1.02368 -0.0253151 0)
(1.01391 -0.0181379 0)
(1.00844 -0.0115977 0)
(1.00561 -0.00592175 0)
(1.00447 -0.00068849 0)
(1.0048 0.0043902 0)
(1.00665 0.00966278 0)
(1.01057 0.0156315 0)
(1.01789 0.0223967 0)
(1.03054 0.0295251 0)
(1.05058 0.0366517 0)
(1.0802 0.0444673 0)
(1.10583 0.0518253 0)
(0.943497 0.0409551 0)
(0.217338 0.00139795 0)
(0.176637 -0.000627995 0)
(1.01941 -0.0354516 0)
(1.10572 -0.0414023 0)
(1.07796 -0.0363959 0)
(1.05234 -0.0303616 0)
(1.03505 -0.0245003 0)
(1.02319 -0.0187397 0)
(1.01542 -0.0128115 0)
(1.01086 -0.00680313 0)
(1.00886 -0.00067054 0)
(1.00943 0.00539794 0)
(1.01253 0.0112913 0)
(1.01849 0.0170887 0)
(1.02809 0.0227176 0)
(1.04234 0.0283047 0)
(1.06326 0.0341119 0)
(1.09412 0.0400282 0)
(1.09476 0.0416021 0)
(0.830741 0.0226949 0)
(0.175901 0.000642223 0)
(0.154751 -0.000460991 0)
(0.958228 -0.0256433 0)
(1.10437 -0.0350459 0)
(1.08797 -0.0325986 0)
(1.06105 -0.0281033 0)
(1.04297 -0.0231724 0)
(1.0306 -0.0179652 0)
(1.02203 -0.0125517 0)
(1.01652 -0.00678138 0)
(1.01391 -0.000446455 0)
(1.01462 0.00593574 0)
(1.01848 0.0117602 0)
(1.02529 0.0170711 0)
(1.03546 0.0220996 0)
(1.05023 0.0269504 0)
(1.07223 0.0314321 0)
(1.10136 0.0353663 0)
(1.0703 0.0336736 0)
(0.743583 0.0143256 0)
(0.153651 0.000477093 0)
(0.140115 -0.000333137 0)
(0.901346 -0.0192395 0)
(1.09683 -0.0301041 0)
(1.09613 -0.0292158 0)
(1.0687 -0.0254241 0)
(1.04973 -0.0213767 0)
(1.03675 -0.0168168 0)
(1.02781 -0.0117476 0)
(1.02193 -0.00620206 0)
(1.01903 -4.00451e-05 0)
(1.01974 0.0061635 0)
(1.02383 0.011728 0)
(1.03089 0.0166975 0)
(1.04145 0.0211775 0)
(1.05695 0.0251564 0)
(1.0799 0.0287388 0)
(1.10391 0.0315494 0)
(1.03905 0.0277014 0)
(0.677512 0.0101261 0)
(0.138573 0.000352225 0)
(0.12947 -0.000249414 0)
(0.85178 -0.014751 0)
(1.08445 -0.025845 0)
(1.10165 -0.026225 0)
(1.07538 -0.0230055 0)
(1.05594 -0.0194495 0)
(1.04251 -0.0153987 0)
(1.03315 -0.0107232 0)
(1.02695 -0.00545218 0)
(1.02382 0.000457152 0)
(1.02448 0.00638686 0)
(1.02867 0.0116164 0)
(1.03598 0.0161634 0)
(1.0469 0.0200883 0)
(1.06278 0.0234756 0)
(1.08611 0.0265147 0)
(1.10332 0.0283798 0)
(1.00518 0.0229214 0)
(0.626586 0.0076421 0)
(0.12739 0.00027284 0)
(0.121436 -0.000190619 0)
(0.809877 -0.0114603 0)
(1.06932 -0.0220529 0)
(1.10504 -0.023299 0)
(1.08136 -0.0204535 0)
(1.06147 -0.0171641 0)
(1.04775 -0.0135549 0)
(1.0381 -0.00937247 0)
(1.03163 -0.00449833 0)
(1.02831 0.00108947 0)
(1.02884 0.00666698 0)
(1.03304 0.0114428 0)
(1.04048 0.0154133 0)
(1.05155 0.0187361 0)
(1.06773 0.0216659 0)
(1.09151 0.0244503 0)
(1.10014 0.0255514 0)
(0.971434 0.0190708 0)
(0.5864 0.00598053 0)
(0.118701 0.000219421 0)
(0.115318 -0.000143941 0)
(0.775039 -0.00891397 0)
(1.0528 -0.0186075 0)
(1.10732 -0.0206335 0)
(1.08702 -0.0182576 0)
(1.06661 -0.0151915 0)
(1.05261 -0.0117916 0)
(1.04281 -0.0078352 0)
(1.03615 -0.00328786 0)
(1.03258 0.00186012 0)
(1.03298 0.00693584 0)
(1.03712 0.0112177 0)
(1.04452 0.0147557 0)
(1.05565 0.0177225 0)
(1.07219 0.0203295 0)
(1.09582 0.0227436 0)
(1.09444 0.0230201 0)
(0.939265 0.0159008 0)
(0.554149 0.00477236 0)
(0.111788 0.000179087 0)
(0.110686 -0.000107611 0)
(0.746547 -0.00685816 0)
(1.03605 -0.0153681 0)
(1.10833 -0.0178624 0)
(1.09202 -0.015941 0)
(1.07142 -0.0131407 0)
(1.0572 -0.00993195 0)
(1.04718 -0.00620914 0)
(1.04029 -0.00199411 0)
(1.03648 0.00276727 0)
(1.03668 0.00741269 0)
(1.04071 0.0111857 0)
(1.04807 0.0142438 0)
(1.05924 0.0168529 0)
(1.07596 0.0190925 0)
(1.09865 0.0210262 0)
(1.08654 0.0205652 0)
(0.909572 0.0132653 0)
(0.527957 0.00385939 0)
(0.106184 0.000151183 0)
(0.107282 -7.48556e-05 0)
(0.723794 -0.00510661 0)
(1.02025 -0.0123036 0)
(1.10858 -0.0149484 0)
(1.09674 -0.0132529 0)
(1.07593 -0.0105961 0)
(1.06139 -0.00772511 0)
(1.05115 -0.00434475 0)
(1.04411 -0.000461256 0)
(1.04014 0.00388049 0)
(1.04002 0.00800901 0)
(1.04375 0.0112679 0)
(1.05099 0.0137986 0)
(1.06219 0.0157785 0)
(1.07917 0.0175628 0)
(1.10025 0.0191754 0)
(1.07731 0.0181941 0)
(0.882861 0.0110336 0)
(0.506611 0.00313243 0)
(0.101594 0.000128574 0)
(0.104939 -4.7792e-05 0)
(0.7063 -0.00355126 0)
(1.00604 -0.00936243 0)
(1.10826 -0.0120431 0)
(1.10114 -0.0106805 0)
(1.07999 -0.0082568 0)
(1.06512 -0.0055831 0)
(1.05469 -0.00240201 0)
(1.04736 0.00122887 0)
(1.04303 0.00520638 0)
(1.04259 0.00886471 0)
(1.0461 0.0116281 0)
(1.05314 0.0136078 0)
(1.06436 0.0151231 0)
(1.08174 0.0164894 0)
(1.10093 0.0176042 0)
(1.06718 0.0159923 0)
(0.859229 0.00911426 0)
(0.489236 0.00255304 0)
(0.0977822 0.000115539 0)
(0.103549 -1.9746e-05 0)
(0.69387 -0.00207061 0)
(0.99396 -0.00638616 0)
(1.10713 -0.008956 0)
(1.10483 -0.00808631 0)
(1.084 -0.0059327 0)
(1.06899 -0.00327256 0)
(1.05843 -0.000146402 0)
(1.05093 0.00325482 0)
(1.04624 0.00683798 0)
(1.04538 0.00998399 0)
(1.04847 0.0121866 0)
(1.0552 0.0137618 0)
(1.06619 0.0149089 0)
(1.08337 0.0157745 0)
(1.10024 0.0161377 0)
(1.05621 0.0137832 0)
(0.838825 0.00739418 0)
(0.475302 0.0020563 0)
(0.0945828 0.000104718 0)
(0.103155 8.34691e-06 0)
(0.686228 -0.000661246 0)
(0.98462 -0.00347857 0)
(1.10563 -0.0055184 0)
(1.10778 -0.0047291 0)
(1.08754 -0.00278927 0)
(1.07232 -0.000352698 0)
(1.0614 0.00248978 0)
(1.05347 0.0055906 0)
(1.04834 0.00883863 0)
(1.04693 0.0115245 0)
(1.04958 0.013094 0)
(1.05608 0.0138866 0)
(1.06706 0.014324 0)
(1.08411 0.0144806 0)
(1.09819 0.0143901 0)
(1.04502 0.0117126 0)
(0.821538 0.0059396 0)
(0.464319 0.00164665 0)
(0.0919485 8.9902e-05 0)
(0.10372 5.26415e-05 0)
(0.682931 0.000456886 0)
(0.978263 -0.000959541 0)
(1.10467 -0.00241792 0)
(1.11067 -0.0016331 0)
(1.09093 0.000184665 0)
(1.07562 0.00250333 0)
(1.0646 0.00524513 0)
(1.05641 0.00826418 0)
(1.05077 0.0112801 0)
(1.04867 0.0135067 0)
(1.05065 0.014616 0)
(1.05652 0.0148872 0)
(1.06705 0.0146323 0)
(1.08369 0.0143184 0)
(1.09534 0.0135994 0)
(1.03397 0.0104133 0)
(0.806836 0.00507444 0)
(0.455436 0.0014536 0)
(0.0897591 7.961e-05 0)
(0.105058 6.97288e-05 0)
(0.683213 0.00128732 0)
(0.974657 0.00104345 0)
(1.10412 0.000116304 0)
(1.11342 0.000849619 0)
(1.09419 0.00260997 0)
(1.07877 0.00508574 0)
(1.0676 0.00804255 0)
(1.05906 0.011255 0)
(1.0527 0.0142707 0)
(1.04979 0.0162665 0)
(1.05096 0.0169754 0)
(1.05615 0.0167668 0)
(1.06614 0.0160428 0)
(1.08251 0.0151902 0)
(1.09108 0.013746 0)
(1.02258 0.00996529 0)
(0.793753 0.00492721 0)
(0.447258 0.00151374 0)
(0.0876575 8.23135e-05 0)
(0.107002 9.65373e-05 0)
(0.686098 0.00196826 0)
(0.97388 0.00281684 0)
(1.10405 0.00267916 0)
(1.11611 0.00346498 0)
(1.09765 0.00538079 0)
(1.08233 0.00828359 0)
(1.07096 0.0116444 0)
(1.06183 0.0150357 0)
(1.05456 0.0179909 0)
(1.05063 0.0196487 0)
(1.05084 0.0198063 0)
(1.05519 0.0190565 0)
(1.06456 0.0179035 0)
(1.08021 0.0165544 0)
(1.08557 0.0144529 0)
(1.01102 0.0102951 0)
(0.781247 0.00538418 0)
(0.438566 0.00174589 0)
(0.0853268 9.62515e-05 0)
(0.109587 0.00012471 0)
(0.691507 0.00267513 0)
(0.975925 0.00435766 0)
(1.10558 0.00538292 0)
(1.1193 0.00687517 0)
(1.10179 0.00933178 0)
(1.08646 0.0127083 0)
(1.07459 0.0163679 0)
(1.06467 0.0198446 0)
(1.0563 0.0226182 0)
(1.05107 0.0237576 0)
(1.05016 0.0232699 0)
(1.05365 0.021905 0)
(1.06227 0.020151 0)
(1.07699 0.018212 0)
(1.07923 0.0156863 0)
(0.999492 0.0114079 0)
(0.768083 0.00624947 0)
(0.428557 0.00206476 0)
(0.0825673 0.000116051 0)
(0.112919 0.000157764 0)
(0.699161 0.00353806 0)
(0.980715 0.00601466 0)
(1.10961 0.00801698 0)
(1.12418 0.0105588 0)
(1.10683 0.0139208 0)
(1.09103 0.0179047 0)
(1.07837 0.0219472 0)
(1.06736 0.0256331 0)
(1.05762 0.0283065 0)
(1.05083 0.0289364 0)
(1.04869 0.0276577 0)
(1.05128 0.0255248 0)
(1.05916 0.0231964 0)
(1.07293 0.0208221 0)
(1.07252 0.0180248 0)
(0.987279 0.0133638 0)
(0.75298 0.00735336 0)
(0.4168 0.00245184 0)
(0.079251 0.000143479 0)
(0.117237 0.000206429 0)
(0.70955 0.00475661 0)
(0.987577 0.00813224 0)
(1.1157 0.0107157 0)
(1.13085 0.0139235 0)
(1.1131 0.018148 0)
(1.09644 0.0229902 0)
(1.08273 0.0277952 0)
(1.07041 0.0321948 0)
(1.05892 0.0352933 0)
(1.05022 0.035883 0)
(1.04648 0.0341948 0)
(1.04799 0.0312452 0)
(1.05543 0.0280792 0)
(1.06841 0.0252327 0)
(1.06478 0.0219044 0)
(0.972492 0.0158547 0)
(0.735205 0.00849837 0)
(0.403164 0.00286353 0)
(0.0753077 0.000170531 0)
(0.122893 0.000275161 0)
(0.723686 0.00643907 0)
(0.99647 0.0110911 0)
(1.12284 0.014014 0)
(1.13858 0.0174031 0)
(1.12067 0.0223508 0)
(1.103 0.0281715 0)
(1.0881 0.0342351 0)
(1.07417 0.039869 0)
(1.06053 0.0439283 0)
(1.0496 0.0449815 0)
(1.04393 0.0432995 0)
(1.04381 0.0401351 0)
(1.05016 0.0362653 0)
(1.06233 0.0320526 0)
(1.05385 0.0266925 0)
(0.953678 0.0184524 0)
(0.714916 0.00979982 0)
(0.38749 0.0033578 0)
(0.0706771 0.000200541 0)
(0.130427 0.000382323 0)
(0.74297 0.00884548 0)
(1.0085 0.0153926 0)
(1.13059 0.0190794 0)
(1.1469 0.0224878 0)
(1.12934 0.0279986 0)
(1.11119 0.0350173 0)
(1.09499 0.0426354 0)
(1.07899 0.049638 0)
(1.06269 0.05461 0)
(1.04912 0.0559052 0)
(1.04121 0.0540005 0)
(1.0391 0.0503126 0)
(1.04355 0.0455906 0)
(1.05253 0.0396777 0)
(1.03746 0.0314413 0)
(0.931029 0.0210571 0)
(0.692267 0.0113848 0)
(0.369414 0.0039473 0)
(0.0652687 0.000230929 0)
(0.140684 0.000546735 0)
(0.769081 0.01221 0)
(1.02578 0.0212842 0)
(1.14002 0.0265562 0)
(1.15588 0.0305864 0)
(1.13954 0.03725 0)
(1.12127 0.0457313 0)
(1.10333 0.0547091 0)
(1.08459 0.0626013 0)
(1.06503 0.0677668 0)
(1.04829 0.0684699 0)
(1.03775 0.0655185 0)
(1.03318 0.0604938 0)
(1.03468 0.0541883 0)
(1.03853 0.0461013 0)
(1.01664 0.0357614 0)
(0.905967 0.0241728 0)
(0.66682 0.0134401 0)
(0.348247 0.00468211 0)
(0.0589667 0.000266433 0)
(0.15492 0.000816627 0)
(0.804101 0.017202 0)
(1.05059 0.0295347 0)
(1.1537 0.0373351 0)
(1.16725 0.043583 0)
(1.15197 0.0520487 0)
(1.13292 0.061928 0)
(1.11244 0.0716583 0)
(1.09023 0.0795602 0)
(1.06674 0.0838077 0)
(1.04631 0.0827733 0)
(1.03265 0.0777371 0)
(1.02517 0.0705604 0)
(1.02286 0.0620871 0)
(1.02118 0.0521707 0)
(0.993541 0.0407053 0)
(0.879009 0.02833 0)
(0.637569 0.0160567 0)
(0.323277 0.00552687 0)
(0.0516789 0.000299477 0)
(0.175332 0.00128853 0)
(0.851163 0.0250272 0)
(1.0856 0.0415852 0)
(1.17431 0.0528157 0)
(1.18319 0.0625079 0)
(1.16675 0.073259 0)
(1.14549 0.084303 0)
(1.12145 0.0940752 0)
(1.09495 0.100955 0)
(1.0669 0.103084 0)
(1.04232 0.0992071 0)
(1.02515 0.0912802 0)
(1.01439 0.0815005 0)
(1.00818 0.0707903 0)
(1.00177 0.0594941 0)
(0.969148 0.0473566 0)
(0.84921 0.0338423 0)
(0.603178 0.0193203 0)
(0.29396 0.00650777 0)
(0.0433966 0.000329667 0)
(0.205295 0.00235233 0)
(0.915739 0.0385448 0)
(1.13349 0.0611188 0)
(1.20282 0.0756149 0)
(1.20439 0.0893861 0)
(1.18373 0.102142 0)
(1.15822 0.113576 0)
(1.12938 0.122338 0)
(1.09785 0.127029 0)
(1.06472 0.125906 0)
(1.0357 0.118331 0)
(1.01489 0.107062 0)
(1.00079 0.0945292 0)
(0.991083 0.0817555 0)
(0.980786 0.0692616 0)
(0.942958 0.0563229 0)
(0.814817 0.0408325 0)
(0.562521 0.0232175 0)
(0.260486 0.00763499 0)
(0.0343694 0.000350089 0)
(0.246491 0.00873633 1.565e-20)
(1.0015 0.0659416 1.4318e-20)
(1.19107 0.0942442 -5.37003e-21)
(1.23779 0.110993 0)
(1.22849 0.127591 -1.70775e-34)
(1.20117 0.14053 2.58004e-21)
(1.16975 0.15078 -5.16489e-21)
(1.13517 0.1573 0)
(1.09803 0.15887 1.17391e-34)
(1.05936 0.153835 -7.46952e-21)
(1.02545 0.142212 0)
(1.00059 0.127542 -9.33161e-21)
(0.982831 0.112373 -2.78137e-20)
(0.96965 0.0978607 -1.32294e-20)
(0.955674 0.0845487 -4.03854e-21)
(0.9117 0.0709021 -2.41086e-21)
(0.771313 0.0522266 0)
(0.511682 0.0297517 1.70224e-21)
(0.223024 0.0105572 2.01303e-21)
(0.0262154 0.000930673 3.60258e-20)
(0.274082 0.0245772 4.17721e-21)
(1.07177 0.109221 5.072e-22)
(1.23885 0.142072 1.12072e-21)
(1.27031 0.160385 0)
(1.25065 0.175811 -7.69852e-21)
(1.21644 0.187357 -9.3855e-21)
(1.17868 0.195738 -4.98475e-21)
(1.13792 0.199919 -1.94783e-20)
(1.09466 0.198549 0)
(1.04965 0.189993 3.18963e-20)
(1.00965 0.174736 3.25672e-20)
(0.979536 0.157116 9.91441e-21)
(0.95715 0.139693 3.69817e-20)
(0.939675 0.123407 5.26357e-20)
(0.920439 0.108557 0)
(0.869974 0.0931212 7.56584e-20)
(0.719397 0.0703191 1.09144e-19)
(0.46046 0.0418816 1.21318e-19)
(0.192084 0.0165204 -1.39207e-19)
(0.0200632 0.00174172 -2.60167e-21)
(0.273248 0.0400215 0)
(1.11519 0.165584 -8.61841e-22)
(1.27267 0.201728 0)
(1.29553 0.219491 -5.50261e-21)
(1.26808 0.231628 0)
(1.2278 0.239999 -1.66378e-20)
(1.18412 0.245172 9.80863e-21)
(1.13747 0.246062 -3.75798e-20)
(1.0883 0.241213 -1.57323e-21)
(1.0373 0.228919 1.63025e-20)
(0.991702 0.210297 7.31468e-20)
(0.956881 0.190171 -3.09132e-22)
(0.930574 0.171133 -2.72443e-20)
(0.909673 0.153828 -5.07126e-20)
(0.887254 0.138068 6.05717e-20)
(0.834766 0.120979 -1.07997e-19)
(0.68983 0.0937288 -1.44419e-20)
(0.445739 0.0590359 0)
(0.19535 0.0256671 3.97653e-23)
(0.0226947 0.00319115 0)
(0.265966 0.0535838 -5.56831e-20)
(1.13746 0.224963 2.01353e-20)
(1.29416 0.26628 6.37052e-21)
(1.31213 0.283217 1.50012e-21)
(1.27931 0.291653 -3.13177e-21)
(1.23434 0.296178 3.40275e-20)
(1.18574 0.297529 2.01088e-20)
(1.13401 0.294604 0)
(1.07959 0.285929 -7.75833e-20)
(1.02315 0.269796 0)
(0.972574 0.24787 -3.82142e-20)
(0.933754 0.22545 -4.90523e-20)
(0.904269 0.205011 -3.00724e-20)
(0.880841 0.186844 -3.72754e-20)
(0.856643 0.170248 0)
(0.805805 0.151869 0)
(0.673123 0.121568 -9.59541e-20)
(0.448875 0.0811506 1.89843e-20)
(0.209486 0.0381441 -1.11167e-20)
(0.0282704 0.00548824 -1.29916e-20)
(0.25821 0.065715 5.42839e-20)
(1.14624 0.284073 0)
(1.30618 0.331776 -2.87809e-20)
(1.32111 0.348202 4.59788e-22)
(1.28449 0.353067 9.91895e-21)
(1.236 0.353711 0)
(1.18352 0.351167 1.78812e-20)
(1.12757 0.344341 4.07713e-20)
(1.06869 0.331737 3.8658e-20)
(1.00755 0.311708 7.86766e-20)
(0.952691 0.2865 0)
(0.910576 0.261852 -1.06434e-19)
(0.878636 0.240018 -6.5389e-20)
(0.853312 0.221097 -3.88994e-20)
(0.828164 0.20405 2.44567e-19)
(0.78004 0.184667 2.9569e-20)
(0.660676 0.151898 1.39863e-19)
(0.455549 0.10529 -6.66623e-19)
(0.223781 0.0524726 3.96008e-19)
(0.0336786 0.00828355 -4.7729e-19)
(0.251189 0.0767107 6.62672e-20)
(1.14657 0.34102 -1.08655e-20)
(1.31126 0.396743 7.09709e-21)
(1.32405 0.412621 1.22671e-20)
(1.28463 0.414159 -8.68648e-22)
(1.23341 0.411116 1.70536e-21)
(1.17784 0.404837 -1.97067e-20)
(1.11843 0.39421 4.10006e-20)
(1.05576 0.377763 -8.36588e-20)
(0.990643 0.353864 0)
(0.932205 0.325349 -4.74436e-20)
(0.887403 0.298404 -1.56618e-21)
(0.853576 0.275131 -7.21477e-20)
(0.826953 0.255428 0)
(0.801428 0.237932 -5.31602e-20)
(0.756267 0.21765 -1.27867e-19)
(0.648257 0.183102 3.47028e-19)
(0.45831 0.130132 -3.43027e-19)
(0.233001 0.0670151 4.87751e-19)
(0.0375911 0.0111414 -5.06903e-19)
(0.24551 0.0869524 -4.11948e-22)
(1.14172 0.395237 1.5846e-20)
(1.31116 0.459849 4.05526e-20)
(1.32227 0.475389 -1.08778e-20)
(1.28078 0.473936 7.59081e-22)
(1.22743 0.467483 0)
(1.16933 0.457702 -1.50539e-20)
(1.10702 0.443474 -4.20476e-20)
(1.04114 0.423332 -4.25512e-20)
(0.972558 0.39564 0)
(0.911103 0.363768 -4.83764e-20)
(0.864174 0.334412 -6.22714e-20)
(0.828943 0.309528 7.84873e-20)
(0.801537 0.288811 -4.85556e-20)
(0.776123 0.270705 -2.32727e-19)
(0.73371 0.249661 1.40856e-19)
(0.634314 0.213059 4.31827e-20)
(0.455365 0.153498 0)
(0.235151 0.079994 -4.70772e-19)
(0.0392534 0.0135413 -1.73008e-20)
(0.241157 0.0967468 1.25763e-20)
(1.13387 0.446563 -1.96515e-20)
(1.30717 0.520381 -2.29427e-20)
(1.31696 0.535809 -3.0514e-20)
(1.27384 0.531736 1.44386e-20)
(1.21879 0.522233 1.39597e-20)
(1.15862 0.509229 3.26173e-20)
(1.09386 0.491644 -6.67708e-20)
(1.02517 0.468004 2.8882e-20)
(0.953528 0.436624 -1.93423e-19)
(0.889392 0.401339 -5.61107e-20)
(0.840735 0.369359 0)
(0.8045 0.342645 8.52976e-20)
(0.7767 0.320635 1.03247e-19)
(0.751668 0.301513 1.2494e-19)
(0.711609 0.279377 -1.52952e-19)
(0.618376 0.240194 -4.56228e-20)
(0.447193 0.173594 5.38117e-20)
(0.232209 0.0903643 0)
(0.0391188 0.0152795 -3.75338e-20)
(0.237952 0.106232 -1.56695e-19)
(1.12448 0.495109 9.55344e-20)
(1.30043 0.578045 2.62706e-20)
(1.30904 0.593571 -2.70501e-20)
(1.2646 0.587216 1.37102e-20)
(1.20817 0.574979 -3.96783e-21)
(1.14627 0.559067 -3.66825e-20)
(1.0794 0.53841 -2.44368e-20)
(1.00821 0.511493 -7.435e-20)
(0.933787 0.47656 2.10623e-22)
(0.867198 0.43784 -1.72952e-19)
(0.816965 0.403037 1.52663e-19)
(0.780001 0.374123 -9.41813e-20)
(0.75202 0.350522 1.14505e-19)
(0.727419 0.330101 0)
(0.689163 0.306333 -8.27427e-20)
(0.600395 0.264038 -1.01108e-21)
(0.43456 0.190462 -2.34159e-19)
(0.224993 0.0981211 -3.44996e-20)
(0.0376795 0.016367 0)
(0.235721 0.115521 0)
(1.11439 0.541083 1.0542e-19)
(1.29176 0.63276 6.74934e-20)
(1.29923 0.648531 3.36724e-20)
(1.25368 0.640173 8.61554e-21)
(1.19612 0.625517 0)
(1.13277 0.607001 -1.18553e-20)
(1.06404 0.583562 -1.189e-21)
(0.990595 0.553634 1.58922e-19)
(0.913566 0.51533 -2.57893e-20)
(0.844651 0.47317 -1.25392e-19)
(0.792939 0.435368 7.84044e-20)
(0.755273 0.404017 -1.99824e-21)
(0.727176 0.378448 1.21235e-19)
(0.702997 0.356387 7.64559e-20)
(0.666128 0.330625 -1.79173e-19)
(0.580214 0.284435 2.1442e-19)
(0.418164 0.203835 6.36102e-20)
(0.214195 0.103282 2.62325e-19)
(0.0351107 0.0167254 -7.02638e-19)
(0.234387 0.12472 -4.3679e-20)
(1.10415 0.58468 6.4399e-20)
(1.28189 0.684563 -4.81887e-20)
(1.2881 0.700671 -4.42513e-20)
(1.2416 0.690513 0)
(1.1831 0.673717 4.47485e-21)
(1.1185 0.652899 4.3957e-20)
(1.04814 0.626978 5.06973e-20)
(0.972616 0.594323 0)
(0.893092 0.552871 -3.77687e-19)
(0.821844 0.507321 3.39424e-19)
(0.768586 0.466377 0)
(0.730139 0.432317 1.10259e-19)
(0.701935 0.404494 -1.99336e-21)
(0.678124 0.380466 -2.42933e-19)
(0.642146 0.352253 9.53677e-20)
(0.557961 0.301486 0)
(0.398771 0.213606 3.43628e-19)
(0.200746 0.105964 0)
(0.0318282 0.0165226 -3.32919e-19)
(0.233732 0.133894 5.00497e-20)
(1.09414 0.626068 7.68696e-20)
(1.27114 0.733509 -4.98115e-20)
(1.27607 0.749977 0)
(1.22878 0.738226 2.24745e-20)
(1.16949 0.719548 0)
(1.10381 0.696696 -3.45955e-20)
(1.03199 0.668584 -1.96184e-20)
(0.95453 0.633505 2.6035e-20)
(0.872553 0.589168 -1.86621e-19)
(0.798838 0.540338 3.43834e-20)
(0.743864 0.496163 0)
(0.704581 0.459155 -2.34979e-19)
(0.676171 0.428774 2.05028e-21)
(0.652606 0.402464 0)
(0.617042 0.371344 2.35827e-21)
(0.533446 0.315309 3.12948e-19)
(0.376551 0.219849 -2.98228e-19)
(0.185215 0.106214 8.79873e-20)
(0.0280534 0.0157352 0)
(0.233442 0.142883 0)
(1.08461 0.665308 8.84534e-20)
(1.25986 0.77974 6.25306e-20)
(1.26352 0.796501 -2.25584e-21)
(1.21554 0.783332 1.89065e-20)
(1.15559 0.763005 1.31277e-20)
(1.08898 0.738373 1.47207e-20)
(1.01584 0.708353 -2.61818e-20)
(0.936553 0.67115 1.19994e-19)
(0.852113 0.624243 -2.95807e-19)
(0.775799 0.57231 -3.28911e-21)
(0.718906 0.524865 -1.00637e-19)
(0.678513 0.48468 3.8228e-19)
(0.649783 0.451484 -2.42588e-21)
(0.626333 0.422579 -1.89309e-19)
(0.590713 0.388023 -3.41802e-19)
(0.506813 0.325992 0)
(0.351866 0.222735 0)
(0.167946 0.104022 9.55418e-20)
(0.0239879 0.0144054 -5.59401e-20)
(0.233705 0.15183 6.53484e-20)
(1.07549 0.70229 -1.96837e-19)
(1.24835 0.823349 -6.71912e-20)
(1.25072 0.840324 0)
(1.20214 0.82589 -1.5509e-21)
(1.14164 0.804115 2.76656e-20)
(1.07423 0.777939 2.48779e-20)
(0.999898 0.746278 9.1815e-20)
(0.91888 0.707265 1.51362e-19)
(0.831998 0.658133 -2.37858e-19)
(0.752922 0.603359 -2.8925e-19)
(0.69376 0.552662 2.68704e-19)
(0.651953 0.509129 0)
(0.6227 0.472813 -8.56085e-20)
(0.599214 0.440943 -2.06009e-19)
(0.563094 0.40233 -2.46228e-19)
(0.478064 0.333399 -2.9524e-19)
(0.324929 0.22216 8.76855e-20)
(0.149132 0.0993304 -5.15207e-20)
(0.0196069 0.0125436 3.54524e-22)
(0.233982 0.160636 0)
(1.067 0.737448 0)
(1.23676 0.864398 2.57766e-21)
(1.23787 0.881539 0)
(1.18878 0.865981 -8.01921e-20)
(1.12782 0.842935 -3.23096e-20)
(1.05974 0.815421 0)
(0.984338 0.782374 8.77113e-21)
(0.901704 0.741859 2.45118e-19)
(0.812398 0.690869 -5.46104e-19)
(0.730343 0.633584 0)
(0.668529 0.579752 -1.72397e-19)
(0.624923 0.532713 -2.96503e-21)
(0.594859 0.492932 -2.43335e-21)
(0.571161 0.457625 2.19888e-19)
(0.534137 0.414203 -4.19296e-22)
(0.447275 0.337454 -6.37688e-19)
(0.29576 0.217939 1.89538e-19)
(0.129207 0.0922957 5.60958e-20)
(0.0151489 0.0102995 0)
(0.234268 0.169225 -2.48979e-19)
(1.05887 0.770888 -1.25589e-19)
(1.22522 0.902991 -1.78673e-19)
(1.22512 0.920246 2.24665e-19)
(1.17561 0.903673 -1.59292e-19)
(1.11429 0.879523 0)
(1.04564 0.850864 5.41804e-21)
(0.969301 0.816666 -2.08967e-20)
(0.885159 0.774948 3.8056e-21)
(0.793454 0.72248 4.08492e-20)
(0.708236 0.663074 3.69906e-19)
(0.643383 0.606333 -5.99342e-20)
(0.597456 0.555717 -2.35305e-19)
(0.566145 0.512065 -1.00411e-19)
(0.542006 0.472639 1.20765e-19)
(0.503769 0.423422 -2.91961e-22)
(0.414747 0.337872 1.73079e-19)
(0.264933 0.21006 -4.09066e-19)
(0.108869 0.08326 4.84776e-19)
(0.0108021 0.00779863 7.05065e-20)
(0.234407 0.177494 9.29267e-20)
(1.0511 0.802667 -6.96853e-20)
(1.21385 0.939251 6.06817e-21)
(1.21258 0.956565 1.32205e-19)
(1.16274 0.939068 4.06986e-20)
(1.10114 0.913947 7.1494e-20)
(1.03204 0.884316 -3.37494e-21)
(0.954886 0.849173 -8.2121e-20)
(0.869353 0.806528 -2.57133e-19)
(0.775299 0.752968 -3.18043e-19)
(0.686793 0.691902 0)
(0.618481 0.632581 -2.64765e-19)
(0.569642 0.578441 3.39614e-19)
(0.536427 0.530492 0)
(0.511444 0.485972 -2.58394e-19)
(0.471806 0.429575 1.56962e-19)
(0.380685 0.334147 -1.86357e-19)
(0.233521 0.198553 -2.21594e-19)
(0.0890657 0.0727303 -3.91995e-19)
(0.00681481 0.00523303 -3.05679e-19)
(0.234813 0.185553 -1.0348e-19)
(1.04355 0.832767 7.45292e-20)
(1.2027 0.973253 1.74917e-19)
(1.20035 0.990582 1.8541e-19)
(1.15025 0.972255 -8.36145e-20)
(1.08846 0.94629 5.64588e-20)
(1.01902 0.915826 -8.16708e-21)
(0.941163 0.879938 -7.63777e-20)
(0.854361 0.836624 -1.48547e-19)
(0.758063 0.782346 3.25535e-19)
(0.666171 0.720108 8.02366e-19)
(0.594037 0.658649 0)
(0.541612 0.601177 0)
(0.505566 0.548623 -1.15765e-19)
(0.478949 0.497708 0)
(0.437738 0.431941 3.39462e-19)
(0.345378 0.32516 4.0354e-19)
(0.202985 0.183047 0)
(0.0711981 0.061231 0)
(0.00344457 0.00285927 3.30056e-19)
(0.234855 0.193131 1.15889e-19)
(1.03624 0.861191 9.40654e-20)
(1.19184 1.00512 1.26407e-19)
(1.18848 1.02242 -1.70269e-19)
(1.1382 1.00333 -9.6854e-20)
(1.0763 0.976624 -8.24672e-20)
(1.00662 0.945456 1.63831e-20)
(0.928184 0.90899 2.64617e-22)
(0.840255 0.86524 -4.90889e-21)
(0.741829 0.810601 -5.7785e-21)
(0.64654 0.747703 4.10782e-19)
(0.570273 0.684626 0)
(0.513606 0.624225 3.42588e-19)
(0.473508 0.567019 2.45634e-19)
(0.443749 0.508257 6.08144e-19)
(0.400333 0.429762 1.82861e-19)
(0.308715 0.308682 -2.19524e-19)
(0.176081 0.161574 -1.28775e-19)
(0.0595674 0.0487436 0)
(0.00205766 0.00130322 3.56096e-19)
(0.235158 0.200662 -2.57905e-19)
(1.02915 0.88804 0)
(1.18127 1.03491 1.445e-19)
(1.17699 1.05217 -1.41499e-19)
(1.12664 1.03239 1.1502e-19)
(1.06469 1.00504 1.30779e-19)
(0.99487 0.973263 -5.74154e-20)
(0.915978 0.936369 -8.52503e-21)
(0.827062 0.892386 0)
(0.726663 0.8377 -3.46296e-19)
(0.628046 0.774665 -8.79099e-19)
(0.547424 0.710562 3.79029e-20)
(0.485966 0.647798 4.68805e-19)
(0.440404 0.586349 0)
(0.405015 0.518568 4.10267e-19)
(0.35726 0.423165 0)
(0.267784 0.281485 0)
(0.154639 0.124935 -1.41037e-19)
(0.0714877 0.0240128 0)
(0.0256393 0.0104088 9.57257e-20)
(0.235074 0.207555 -2.85246e-19)
(1.02225 0.91364 0)
(1.17099 1.06283 2.36757e-19)
(1.16586 1.08005 0)
(1.11553 1.05969 -6.45213e-20)
(1.05357 1.0318 0)
(0.983715 0.999554 -6.7977e-21)
(0.904447 0.962407 8.68853e-21)
(0.814667 0.918423 1.78784e-20)
(0.712422 0.864029 -3.71708e-19)
(0.610558 0.80142 2.54022e-20)
(0.525363 0.737017 3.07132e-19)
(0.458524 0.672479 4.55564e-19)
(0.405862 0.607656 6.27853e-20)
(0.361261 0.530532 3.21285e-19)
(0.304535 0.414559 0)
(0.210875 0.244222 4.70286e-19)
(0.109525 0.0622784 -2.76061e-19)
(0.0472987 0.0473267 3.18855e-19)
(-0.067738 0.414632 -3.74807e-19)
(0.23498 0.214206 2.34319e-19)
(1.0153 0.937831 3.65988e-19)
(1.16092 1.0892 0)
(1.15497 1.10648 5.08576e-21)
(1.1047 1.08578 1.79636e-19)
(1.0427 1.05759 -2.75455e-19)
(0.97286 1.02511 -3.48395e-20)
(0.893215 0.98803 0)
(0.802579 0.944426 1.05986e-19)
(0.698486 0.890876 -1.79723e-20)
(0.593233 0.829421 0)
(0.503029 0.765747 0)
(0.430022 0.700078 4.03932e-19)
(0.368682 0.632866 -1.94661e-19)
(0.309993 0.547647 -3.23007e-19)
(0.23751 0.410269 0)
(0.120742 0.224664 2.38595e-19)
(0.0131436 0.427701 -2.76165e-19)
(0.0412826 1.83813 -1.48598e-19)
(0.0722619 2.78389 -1.91088e-19)
(0.234735 0.219996 -1.73563e-19)
(1.00854 0.960758 -4.6574e-19)
(1.15105 1.11401 1.38545e-19)
(1.1443 1.13132 1.26513e-19)
(1.09419 1.11045 0)
(1.03212 1.08211 -2.03193e-19)
(0.962482 1.04962 -6.92939e-20)
(0.882447 1.01281 -2.71189e-21)
(0.791044 0.96988 1.5989e-20)
(0.68521 0.917621 3.40835e-19)
(0.576647 0.857969 4.2695e-19)
(0.481378 0.796231 3.32674e-19)
(0.401612 0.730212 4.01512e-19)
(0.331145 0.66034 -4.49931e-19)
(0.257424 0.572828 -4.82639e-19)
(0.159507 0.436105 0)
(0.0609753 0.812727 0)
(0.117868 2.51298 1.28106e-19)
(0.119887 3.17945 0)
(0.122629 3.3798 3.02936e-19)
(0.236961 0.225355 0)
(1.00252 0.982565 0)
(1.14117 1.13712 0)
(1.13364 1.15434 3.6294e-20)
(1.08369 1.13346 1.62291e-19)
(1.02162 1.10523 -1.62064e-19)
(0.952476 1.07299 -5.32349e-20)
(0.872097 1.03665 -1.76629e-21)
(0.780022 0.994653 1.13812e-19)
(0.672619 0.944122 -1.00906e-20)
(0.560943 0.886938 8.21865e-19)
(0.460776 0.828254 -3.84499e-20)
(0.373806 0.763616 4.72744e-20)
(0.295361 0.686988 6.44014e-20)
(0.201556 0.606191 2.72769e-22)
(0.123226 0.935214 1.80185e-21)
(0.161831 2.65551 -6.57659e-19)
(0.176645 3.27835 -2.48517e-19)
(0.161881 3.42472 1.23655e-19)
(0.145432 3.44935 -1.34117e-19)
(0.154569 0.182052 1.0088e-19)
(0.990727 1.00615 0)
(1.13104 1.15872 -2.75151e-19)
(1.12365 1.1761 -3.31469e-19)
(1.07395 1.15559 3.50938e-19)
(1.01209 1.12759 1.74755e-19)
(0.942741 1.09532 6.68208e-20)
(0.862263 1.05966 -1.77413e-20)
(0.769691 1.01887 -8.32559e-20)
(0.661037 0.970443 0)
(0.546604 0.916357 3.90303e-19)
(0.441896 0.861507 -2.62778e-19)
(0.347429 0.802575 0)
(0.262707 0.716327 5.85928e-20)
(0.178411 0.824352 1.39218e-19)
(0.177098 2.38231 -1.69928e-19)
(0.247023 3.31455 1.90889e-19)
(0.223045 3.44281 9.89935e-20)
(0.185483 3.46649 1.12457e-19)
(0.160454 3.47771 1.65668e-19)
(0.279232 0.262609 -1.86099e-19)
(0.974834 1.0147 0)
(1.11254 1.18279 2.89003e-19)
(1.10952 1.20804 3.53997e-19)
(1.05821 1.18803 -3.70271e-19)
(0.99596 1.16054 -1.97509e-19)
(0.92591 1.12967 -1.2197e-19)
(0.844977 1.09517 -9.68055e-22)
(0.751347 1.05649 5.97222e-20)
(0.640417 1.01186 2.544e-19)
(0.521684 0.96407 2.04146e-20)
(0.410026 0.917094 2.23289e-19)
(0.301212 0.87027 4.21754e-20)
(0.231889 0.976244 -5.55648e-20)
(0.252894 2.23414 -1.29289e-19)
(0.322314 3.31758 1.1337e-19)
(0.30802 3.47864 -1.18833e-19)
(0.268836 3.50237 -6.83144e-20)
(0.228703 3.53112 -4.12863e-20)
(0.17227 3.52365 -5.48904e-21)
(0.266599 0.258971 0)
(0.971962 1.03636 7.91739e-20)
(1.10458 1.20544 -5.82812e-20)
(1.09976 1.23067 -4.0507e-20)
(1.04842 1.21062 -2.47817e-19)
(0.986281 1.18335 1.95531e-19)
(0.915974 1.15263 8.68772e-20)
(0.835044 1.11891 -2.08455e-21)
(0.74123 1.08168 -5.05076e-20)
(0.629599 1.03984 -1.43398e-20)
(0.509117 0.996767 -6.55491e-19)
(0.394628 0.956097 3.17054e-20)
(0.288497 0.934275 -3.87752e-20)
(0.273084 1.42169 -4.94687e-20)
(0.358803 3.04331 1.81351e-20)
(0.389491 3.47275 9.12587e-22)
(0.344514 3.54064 1.15525e-19)
(0.304821 3.56557 3.7478e-20)
(0.252269 3.59024 2.76562e-20)
(0.187435 3.58554 -7.45424e-21)
(0.249791 0.256853 1.97263e-19)
(0.967357 1.06052 5.3698e-19)
(1.09606 1.23007 -1.67098e-19)
(1.08949 1.25472 -1.53872e-19)
(1.03813 1.23448 0)
(0.976183 1.20722 3.00861e-19)
(0.905923 1.17673 1.40732e-19)
(0.825277 1.14375 -3.29529e-21)
(0.731606 1.10803 -6.11927e-21)
(0.619789 1.06912 -1.91663e-19)
(0.498336 1.03101 -2.83505e-19)
(0.38284 0.997561 -2.48233e-19)
(0.292699 1.05158 -2.78948e-19)
(0.345221 2.06013 2.94859e-19)
(0.451179 3.36415 2.18932e-19)
(0.439023 3.53985 0)
(0.387184 3.58799 0)
(0.348332 3.63249 2.8913e-20)
(0.286489 3.69948 0)
(0.200045 3.66948 7.57735e-20)
(0.238416 0.257958 -2.91829e-19)
(0.960775 1.08563 -4.51293e-19)
(1.0861 1.25578 0)
(1.07796 1.27955 5.97393e-21)
(1.02667 1.2589 -2.50296e-19)
(0.965014 1.23152 4.57626e-19)
(0.895137 1.20125 9.93165e-20)
(0.814989 1.1689 -7.68737e-21)
(0.721714 1.1346 -5.67288e-21)
(0.6101 1.09855 7.33091e-21)
(0.488456 1.06551 0)
(0.374249 1.04153 0)
(0.319861 1.26132 -2.40821e-19)
(0.43568 2.73782 9.41087e-20)
(0.531307 3.48812 9.58274e-20)
(0.487282 3.57833 0)
(0.447183 3.63801 9.2027e-20)
(0.403042 3.71325 -1.71382e-19)
(0.355027 3.70765 -1.90554e-19)
(0.230947 3.69276 1.75932e-20)
(0.229901 0.26079 1.86155e-19)