/*--------------------------------*- C++ -*----------------------------------*\
  =========                 |
  \\      /  F ield         | OpenFOAM: The Open Source CFD Toolbox
   \\    /   O peration     | Website:  https://openfoam.org
    \\  /    A nd           | Version:  10
     \\/     M anipulation  |
\*---------------------------------------------------------------------------*/
FoamFile
{
    format      ascii;
    class       volScalarField;
    location    "64";
    object      p;
}
// * * * * * * * * * * * * * * * * * * * * * * * * * * * * * * * * * * * * * //

dimensions      [0 2 -2 0 0 0 0];

internalField   nonuniform List<scalar> 
2200
(
0.770858
0.749359
0.733455
0.71779
0.703184
0.690673
0.680329
0.672241
0.66656
0.663637
0.664164
0.668004
0.674356
0.682926
0.693614
0.706393
0.721191
0.737127
0.753174
0.774672
0.703276
0.700018
0.697096
0.692982
0.687526
0.68106
0.674452
0.668514
0.66403
0.661677
0.662178
0.665532
0.670737
0.677217
0.684215
0.690975
0.69664
0.700733
0.703579
0.706944
0.663337
0.663558
0.665621
0.66697
0.667367
0.666523
0.664555
0.661895
0.659374
0.657917
0.658499
0.66098
0.664297
0.667544
0.669892
0.670898
0.670636
0.669645
0.668009
0.667761
0.640838
0.64229
0.64489
0.647347
0.649796
0.651826
0.652995
0.653248
0.652905
0.652651
0.653338
0.654752
0.655975
0.656389
0.65572
0.654053
0.6519
0.649722
0.647114
0.64571
0.626469
0.628442
0.631263
0.634105
0.636973
0.639816
0.64229
0.644171
0.645428
0.646275
0.647056
0.647572
0.647367
0.64629
0.644454
0.642097
0.639554
0.636826
0.63403
0.632108
0.619087
0.620686
0.622894
0.625432
0.628112
0.630797
0.633412
0.635861
0.637916
0.639476
0.640396
0.640467
0.639677
0.638193
0.636324
0.634206
0.631896
0.629559
0.627462
0.625887
0.615629
0.616651
0.617925
0.6198
0.621957
0.62414
0.626359
0.628688
0.630952
0.63285
0.633948
0.634029
0.633305
0.632144
0.630778
0.629241
0.627558
0.625991
0.624882
0.623866
0.61293
0.6136
0.614237
0.615549
0.617178
0.618888
0.620671
0.622634
0.624756
0.626801
0.628117
0.628499
0.628232
0.627653
0.626913
0.625996
0.624962
0.624051
0.623609
0.622932
0.609632
0.610077
0.610478
0.611485
0.612762
0.614168
0.6157
0.617414
0.619328
0.62138
0.622993
0.623856
0.624189
0.624194
0.623955
0.623518
0.622967
0.622452
0.622272
0.621806
0.60552
0.605816
0.606178
0.607056
0.608183
0.609478
0.610944
0.612602
0.614482
0.616603
0.618581
0.620009
0.620867
0.621308
0.621441
0.621346
0.621079
0.620773
0.620655
0.62033
0.600726
0.600926
0.601302
0.602143
0.603256
0.604592
0.606157
0.607952
0.609995
0.612349
0.614753
0.61669
0.618001
0.6188
0.619206
0.619342
0.619263
0.619113
0.619017
0.618777
0.595448
0.595592
0.595967
0.596785
0.597945
0.599401
0.601149
0.603194
0.605568
0.608341
0.611295
0.613756
0.615477
0.616585
0.617236
0.617563
0.617692
0.617686
0.617624
0.617432
0.589731
0.589842
0.590225
0.591053
0.592292
0.593909
0.595899
0.598288
0.601142
0.604506
0.608089
0.611125
0.613282
0.614727
0.615658
0.616231
0.616571
0.616704
0.616687
0.616516
0.583582
0.583648
0.584033
0.584896
0.586253
0.588063
0.590337
0.593126
0.596547
0.600673
0.605049
0.608733
0.611397
0.613279
0.614593
0.615471
0.616055
0.616337
0.61636
0.616196
0.576904
0.576941
0.577368
0.578288
0.5798
0.581838
0.584422
0.587682
0.591764
0.596741
0.602052
0.606574
0.609908
0.612343
0.614124
0.615384
0.616227
0.616661
0.616731
0.616568
0.569621
0.569586
0.570016
0.571029
0.572738
0.57502
0.577965
0.581752
0.586591
0.592574
0.599048
0.604616
0.60882
0.611963
0.614319
0.616019
0.617159
0.61776
0.617881
0.617712
0.561369
0.561361
0.561805
0.562918
0.564891
0.567511
0.570944
0.575413
0.581179
0.588399
0.596216
0.603001
0.608251
0.61222
0.615233
0.617437
0.618919
0.619695
0.619873
0.619693
0.552035
0.552055
0.552512
0.553775
0.556045
0.559108
0.563171
0.568475
0.575329
0.58398
0.593477
0.601789
0.608233
0.613199
0.616973
0.619732
0.621613
0.622577
0.622806
0.622606
0.541192
0.541166
0.541726
0.543209
0.545842
0.549482
0.554363
0.560752
0.569017
0.579452
0.59094
0.600997
0.608867
0.614941
0.619543
0.622983
0.625295
0.626445
0.626724
0.626501
0.528315
0.528247
0.528925
0.530777
0.533985
0.538427
0.544391
0.552198
0.562284
0.57495
0.588738
0.600845
0.610262
0.617556
0.623138
0.627287
0.630076
0.63142
0.63173
0.631478
0.513141
0.513041
0.513812
0.516018
0.519947
0.525464
0.532884
0.54258
0.555007
0.570403
0.586935
0.601246
0.612396
0.621053
0.627691
0.632687
0.635976
0.637492
0.637822
0.637538
0.494572
0.494491
0.495514
0.498311
0.503261
0.510257
0.519668
0.531884
0.547311
0.565961
0.585611
0.602438
0.615505
0.625601
0.633414
0.639245
0.643011
0.644684
0.645004
0.644688
0.471731
0.47158
0.472895
0.476508
0.482958
0.492101
0.504241
0.519733
0.538819
0.561364
0.58458
0.604263
0.61938
0.631094
0.640146
0.646888
0.651126
0.652908
0.653178
0.652834
0.442278
0.442309
0.44441
0.449474
0.458217
0.470495
0.48648
0.506288
0.529889
0.556958
0.584176
0.606825
0.624154
0.637557
0.647931
0.65555
0.66014
0.661985
0.662174
0.661806
0.403347
0.403592
0.407147
0.415168
0.428002
0.445287
0.466604
0.491817
0.520744
0.552918
0.58449
0.610375
0.630007
0.645099
0.656701
0.665067
0.669883
0.67165
0.671728
0.671355
0.351666
0.352094
0.35913
0.372424
0.391744
0.416247
0.444598
0.476459
0.511586
0.549462
0.58565
0.614763
0.636666
0.653483
0.666314
0.675249
0.679918
0.681327
0.681251
0.680945
0.283879
0.286643
0.301817
0.323416
0.351652
0.385061
0.421578
0.460936
0.50299
0.54717
0.588479
0.621289
0.646028
0.664869
0.679008
0.68846
0.69284
0.693702
0.693615
0.693412
0.206774
0.216419
0.241782
0.273152
0.311584
0.354161
0.39895
0.446062
0.495396
0.546298
0.593221
0.630449
0.658171
0.679197
0.694902
0.704755
0.708744
0.709107
0.709133
0.709028
0.138085
0.152776
0.184492
0.224912
0.273035
0.324508
0.377417
0.432248
0.488823
0.546502
0.599109
0.640239
0.670762
0.693878
0.710623
0.720656
0.724396
0.72448
0.724604
0.72458
0.0857922
0.0991193
0.13581
0.182358
0.237918
0.296988
0.357318
0.419458
0.482997
0.547013
0.604815
0.649779
0.683263
0.708183
0.726155
0.736734
0.740213
0.74057
0.740844
0.740816
0.0425026
0.0550869
0.0956508
0.146129
0.207145
0.272195
0.338995
0.407618
0.47736
0.547191
0.610119
0.659109
0.695132
0.721967
0.74126
0.752263
0.756465
0.75719
0.757216
0.757279
0.00568713
0.0184258
0.0616584
0.114994
0.180383
0.250304
0.322529
0.396694
0.472065
0.547748
0.615949
0.668393
0.706737
0.735214
0.755865
0.767557
0.77197
0.772771
0.772814
0.772879
-0.0264489
-0.0134954
0.0319373
0.0878784
0.15689
0.230782
0.307622
0.386783
0.467516
0.548686
0.621356
0.676841
0.717586
0.747643
0.769461
0.781521
0.78632
0.787203
0.787283
0.787329
-0.0548473
-0.0419566
0.00514743
0.0635236
0.135728
0.213139
0.294114
0.377764
0.463247
0.549056
0.625775
0.684643
0.727531
0.758781
0.781338
0.794115
0.799133
0.800176
0.800259
0.800295
-0.0807772
-0.0678757
-0.0194572
0.0412837
0.116329
0.196848
0.281458
0.368971
0.458561
0.548742
0.629737
0.691714
0.736346
0.768945
0.791865
0.805098
0.810495
0.811644
0.811761
0.811774
-0.10471
-0.091638
-0.0424718
0.0205373
0.0980937
0.181396
0.269168
0.360035
0.453406
0.547936
0.63309
0.697896
0.744331
0.777883
0.801214
0.814979
0.820454
0.821735
0.821847
0.821835
-0.12728
-0.113888
-0.0640329
0.000970033
0.0806556
0.166382
0.256922
0.350848
0.447792
0.546359
0.635484
0.703305
0.751611
0.786226
0.809822
0.823608
0.829262
0.830554
0.830665
0.830624
-0.148528
-0.134952
-0.0844433
-0.0177979
0.063678
0.151583
0.244649
0.341404
0.441641
0.543963
0.637126
0.708163
0.758417
0.793868
0.817782
0.831405
0.836908
0.838234
0.838326
0.838242
-0.168693
-0.155094
-0.103899
-0.0358978
0.0471005
0.136951
0.232306
0.331656
0.434906
0.540754
0.637928
0.712375
0.764806
0.80147
0.825334
0.838358
0.84375
0.844935
0.844941
0.844843
-0.188152
-0.17427
-0.122587
-0.053462
0.0308573
0.12245
0.219869
0.32154
0.427472
0.536611
0.63785
0.716006
0.771175
0.808968
0.832694
0.845144
0.84979
0.850769
0.850754
0.850673
-0.207276
-0.192765
-0.140648
-0.0705134
0.0149682
0.108078
0.207282
0.310987
0.419348
0.531646
0.63693
0.719018
0.777424
0.817038
0.840589
0.851834
0.855505
0.855878
0.855914
0.855906
-0.225949
-0.210701
-0.158187
-0.0871206
-0.000620538
0.0937882
0.194524
0.300026
0.410625
0.525866
0.634959
0.721339
0.783549
0.825617
0.84953
0.859553
0.861126
0.860599
0.860465
0.86031
-0.244166
-0.228248
-0.175267
-0.103304
-0.0159126
0.0795958
0.181628
0.288727
0.401382
0.519283
0.631939
0.722835
0.789317
0.834993
0.860362
0.868814
0.867676
0.865807
0.865545
0.866524
-0.261743
-0.245336
-0.191877
-0.119085
-0.0309159
0.0655243
0.168665
0.277184
0.391687
0.51192
0.627769
0.723222
0.794676
0.84493
0.873324
0.881395
0.877531
0.870619
0.865807
0.864876
-0.278743
-0.261953
-0.207983
-0.134428
-0.0455774
0.0516555
0.155734
0.265472
0.381564
0.503809
0.622469
0.722243
0.798927
0.855175
0.888548
0.898381
0.894416
0.883616
0.883727
0.887878
-0.295095
-0.277966
-0.223514
-0.149288
-0.0598427
0.0380596
0.142914
0.253657
0.371081
0.495056
0.616042
0.719566
0.801761
0.864648
0.904962
0.919951
0.916103
0.886812
0.848906
0.815903
-0.310805
-0.29342
-0.238498
-0.163706
-0.0737809
0.0246409
0.130073
0.24157
0.360022
0.485406
0.608265
0.714884
0.80204
0.872471
0.921972
0.945167
0.955054
0.929784
0.947276
1.00895
-0.325789
-0.308292
-0.253003
-0.177821
-0.087572
0.0111694
0.116929
0.228867
0.347961
0.474309
0.598505
0.707315
0.798694
0.875588
0.931325
0.959385
0.961121
0.933369
0.889365
0.906392
-0.340056
-0.322613
-0.266999
-0.19157
-0.101137
-0.00226157
0.103596
0.215683
0.335019
0.461791
0.586719
0.696696
0.78958
0.869405
0.92661
0.955174
0.935288
0.876556
0.810557
0.797583
-0.353565
-0.336317
-0.280469
-0.204966
-0.114488
-0.0156627
0.0900797
0.202035
0.32121
0.447854
0.572767
0.682474
0.774306
0.850463
0.90258
0.904645
0.865233
0.784368
0.707879
0.682717
-0.366374
-0.349457
-0.29345
-0.218028
-0.127649
-0.0290465
0.0763836
0.18794
0.30657
0.432526
0.556566
0.664521
0.751481
0.816063
0.843441
0.826761
0.763056
0.658722
0.569592
0.545525
-0.378907
-0.362366
-0.306304
-0.231125
-0.140971
-0.0427225
0.0622411
0.173172
0.290922
0.415632
0.53783
0.64209
0.72181
0.770228
0.763735
0.725968
0.610099
0.485048
0.375854
0.347003
-0.392037
-0.375902
-0.319744
-0.244848
-0.154993
-0.0571521
0.0472574
0.157408
0.274013
0.396967
0.516321
0.614938
0.687341
0.710424
0.676263
0.584675
0.42591
0.271128
0.139993
0.110918
-0.406257
-0.390335
-0.334031
-0.259442
-0.169905
-0.0724643
0.0313494
0.140605
0.255843
0.376543
0.491979
0.583871
0.645455
0.639427
0.586722
0.433924
0.232512
0.0186075
-0.16247
-0.212248
-0.421715
-0.405907
-0.349284
-0.274904
-0.18566
-0.0886225
0.0145475
0.122801
0.236461
0.354437
0.464766
0.550301
0.596583
0.558753
0.470527
0.281162
0.0495109
-0.239592
-0.560454
-0.709817
-0.438456
-0.422547
-0.365552
-0.291357
-0.20235
-0.105701
-0.00322025
0.103924
0.215817
0.330687
0.43509
0.513853
0.54184
0.473673
0.335919
0.130159
-0.103374
-0.446698
-1.03144
-1.60218
-0.456604
-0.440543
-0.382996
-0.308831
-0.219974
-0.123695
-0.0219247
0.0840585
0.194071
0.305675
0.404035
0.474492
0.483275
0.398938
0.206519
-0.026655
-0.228654
-0.462207
-1.01372
-2.5171
-0.476147
-0.459743
-0.401622
-0.327499
-0.238726
-0.142811
-0.0418065
0.0629117
0.17089
0.279031
0.371294
0.431804
0.419793
0.340281
0.113228
-0.123765
-0.271194
-0.308017
-0.296583
-0.681445
-0.49705
-0.48057
-0.421728
-0.347609
-0.258975
-0.163545
-0.0634904
0.0397335
0.145345
0.249427
0.335948
0.385785
0.357581
0.29003
0.0636891
-0.137668
-0.248056
-0.255946
-0.202862
-0.242837
-0.519172
-0.502573
-0.443159
-0.369283
-0.280848
-0.18603
-0.0871376
0.0143218
0.11721
0.216706
0.298046
0.337834
0.303006
0.235775
0.031493
-0.12799
-0.210098
-0.218152
-0.266009
-0.26997
-0.542482
-0.526036
-0.466018
-0.392454
-0.3043
-0.2103
-0.112805
-0.0133586
0.086482
0.181274
0.257549
0.287694
0.25559
0.174629
0.00333249
-0.118673
-0.188651
-0.165923
-0.18625
-0.187885
-0.566676
-0.549974
-0.489946
-0.417095
-0.329235
-0.236268
-0.140409
-0.0432308
0.0532678
0.143438
0.214659
0.234188
0.214551
0.106696
-0.0320309
-0.113883
-0.152429
-0.200895
-0.17502
-0.183661
-0.591709
-0.574605
-0.515023
-0.442952
-0.355376
-0.263814
-0.1698
-0.0750554
0.0177365
0.103557
0.170487
0.179514
0.171558
0.0460095
-0.0687479
-0.132306
-0.109257
-0.169109
-0.149872
-0.154829
-0.616375
-0.59906
-0.540903
-0.469758
-0.382444
-0.292673
-0.200665
-0.108537
-0.0199357
0.0619315
0.126072
0.127508
0.119743
-0.00507835
-0.0955118
-0.146374
-0.134605
-0.149646
-0.155057
-0.153254
-0.640488
-0.623313
-0.567099
-0.496741
-0.410033
-0.322544
-0.232653
-0.143263
-0.0591876
0.0189875
0.0818057
0.0795763
0.0622211
-0.0475178
-0.108789
-0.139884
-0.179067
-0.150327
-0.15614
-0.150509
-0.662805
-0.646367
-0.592206
-0.52308
-0.437918
-0.352842
-0.265206
-0.178731
-0.0992018
-0.0249953
0.0374041
0.036033
0.00661581
-0.0826087
-0.122298
-0.114716
-0.187846
-0.130736
-0.14582
-0.138063
-0.68291
-0.667579
-0.615509
-0.547626
-0.465575
-0.382839
-0.297695
-0.214314
-0.138958
-0.0694683
-0.00750546
-0.00437284
-0.0387102
-0.10165
-0.130019
-0.0894434
-0.134655
-0.117551
-0.123684
-0.120559
-0.698987
-0.685285
-0.635854
-0.570115
-0.491964
-0.411557
-0.329329
-0.249281
-0.177603
-0.113704
-0.052918
-0.0422401
-0.0703721
-0.102863
-0.120486
-0.097331
-0.111522
-0.115284
-0.11628
-0.116497
-0.710367
-0.698821
-0.652711
-0.589515
-0.515361
-0.438009
-0.359079
-0.282674
-0.214285
-0.156396
-0.0972866
-0.0776227
-0.0939501
-0.0989676
-0.111284
-0.123634
-0.115345
-0.119193
-0.117337
-0.11826
-0.715509
-0.706392
-0.664474
-0.604859
-0.534769
-0.461101
-0.386072
-0.313575
-0.248306
-0.195975
-0.138368
-0.111908
-0.123024
-0.0999149
-0.104759
-0.141282
-0.118533
-0.126093
-0.119349
-0.121072
-0.714589
-0.707605
-0.670053
-0.614318
-0.548588
-0.479435
-0.408843
-0.340525
-0.278685
-0.230372
-0.174725
-0.145277
-0.147521
-0.11708
-0.0953882
-0.11708
-0.106329
-0.126634
-0.124074
-0.12722
-0.70662
-0.69932
-0.666831
-0.616847
-0.556482
-0.492295
-0.42658
-0.362386
-0.30385
-0.258181
-0.20538
-0.175775
-0.165434
-0.124942
-0.0704076
-0.0672165
-0.0837835
-0.0986259
-0.104266
-0.106997
-0.686037
-0.677654
-0.653336
-0.610725
-0.556672
-0.498214
-0.437742
-0.377341
-0.321492
-0.277104
-0.227538
-0.200336
-0.196105
-0.231634
-0.293067
-0.361393
-0.371104
-0.349418
-0.327548
-0.310146
-0.643318
-0.635384
-0.626734
-0.596451
-0.550687
-0.498357
-0.442729
-0.385068
-0.329844
-0.284823
-0.236399
-0.202813
-0.276982
-0.408647
-0.63565
-0.796222
-0.807872
-0.783753
-0.734673
-0.684606
-0.602296
-0.599429
-0.598405
-0.574977
-0.538424
-0.492677
-0.440892
-0.38477
-0.32744
-0.277958
-0.229098
-0.162273
-0.1769
-0.249591
-0.359813
-0.384793
-0.314822
-0.24877
-0.186203
-0.143149
-0.579621
-0.581311
-0.571161
-0.557025
-0.527771
-0.485895
-0.435356
-0.378994
-0.315739
-0.252629
-0.193012
-0.0750695
0.0732168
0.299993
0.519194
0.71753
0.864999
0.952951
0.995408
1.03532
-0.548355
-0.548049
-0.544797
-0.543389
-0.518574
-0.479215
-0.428498
-0.369614
-0.300151
-0.21982
-0.135437
0.000825294
0.219199
0.546552
0.869846
1.13727
1.32301
1.4356
1.492
1.5099
-0.536196
-0.534307
-0.537037
-0.530269
-0.512708
-0.475932
-0.423351
-0.360096
-0.28539
-0.19321
-0.0911966
0.0362006
0.27232
0.593395
0.910985
1.17941
1.37695
1.49513
1.54739
1.56282
-0.524462
-0.523181
-0.526462
-0.519241
-0.511476
-0.474451
-0.420817
-0.354692
-0.27578
-0.177746
-0.069563
0.0348679
0.253882
0.531024
0.804526
1.04146
1.22535
1.33581
1.38422
1.39774
-0.512253
-0.512376
-0.51313
-0.512567
-0.509308
-0.471863
-0.419155
-0.352703
-0.272903
-0.175205
-0.0703288
0.0102605
0.19357
0.427307
0.649504
0.84083
0.993752
1.08641
1.12651
1.13659
-0.499863
-0.50049
-0.498797
-0.501367
-0.49687
-0.470426
-0.42195
-0.355137
-0.276224
-0.183315
-0.0843371
-0.0214877
0.121744
0.31658
0.493397
0.639946
0.757134
0.829326
0.860012
0.867732
-0.490746
-0.489687
-0.484798
-0.48372
-0.477543
-0.466241
-0.424995
-0.359058
-0.282774
-0.197405
-0.104031
-0.051476
0.053387
0.212756
0.351805
0.461912
0.548491
0.602694
0.624963
0.629475
-0.502212
-0.498834
-0.493628
-0.490561
-0.487645
-0.48041
-0.429447
-0.361589
-0.287177
-0.210868
-0.123642
-0.0761982
-0.00505091
0.122923
0.23133
0.313503
0.376521
0.416473
0.431766
0.436696
-0.537845
-0.536813
-0.538121
-0.544641
-0.543313
-0.515993
-0.441452
-0.3646
-0.287915
-0.219408
-0.139701
-0.0948721
-0.0492529
0.0512299
0.133813
0.194793
0.242195
0.272736
0.28405
0.287644
-0.5798
-0.584291
-0.596422
-0.605592
-0.597613
-0.543434
-0.449072
-0.36406
-0.28316
-0.220808
-0.14986
-0.107738
-0.0774435
0.00124851
0.0621772
0.106279
0.142548
0.165239
0.17447
0.176955
-0.542293
-0.546885
-0.560706
-0.573621
-0.566253
-0.510257
-0.426604
-0.345191
-0.268808
-0.212121
-0.15219
-0.11455
-0.0916193
-0.0302975
0.0134986
0.0449748
0.0697762
0.0846667
0.0912269
0.0928828
-0.399851
-0.407456
-0.419378
-0.427485
-0.424462
-0.394424
-0.346862
-0.294374
-0.237782
-0.190661
-0.14621
-0.11504
-0.094914
-0.0493868
-0.018518
0.00287131
0.0182094
0.0268567
0.0299906
0.0300915
-0.232234
-0.235824
-0.241181
-0.248808
-0.252733
-0.247714
-0.234977
-0.216174
-0.187527
-0.158952
-0.13132
-0.10919
-0.0911682
-0.0601724
-0.0397296
-0.0262481
-0.0175917
-0.0138297
-0.0133463
-0.0141813
-0.0922209
-0.0940951
-0.0981496
-0.105676
-0.115277
-0.124784
-0.132855
-0.136898
-0.131271
-0.122425
-0.10917
-0.096333
-0.0830962
-0.0644475
-0.0523644
-0.0448897
-0.041218
-0.040716
-0.0419568
-0.043228
0.000854958
-0.000179376
-0.00285765
-0.0106075
-0.0244997
-0.0418836
-0.0590601
-0.073668
-0.0814659
-0.0866151
-0.0834222
-0.0780026
-0.0722348
-0.062708
-0.0572102
-0.0550508
-0.0550816
-0.0566711
-0.058662
-0.0600292
0.0494689
0.0485898
0.0463875
0.0390385
0.0243111
0.00457819
-0.0152119
-0.032896
-0.0455971
-0.056801
-0.059384
-0.0590682
-0.0597323
-0.0568068
-0.0564051
-0.0579785
-0.0604838
-0.0633798
-0.0655754
-0.0668878
0.0681201
0.067515
0.0657273
0.0594358
0.0463621
0.0279854
0.00862113
-0.00957902
-0.0236884
-0.0360452
-0.0404152
-0.0437843
-0.0477781
-0.0487962
-0.0520325
-0.0559376
-0.0596316
-0.0628762
-0.0649445
-0.0661384
0.0701339
0.0696966
0.0683085
0.0634077
0.0530854
0.0380238
0.021065
0.0037583
-0.0103757
-0.0227404
-0.0274576
-0.0323208
-0.0373163
-0.0408751
-0.0456842
-0.0504249
-0.0543555
-0.0573629
-0.0591146
-0.0601655
0.0643722
0.0640745
0.0630431
0.0594149
0.0517068
0.0402514
0.0266803
0.0116738
-0.00127901
-0.0135182
-0.018677
-0.0234238
-0.0286087
-0.0331376
-0.0384378
-0.043146
-0.0467769
-0.0493725
-0.0507095
-0.0516067
0.0554663
0.0552811
0.054542
0.0519651
0.0464167
0.0379834
0.0276922
0.0156976
0.0050789
-0.00639924
-0.0119926
-0.0164113
-0.0213036
-0.0257205
-0.0308091
-0.0350843
-0.0382903
-0.040522
-0.0414662
-0.0422058
0.0458628
0.0457606
0.0452385
0.043451
0.0395657
0.0335269
0.0259225
0.0166864
0.00866689
-0.00122451
-0.0065971
-0.0103279
-0.0146635
-0.0188456
-0.0234912
-0.0272276
-0.0299767
-0.0318532
-0.0325253
-0.0331396
0.0366755
0.036636
0.036286
0.0351056
0.0324399
0.0282038
0.0227236
0.0157473
0.00997754
0.00208325
-0.00235157
-0.00541072
-0.00908915
-0.0128289
-0.0169309
-0.0201526
-0.0224691
-0.0240449
-0.0245318
-0.0250465
0.0282823
0.0282659
0.0280353
0.0272802
0.0255
0.0225757
0.0187115
0.0135228
0.00961557
0.0036659
0.000631878
-0.00175621
-0.00496775
-0.00824823
-0.0117233
-0.0144086
-0.0163371
-0.0176618
-0.0180664
-0.0184799
0.0207208
0.0207179
0.0205495
0.0200846
0.0189325
0.0170033
0.0143868
0.0105668
0.0080874
0.00374861
0.00200775
0.000566074
-0.00208013
-0.00484004
-0.00776747
-0.00998753
-0.0115292
-0.0125398
-0.0127986
-0.0131286
0.0140059
0.0140003
0.0139056
0.0136598
0.0129815
0.0118145
0.0102508
0.0075913
0.00621199
0.0030101
0.00211111
0.001441
-0.000516637
-0.00255886
-0.00492229
-0.00657556
-0.00765767
-0.00832529
-0.00853308
-0.00883341
0.00794206
0.00793357
0.00791466
0.00785737
0.00756562
0.00696848
0.00626466
0.004563
0.0040608
0.00185517
0.00141912
0.00139191
3.10392e-05
-0.00106814
-0.00289293
-0.00404835
-0.00472789
-0.00518928
-0.00521668
-0.00541568
0.00256745
0.00259329
0.00264181
0.00270298
0.0026854
0.00246456
0.00233753
0.00143127
0.00157102
0.000502844
0.000535736
0.00104236
0.00014651
-1.51425e-05
-0.0013869
-0.00231714
-0.00313014
-0.00378066
-0.00358692
-0.00358625
-1.07599
-0.239951
0.0299692
0.304772
0.484327
0.637878
0.76052
0.88576
1.02492
1.10947
-0.0996191
0.305205
0.31995
0.507056
0.628668
0.737772
0.831327
0.914941
0.9418
0.900377
0.273762
0.486169
0.51955
0.655166
0.739355
0.817731
0.882426
0.931057
0.932837
0.947283
0.500819
0.642216
0.676683
0.776977
0.833421
0.889915
0.934186
0.966237
0.975152
0.998958
0.676847
0.777002
0.806674
0.873056
0.917378
0.957633
0.989432
1.01357
1.02325
1.05493
0.818806
0.886887
0.917047
0.959319
0.995112
1.02491
1.04899
1.0697
1.08373
1.1121
0.937113
0.987271
1.01268
1.04036
1.06777
1.09139
1.11124
1.13047
1.14529
1.17186
1.04036
1.07716
1.09811
1.11861
1.13926
1.15856
1.17592
1.19402
1.20888
1.23256
1.13403
1.16303
1.1793
1.19449
1.21053
1.22655
1.24209
1.25898
1.2726
1.29493
1.22212
1.24253
1.25734
1.27048
1.28403
1.29778
1.31127
1.32586
1.3374
1.35704
1.30748
1.32324
1.33705
1.34886
1.36076
1.3724
1.38353
1.39521
1.40288
1.41968
1.39268
1.40522
1.41893
1.43067
1.44131
1.4511
1.45992
1.46819
1.47174
1.48298
1.48142
1.49225
1.50572
1.51524
1.52281
1.5301
1.53728
1.54375
1.54486
1.55221
1.57982
1.58443
1.59262
1.59736
1.60075
1.60523
1.61123
1.61888
1.62279
1.63266
1.69311
1.68
1.67272
1.667
1.66428
1.66562
1.67194
1.6843
1.69913
1.7288
1.81509
1.75905
1.72802
1.71083
1.70261
1.70254
1.7114
1.73101
1.7628
1.83207
)
;

boundaryField
{
    wall-4
    {
        type            zeroGradient;
    }
    pressure-outlet-7
    {
        type            fixedValue;
        value           uniform 0;
    }
    velocity-inlet-6
    {
        type            zeroGradient;
    }
    velocity-inlet-5
    {
        type            zeroGradient;
    }
    frontAndBackPlanes
    {
        type            empty;
    }
}


// ************************************************************************* //
