/*--------------------------------*- C++ -*----------------------------------*\
  =========                 |
  \\      /  F ield         | OpenFOAM: The Open Source CFD Toolbox
   \\    /   O peration     | Website:  https://openfoam.org
    \\  /    A nd           | Version:  10
     \\/     M anipulation  |
\*---------------------------------------------------------------------------*/
FoamFile
{
    format      ascii;
    class       surfaceScalarField;
    location    "64";
    object      phi;
}
// * * * * * * * * * * * * * * * * * * * * * * * * * * * * * * * * * * * * * //

dimensions      [0 3 -1 0 0 0 0];

internalField   nonuniform List<scalar> 
4262
(
0.10713
0.470858
0.0955596
0.705157
0.0693658
0.858497
0.0473446
1.02078
0.0309629
1.2149
0.0197548
1.44943
0.0123491
1.73327
0.00713961
2.07625
0.003151
2.48923
-0.000620665
2.98606
-0.00425834
2.98593
-0.00803951
2.48902
-0.013075
2.07607
-0.0202119
1.733
-0.0311317
1.44914
-0.0471682
1.21455
-0.0688988
1.02049
-0.0951742
0.858578
-0.107059
0.705471
0.470929
0.112866
0.357992
0.135268
0.682754
0.120367
0.873398
0.0978045
1.04335
0.0745361
1.23817
0.0527965
1.47117
0.0343809
1.75168
0.02014
2.09049
0.00886678
2.50051
-0.00104071
2.99597
-0.0111247
2.99601
-0.02231
2.50021
-0.0363724
2.09013
-0.054724
1.75135
-0.0765851
1.471
-0.100367
1.23833
-0.12358
1.04371
-0.137053
0.872052
-0.113575
0.681992
0.357354
0.0920492
0.265943
0.124976
0.649828
0.121108
0.877266
0.104841
1.05961
0.0861944
1.25681
0.067049
1.49031
0.0480718
1.77066
0.0300073
2.10855
0.0134325
2.51708
-0.00265434
3.01206
-0.0183757
3.01174
-0.0343319
2.51617
-0.051819
2.10762
-0.0701882
1.76972
-0.0884784
1.48929
-0.105647
1.2555
-0.119719
1.05778
-0.12519
0.877522
-0.0923387
0.649141
0.265016
0.063976
0.201967
0.104791
0.609013
0.106558
0.8755
0.0951647
1.07101
0.0812339
1.27074
0.0664966
1.50505
0.0503741
1.78678
0.0331898
2.12574
0.0155047
2.53477
-0.0030738
3.03064
-0.0216082
3.03027
-0.0390512
2.53361
-0.0555361
2.12411
-0.0707959
1.78498
-0.0846429
1.50314
-0.0983557
1.26922
-0.110096
1.06952
-0.107082
0.874508
-0.0649238
0.606984
0.200092
0.0374722
0.164494
0.0806996
0.565785
0.0909679
0.865232
0.0837556
1.07822
0.0711386
1.28336
0.0592708
1.51692
0.0462302
1.79983
0.0312716
2.14069
0.014283
2.55175
-0.00506527
3.04998
-0.0238315
3.04904
-0.0396293
2.54941
-0.0534694
2.13795
-0.0655396
1.79705
-0.0767627
1.51436
-0.0887047
1.28116
-0.0951017
1.07592
-0.0832705
0.862676
-0.0384263
0.562139
0.161666
0.0194596
0.145035
0.0571831
0.528062
0.0725623
0.849852
0.0704475
1.08033
0.0616253
1.29218
0.0507263
1.52782
0.0395545
1.811
0.0269064
2.15334
0.011862
2.5668
-0.00569688
3.06754
-0.0229837
3.06632
-0.037397
2.56382
-0.0489597
2.14951
-0.0589326
1.80702
-0.0688201
1.52425
-0.0764508
1.28879
-0.0772307
1.0767
-0.0600554
0.845501
-0.0203894
0.522473
0.141276
0.0106034
0.134431
0.0422904
0.496375
0.0583646
0.833778
0.0586127
1.08009
0.052435
1.29836
0.0430206
1.53723
0.032573
1.82144
0.021153
2.16476
0.0077804
2.58017
-0.00827689
3.0836
-0.0237397
3.08179
-0.0355176
2.5756
-0.0452262
2.15922
-0.0540566
1.81585
-0.0619433
1.53214
-0.0664758
1.29332
-0.0644919
1.07471
-0.0460214
0.827031
-0.0117405
0.488192
0.129536
0.00655368
0.127878
0.0328923
0.470036
0.0491293
0.817541
0.0506267
1.07859
0.0455201
1.30347
0.037133
1.54562
0.027479
1.8311
0.0166215
2.17562
0.00461441
2.59218
-0.00931216
3.09753
-0.0227334
3.09521
-0.0336863
2.58655
-0.0429756
2.16851
-0.0506287
1.82351
-0.057089
1.5386
-0.0602246
1.29646
-0.0565452
1.07103
-0.0373464
0.807832
-0.00790696
0.458753
0.121629
0.00469547
0.123182
0.0264916
0.44824
0.0422365
0.801796
0.0442917
1.07653
0.0396246
1.30813
0.0319673
1.55328
0.0227944
1.84027
0.012085
2.18633
0.000186942
2.60408
-0.0129065
3.11062
-0.0248601
3.10716
-0.0344826
2.59617
-0.0425733
2.1766
-0.0494373
1.83037
-0.0547828
1.54394
-0.0569803
1.29865
-0.0518519
1.0659
-0.0320871
0.788067
-0.00638837
0.433054
0.11524
0.00372822
0.119454
0.0216296
0.430339
0.0367337
0.786692
0.0394332
1.07383
0.0350006
1.31257
0.0275484
1.56073
0.018714
1.84911
0.00873164
2.19631
-0.00241776
2.61523
-0.0146512
3.12285
-0.0261748
3.11868
-0.0356703
2.60567
-0.043191
2.18412
-0.0490743
1.83625
-0.0537211
1.54859
-0.0548998
1.29983
-0.0484678
1.05947
-0.0284292
0.768028
-0.00581105
0.410436
0.109429
0.00302879
0.116425
0.0174636
0.415904
0.031342
0.772814
0.0342544
1.07092
0.0300553
1.31677
0.0228596
1.56792
0.0142194
1.85775
0.0040792
2.20645
-0.00747179
2.62678
-0.0196713
3.13505
-0.0303013
3.12931
-0.0381991
2.61357
-0.0446257
2.19054
-0.0499922
1.84162
-0.0537817
1.55238
-0.0538527
1.2999
-0.0459669
1.05159
-0.0257411
0.747803
-0.00555151
0.390246
0.103878
0.00233763
0.114088
0.0137265
0.404515
0.0262229
0.760317
0.0292703
1.06787
0.0252275
1.32081
0.0180966
1.57505
0.00955163
1.86629
-8.2142e-05
2.21609
-0.0107154
2.63741
-0.0225427
3.14688
-0.0332625
3.14003
-0.0415164
2.62182
-0.0473817
2.19641
-0.0515843
1.84582
-0.05424
1.55503
-0.0535588
1.29922
-0.0442461
1.04227
-0.0238738
0.727431
-0.0054361
0.371809
0.0984418
0.00167793
0.11241
0.0104724
0.39572
0.0212183
0.749571
0.0237462
1.06535
0.0195494
1.32501
0.012402
1.5822
0.00372638
1.87497
-0.00629783
2.22611
-0.0176225
2.64873
-0.0296407
3.1589
-0.0394083
3.1498
-0.045754
2.62817
-0.0504239
2.20108
-0.054016
1.84942
-0.0557363
1.55675
-0.0540562
1.29754
-0.0433922
1.03161
-0.0226941
0.706732
-0.00538174
0.354496
0.0930601
0.000814101
0.111596
0.00700686
0.389528
0.0160877
0.740491
0.0182901
1.06314
0.0139191
1.32938
0.00657691
1.58954
-0.00221069
1.88375
-0.0120873
2.23599
-0.0229346
2.65958
-0.0343257
3.17029
-0.044136
3.15961
-0.0508115
2.63484
-0.0547344
2.205
-0.0572853
1.85197
-0.0578927
1.55736
-0.0551965
1.29485
-0.0431384
1.01955
-0.0220027
0.685597
-0.00535922
0.337853
0.0877009
0.000122365
0.111473
0.00411483
0.385535
0.010783
0.733822
0.0116924
1.06223
0.00665365
1.33442
-0.00125759
1.59746
-0.0107671
1.89326
-0.0213984
2.24662
-0.0327567
2.67094
-0.0440282
3.18156
-0.0524229
3.16801
-0.0570444
2.63946
-0.0599498
2.20791
-0.0618552
1.85387
-0.061667
1.55717
-0.0573989
1.29058
-0.043683
1.00584
-0.0218327
0.663747
-0.00542228
0.321442
0.0822786
-0.000865526
0.112339
0.000404128
0.384266
0.00504807
0.729178
0.00517295
1.06211
-0.000418683
1.34001
-0.00899766
1.60603
-0.0188653
1.90313
-0.029432
2.25718
-0.0405556
2.68206
-0.0517622
3.19277
-0.0601482
3.17639
-0.0647251
2.64404
-0.0666756
2.20986
-0.0676319
1.85483
-0.0665115
1.55605
-0.0606081
1.28468
-0.0449985
0.990227
-0.022159
0.640907
-0.00557633
0.30486
0.0767023
-0.00172574
0.114064
-0.00266983
0.38521
-0.000849033
0.727358
-0.00258943
1.06385
-0.00929849
1.34672
-0.018824
1.61556
-0.0299278
1.91424
-0.042124
2.26938
-0.0545483
2.69449
-0.0652967
3.20352
-0.0718503
3.18295
-0.075098
2.64729
-0.0763296
2.21109
-0.0759733
1.85447
-0.0731319
1.55321
-0.0652593
1.2768
-0.0473517
0.972319
-0.0230701
0.616626
-0.00586757
0.287657
0.0708347
-0.00308456
0.117149
-0.0064209
0.388546
-0.00821186
0.729149
-0.0116376
1.06728
-0.0192943
1.35437
-0.029848
1.62611
-0.0417161
1.9261
-0.054024
2.28169
-0.0660529
2.70652
-0.0771238
3.21459
-0.0843508
3.19017
-0.0867906
2.64973
-0.0862023
2.2105
-0.0848298
1.8531
-0.0811754
1.54956
-0.0710909
1.26672
-0.0505786
0.951807
-0.0244467
0.590494
-0.00624209
0.269453
0.0645926
-0.00438434
0.121533
-0.0106455
0.394807
-0.0157742
0.734277
-0.0220173
1.07352
-0.0310439
1.3634
-0.0428756
1.63795
-0.0561958
1.93942
-0.0707592
2.29625
-0.0853535
2.72111
-0.0967893
3.22602
-0.101293
3.19468
-0.101866
2.6503
-0.101231
2.20987
-0.0980101
1.84988
-0.0917104
1.54326
-0.0789373
1.25395
-0.05513
0.927999
-0.0264315
0.561795
-0.00675197
0.249773
0.0578406
-0.00582778
0.127361
-0.0157097
0.404689
-0.0250093
0.743577
-0.034266
1.08277
-0.0454378
1.37457
-0.0592982
1.65181
-0.0744286
1.95455
-0.0896546
2.31148
-0.103256
2.73471
-0.113597
3.23636
-0.119125
3.2002
-0.119508
2.65068
-0.11593
2.20629
-0.111404
1.84535
-0.104002
1.53585
-0.0879018
1.23784
-0.0602669
0.900364
-0.028636
0.530164
-0.00724464
0.228382
0.050596
-0.00815657
0.135518
-0.0225208
0.419053
-0.0370879
0.758144
-0.0497427
1.09543
-0.0628651
1.38769
-0.0786426
1.66758
-0.0956502
1.97156
-0.113207
2.32904
-0.129672
2.75118
-0.142078
3.24877
-0.144615
3.20274
-0.141604
2.64767
-0.137366
2.20205
-0.130357
1.83834
-0.119351
1.52485
-0.0995004
1.21799
-0.0670361
0.8679
-0.0313597
0.494488
-0.00781222
0.204834
0.0427838
-0.0105558
0.146074
-0.0296245
0.438122
-0.0500472
0.778567
-0.0677474
1.11313
-0.0846575
1.4046
-0.103763
1.68669
-0.123804
1.9916
-0.142953
2.34818
-0.158349
2.76657
-0.166613
3.25703
-0.167771
3.2039
-0.164537
2.64444
-0.157645
2.19516
-0.149471
1.83017
-0.136602
1.51198
-0.111805
1.1932
-0.0736845
0.82978
-0.0338516
0.454655
-0.00822926
0.179212
0.0345545
-0.0153463
0.16142
-0.0421907
0.464966
-0.069802
0.806178
-0.0923656
1.13569
-0.112677
1.42492
-0.135234
1.70924
-0.157544
2.01391
-0.178035
2.36868
-0.194301
2.78284
-0.204348
3.26708
-0.204134
3.20369
-0.196249
2.63655
-0.186812
2.18572
-0.174937
1.8183
-0.156935
1.49398
-0.126586
1.16285
-0.0817982
0.784992
-0.0364827
0.409339
-0.00857582
0.151305
0.0259787
-0.0194391
0.180859
-0.0549004
0.500428
-0.0921349
0.843413
-0.122655
1.16621
-0.149117
1.45138
-0.176078
1.73621
-0.201257
2.03909
-0.222795
2.39021
-0.23797
2.79802
-0.242425
3.27154
-0.235924
3.19718
-0.22597
2.6266
-0.214285
2.17404
-0.200457
1.80447
-0.179357
1.47288
-0.141614
1.1251
-0.0884736
0.731851
-0.0380495
0.358915
-0.00846995
0.121725
0.0175087
-0.0326555
0.213514
-0.0818183
0.549591
-0.129604
0.891198
-0.166428
1.20304
-0.198042
1.48299
-0.229228
1.76739
-0.255447
2.06531
-0.27578
2.41055
-0.287372
2.80961
-0.288042
3.27221
-0.279687
3.18883
-0.266475
2.61339
-0.251486
2.15905
-0.233121
1.7861
-0.204157
1.44391
-0.157808
1.07876
-0.0960305
0.670074
-0.0395965
0.302481
-0.00828858
0.0904175
0.00922016
-0.0470876
0.260602
-0.120969
0.623472
-0.184827
0.955056
-0.230488
1.2487
-0.268252
1.52076
-0.299852
1.79899
-0.323495
2.08895
-0.339869
2.42692
-0.346961
2.8167
-0.342205
3.26745
-0.325792
3.17242
-0.306406
2.594
-0.286639
2.13928
-0.26362
1.76308
-0.229061
1.40935
-0.171897
1.02159
-0.0986539
0.596831
-0.0383744
0.242202
-0.00803492
0.0600781
0.00118524
-0.0341017
0.294704
-0.0978669
0.687237
-0.156571
1.01376
-0.204504
1.29663
-0.248107
1.56436
-0.287355
1.83824
-0.324289
2.12589
-0.357836
2.46047
-0.383811
2.84267
-0.397479
3.28112
-0.397009
3.17195
-0.388433
2.58543
-0.373543
2.12439
-0.347037
1.73658
-0.293859
1.35618
-0.209128
0.936861
-0.111642
0.499345
-0.0419759
0.172535
-0.00935365
0.0274558
-0.00816841
-0.0125496
0.307253
-0.0476025
0.72229
-0.0898844
1.05604
-0.129794
1.33654
-0.169425
1.60399
-0.204906
1.87372
-0.238092
2.15907
-0.266937
2.48931
-0.287866
2.8636
-0.296818
3.29007
-0.29217
3.1673
-0.276136
2.56939
-0.252098
2.10035
-0.218414
1.70289
-0.172961
1.31072
-0.111491
0.875392
-0.0511628
0.439017
-0.0190541
0.140427
-0.00460458
0.0130063
-0.012773
2.77995e-05
0.307226
-0.0245246
0.746842
-0.0541559
1.08567
-0.0847596
1.36714
-0.116952
1.63618
-0.148129
1.9049
-0.176999
2.18794
-0.201075
2.51339
-0.217052
2.87958
-0.221212
3.29423
-0.208852
3.15494
-0.187033
2.54757
-0.162794
2.07611
-0.133999
1.6741
-0.0937313
1.27045
-0.0484039
0.830065
-0.0171131
0.407726
-0.0065051
0.129819
-0.00208231
0.00858354
-0.0148553
0.000765415
0.30646
-0.013044
0.760652
-0.0343079
1.10694
-0.0588697
1.39171
-0.0850423
1.66235
-0.11137
1.93123
-0.135839
2.21241
-0.156243
2.53379
-0.169178
2.89252
-0.168754
3.29381
-0.152004
3.13819
-0.129185
2.52475
-0.102377
2.04931
-0.0694766
1.6412
-0.0366895
1.23767
-0.0100747
0.80345
0.00226987
0.395381
0.00172541
0.130363
-4.87632e-05
0.0103577
-0.0149041
0.0045992
0.301861
-0.00410693
0.769358
-0.022398
1.12523
-0.0435847
1.41289
-0.0656722
1.68444
-0.0876229
1.95318
-0.108472
2.23326
-0.125488
2.55081
-0.13478
2.90181
-0.131715
3.29074
-0.115444
3.12192
-0.0907669
2.50008
-0.0625108
2.02105
-0.0362432
1.61493
-0.00754018
1.20896
0.0136415
0.782268
0.0155519
0.393471
0.0081572
0.137758
0.00195415
0.0165608
-0.0129499
0.00522978
0.296631
-0.000656756
0.775244
-0.0161797
1.14075
-0.0342211
1.43093
-0.0534349
1.70366
-0.0728464
1.97259
-0.0909689
2.25138
-0.105516
2.56535
-0.113208
2.9095
-0.108828
3.28636
-0.0900473
3.10314
-0.0666683
2.4767
-0.0411499
1.99553
-0.011546
1.58533
0.0105982
1.18682
0.021604
0.771262
0.0203844
0.394691
0.0108699
0.147272
0.00284301
0.0245876
-0.0101069
0.0046347
0.291996
0.000824666
0.779054
-0.0123975
1.15397
-0.0291688
1.44771
-0.0465756
1.72106
-0.0636728
1.98968
-0.0797497
2.26746
-0.0928986
2.5785
-0.0997711
2.91637
-0.0952719
3.28186
-0.0788247
3.08669
-0.0556971
2.45357
-0.0281054
1.96794
-0.00556348
1.56279
0.0147676
1.16649
0.025897
0.760133
0.0217322
0.398855
0.0117105
0.157294
0.003233
0.0330651
-0.00687391
0.00271823
0.289278
-0.000650081
0.782423
-0.0119391
1.16526
-0.0262868
1.46205
-0.0421195
1.7369
-0.0582738
2.00584
-0.0736844
2.28287
-0.0864704
2.59129
-0.0932611
2.92316
-0.0885146
3.27711
-0.0716191
3.06979
-0.0499614
2.43191
-0.0280625
1.94604
-0.00243288
1.53716
0.0157972
1.14826
0.0228707
0.753059
0.0200851
0.401641
0.0110058
0.166373
0.00316683
0.0409041
-0.00370708
0.00127604
0.288002
-0.00140551
0.785104
-0.0120722
1.17593
-0.0256797
1.47566
-0.0407737
1.75199
-0.0558298
2.0209
-0.0703326
2.29737
-0.0825585
2.60352
-0.0892194
2.92982
-0.085786
3.27368
-0.0717382
3.05575
-0.0505126
2.41069
-0.0260923
1.92162
-0.0073452
1.51841
0.00967178
1.13124
0.0195311
0.7432
0.0165611
0.404611
0.00931955
0.173615
0.00275251
0.0474711
-0.000954573
-0.000475812
0.288478
-0.00477143
0.7894
-0.0138707
1.18503
-0.0257514
1.48754
-0.0397308
1.76597
-0.0544063
2.03557
-0.0688833
2.31185
-0.0814901
2.61612
-0.0893216
2.93766
-0.087774
3.27213
-0.0737405
3.04171
-0.0545147
2.39146
-0.0354092
1.90252
-0.0124414
1.49544
0.00426776
1.11453
0.0112718
0.736196
0.0116611
0.404222
0.00670996
0.178566
0.00213565
0.0520455
0.00118108
-0.00131703
0.289795
-0.00586802
0.793951
-0.0150339
1.19419
-0.0268167
1.49932
-0.0403909
1.77954
-0.0543695
2.04955
-0.0684187
2.3259
-0.0812413
2.62894
-0.0900099
2.94642
-0.0902636
3.27239
-0.0786405
3.03009
-0.0600926
2.37291
-0.0382276
1.88065
-0.0214283
1.47864
-0.00577074
1.09888
0.00512935
0.725296
0.00625937
0.403092
0.00420258
0.180623
0.00150666
0.0547414
0.00268774
-0.00292728
0.292722
-0.00839207
0.799416
-0.0169597
1.20276
-0.0276751
1.51004
-0.0403439
1.79221
-0.0541017
2.06331
-0.0684883
2.34029
-0.0821243
2.64258
-0.0922572
2.95656
-0.0948072
3.27494
-0.084892
3.02018
-0.0680728
2.35609
-0.0503406
1.86292
-0.0286302
1.45693
-0.0124276
1.08267
-0.00334735
0.716216
0.00141622
0.398328
0.00161977
0.180419
0.000802988
0.0555582
0.00349073
-0.00376442
0.296487
-0.00906475
0.804716
-0.0178001
1.2115
-0.0286974
1.52094
-0.0412649
1.80478
-0.0546358
2.07668
-0.068833
2.35448
-0.0828419
2.65659
-0.0943394
2.96806
-0.0996058
3.2802
-0.0923991
3.01297
-0.0762009
2.33989
-0.0542464
1.84096
-0.0371566
1.43984
-0.0207353
1.06625
-0.00761671
0.703097
-0.00267996
0.393391
-0.000260802
0.178
0.000265464
0.0550319
0.00375619
-0.00423407
0.300721
-0.010649
0.811131
-0.0191525
1.22
-0.0292781
1.53106
-0.0411932
1.81669
-0.0544325
2.08992
-0.068994
2.36905
-0.083818
2.67141
-0.0967489
2.98099
-0.104159
3.28761
-0.0996636
3.00847
-0.0852676
2.3255
-0.066979
1.82268
-0.0430424
1.41591
-0.0244938
1.0477
-0.0126367
0.69124
-0.00490811
0.385663
-0.00134417
0.174436
-7.00994e-05
0.0537578
0.00368609
-0.00419579
0.304917
-0.0106478
0.817583
-0.0193493
1.2287
-0.0297003
1.54141
-0.041671
1.82866
-0.0546889
2.10294
-0.069084
2.38344
-0.0841914
2.68652
-0.0985324
2.99533
-0.108922
3.298
-0.108015
3.00757
-0.0940406
2.31152
-0.0705277
1.79916
-0.0494178
1.3948
-0.0285165
1.0268
-0.0120687
0.674792
-0.00493048
0.378525
-0.00144551
0.170951
-0.000473818
0.0527861
0.00321227
-0.00437863
0.309295
-0.0115428
0.824747
-0.0200185
1.23718
-0.0297473
1.55114
-0.0411551
1.84007
-0.0540028
2.11578
-0.0686507
2.39809
-0.0844926
2.70236
-0.100198
3.01103
-0.112462
3.31027
-0.114014
3.00912
-0.102519
2.30003
-0.0834033
1.78005
-0.0538575
1.36525
-0.0280462
1.00099
-0.0108726
0.657618
-0.000154999
0.367807
0.00266309
0.168133
0.00166918
0.05378
0.00488146
-0.0043218
0.313617
-0.0112071
0.831632
-0.0196612
1.24563
-0.0295261
1.56101
-0.0409547
1.8515
-0.0536182
2.12845
-0.0680986
2.41257
-0.0841318
2.7184
-0.100936
3.02784
-0.115859
3.32519
-0.121607
3.01486
-0.111662
2.29008
-0.0874559
1.75584
-0.0596659
1.33746
-0.0275133
0.968837
-0.00255349
0.632659
0.00906719
0.356186
0.00678906
0.170411
-0.00109552
0.0616646
0.00378593
-0.00445615
0.318073
-0.0116748
0.838851
-0.0198163
1.25377
-0.0290779
1.57027
-0.0399306
1.86235
-0.052351
2.14087
-0.0669557
2.42717
-0.0835499
2.73499
-0.101447
3.04573
-0.118074
3.34182
-0.126164
3.02295
-0.119504
2.28342
-0.101411
1.73775
-0.0654275
1.30148
-0.0242628
0.927673
0.0113403
0.597056
0.0372441
0.330283
0.0445481
0.163107
0.0279698
0.0782428
0.0317558
-0.00430771
0.322381
-0.0111002
0.845644
-0.0190839
1.26176
-0.0283498
1.57954
-0.0391345
1.87314
-0.0513548
2.15309
-0.0657451
2.44156
-0.0823636
2.75161
-0.100966
3.06434
-0.119723
3.36058
-0.131327
3.03456
-0.128832
2.28093
-0.107165
1.71608
-0.0735674
1.26788
-0.0246371
0.878742
0.0234606
0.548958
0.0607482
0.292995
0.0528141
0.171041
0.0230941
0.107963
0.0548499
-0.00425261
0.326633
-0.0112247
0.852616
-0.018873
1.26941
-0.0275271
1.58819
-0.0377588
1.88337
-0.0496689
2.165
-0.0640333
2.45593
-0.080987
2.76856
-0.100402
3.08375
-0.120703
3.38088
-0.134013
3.04787
-0.135621
2.28254
-0.123066
1.70352
-0.08504
1.22985
-0.0300976
0.8238
0.0414099
0.47745
0.137879
0.196526
0.203547
0.105374
0.185163
0.126346
0.240013
-0.004081
0.330714
-0.0106794
0.859214
-0.0183325
1.27706
-0.0272573
1.59711
-0.0379116
1.89402
-0.0503377
2.17742
-0.0655106
2.4711
-0.0838605
2.78691
-0.105773
3.10566
-0.130409
3.40551
-0.150186
3.06765
-0.158173
2.29052
-0.144029
1.68938
-0.109962
1.19579
-0.045166
0.759004
0.0136268
0.418658
-0.0506035
0.260756
-0.354159
0.408929
-0.944741
0.716928
0.901833
-1.60656
-0.00397082
0.334685
-0.0107218
0.865965
-0.0181568
1.28449
-0.0267003
1.60566
-0.0370501
1.90437
-0.0495338
2.18991
-0.0652293
2.4868
-0.0847397
2.80642
-0.108709
3.12963
-0.136946
3.43375
-0.161225
3.09192
-0.174105
2.3034
-0.1781
1.69338
-0.150643
1.16833
-0.11557
0.723931
-0.215255
0.518343
-0.693913
0.739413
-1.45178
1.1668
-2.05704
1.32218
1.21589
-2.3711
-0.00372613
0.338411
-0.00996228
0.872201
-0.0172111
1.29174
-0.0258134
1.61426
-0.0362817
1.91484
-0.0489448
2.20257
-0.0649894
2.50284
-0.0852573
2.82669
-0.110958
3.15533
-0.142864
3.46566
-0.174263
3.12332
-0.197032
2.32617
-0.20135
1.69769
-0.182565
1.14954
-0.2678
0.809166
-0.752879
1.00342
-1.55613
1.54267
-2.11542
1.72609
-2.3532
1.55996
1.32955
-2.46686
-0.00361591
0.342027
-0.0098064
0.878392
-0.0167724
1.29871
-0.0249596
1.62245
-0.0350707
1.92495
-0.0477092
2.21521
-0.0641431
2.51928
-0.0854331
2.84798
-0.113126
3.18303
-0.148966
3.5015
-0.186018
3.16038
-0.215217
2.35537
-0.23847
1.72095
-0.311727
1.2228
-0.676719
1.17416
-1.44423
1.77093
-2.03076
2.1292
-2.26945
1.96478
-2.38206
1.67257
1.39311
-2.44562
-0.00329353
0.345321
-0.00888396
0.883982
-0.0155543
1.30538
-0.0237
1.63059
-0.033908
1.93516
-0.0466625
2.22796
-0.0633413
2.53595
-0.0852451
2.86988
-0.114544
3.21232
-0.154058
3.54101
-0.199321
3.20564
-0.242192
2.39824
-0.279507
1.75826
-0.460485
1.40378
-1.09625
1.80993
-1.79273
2.4674
-2.11007
2.44654
-2.25736
2.11207
-2.33917
1.75438
1.45915
-2.4052
-0.00329968
0.348621
-0.00907347
0.889756
-0.0157178
1.31202
-0.0237124
1.63859
-0.0339474
1.9454
-0.0469306
2.24095
-0.0641792
2.5532
-0.0872336
2.89294
-0.118582
3.24367
-0.162106
3.58454
-0.213559
3.25709
-0.258455
2.44314
-0.344679
1.84449
-0.740482
1.79958
-1.49283
2.56227
-1.96318
2.93776
-2.16282
2.64619
-2.26875
2.21799
-2.34593
1.83157
1.52237
-2.40916
-0.00335474
0.351975
-0.00907275
0.895474
-0.0160833
1.31903
-0.0247435
1.64725
-0.0357335
1.95639
-0.0494877
2.2547
-0.0676055
2.57132
-0.091787
2.91712
-0.125064
3.27695
-0.172426
3.6319
-0.229743
3.31441
-0.291764
2.50516
-0.478022
2.03074
-1.04559
2.36715
-1.67993
3.19661
-1.95283
3.21065
-2.09925
2.79261
-2.21302
2.33176
-2.30664
1.92519
1.58391
-2.36818
-0.00349921
0.355474
-0.00993777
0.901913
-0.0173735
1.32647
-0.0262505
1.65612
-0.0374916
1.96763
-0.051787
2.269
-0.0708252
2.59036
-0.0965272
2.94282
-0.132085
3.31251
-0.183642
3.68345
-0.246532
3.3773
-0.330601
2.58923
-0.612379
2.31252
-1.26383
3.0186
-1.75122
3.684
-1.9582
3.41764
-2.09752
2.93193
-2.22129
2.45553
-2.33144
2.03534
1.64252
-2.39004
-0.00342409
0.358899
-0.00967404
0.908162
-0.0175697
1.33437
-0.0273142
1.66587
-0.0394679
1.97978
-0.0546343
2.28416
-0.0746275
2.61035
-0.10149
2.96969
-0.138915
3.34993
-0.193588
3.73813
-0.2616
3.44531
-0.386251
2.71388
-0.773543
2.69982
-1.4102
3.65525
-1.76087
4.03468
-1.93337
3.59013
-2.03493
3.03349
-2.12341
2.544
-2.19014
2.10207
1.63514
-2.18277
-0.0034561
0.362355
-0.0106106
0.915317
-0.019019
1.34277
-0.0289487
1.6758
-0.0413483
1.99218
-0.0570717
2.29989
-0.0780025
2.63128
-0.106418
2.9981
-0.146062
3.38958
-0.203432
3.7955
-0.282207
3.52408
-0.451174
2.88285
-0.904502
3.15314
-1.46108
4.21183
-1.72194
4.29554
-1.87311
3.74131
-1.96645
3.12683
-1.96727
2.54482
-1.89744
2.03224
1.59793
-1.86023
-0.00321523
0.36557
-0.00988138
0.921983
-0.0186929
1.35159
-0.029565
1.68667
-0.0428808
2.0055
-0.0592963
2.3163
-0.0807508
2.65274
-0.109459
3.02681
-0.149391
3.42951
-0.206015
3.85212
-0.291833
3.6099
-0.496665
3.08768
-0.987941
3.64442
-1.42809
4.65197
-1.5923
4.45976
-1.65895
3.80796
-1.66321
3.13109
-1.51547
2.39708
-1.01583
1.53259
0.582108
-0.00284122
0.368411
-0.0107146
0.929856
-0.0201457
1.36102
-0.0312372
1.69776
-0.0450657
2.01933
-0.0625797
2.33382
-0.0858506
2.67601
-0.117471
3.05843
-0.16164
3.47368
-0.225771
3.91625
-0.328999
3.71313
-0.582716
3.3414
-1.12267
4.18437
-1.47992
5.00923
-1.57903
4.55887
-1.57687
3.80579
-1.4731
3.02732
-1.23428
2.15826
-0.630648
0.928962
-0.0485399
-0.00253132
0.370942
-0.0091509
0.936476
-0.0188709
1.37074
-0.0313061
1.7102
-0.0466888
2.03471
-0.0658193
2.35295
-0.0911018
2.70129
-0.125291
3.09262
-0.173631
3.52202
-0.243323
3.98594
-0.366154
3.83596
-0.681149
3.65639
-1.24142
4.74464
-1.50096
5.26876
-1.55927
4.61719
-1.53664
3.78315
-1.33475
2.82543
-0.781434
1.60495
-0.108386
0.255914
-0.156926
-0.00156785
0.37251
-0.00961182
0.94452
-0.0199337
1.38106
-0.0323767
1.72264
-0.048043
2.05037
-0.0681553
2.37306
-0.0952073
2.72834
-0.1324
3.12981
-0.184713
3.57433
-0.263161
4.06439
-0.412387
3.98519
-0.784456
4.02846
-1.319
5.27919
-1.49463
5.44439
-1.52569
4.64825
-1.43732
3.69478
-1.10023
2.48834
-0.312444
0.817163
0.0247259
-0.0812554
-0.1322
-0.000963651
0.373474
-0.00658786
0.950144
-0.0167636
1.39123
-0.0306549
1.73653
-0.0479308
2.06765
-0.069663
2.39479
-0.0987513
2.75743
-0.138337
3.1694
-0.193506
3.6295
-0.279895
4.15078
-0.455414
4.16071
-0.893633
4.46668
-1.36442
5.74998
-1.48029
5.56025
-1.48259
4.65056
-1.25785
3.47004
-0.685232
1.91573
-0.0627833
0.194714
0.0300688
-0.174108
-0.102131
5.36561e-05
0.37342
-0.00614144
0.956339
-0.0166339
1.40173
-0.0302457
1.75014
-0.0472994
2.0847
-0.0698101
2.4173
-0.100356
2.78798
-0.142356
3.2114
-0.200971
3.68811
-0.296877
4.24669
-0.498597
4.36243
-0.986643
4.95473
-1.3595
6.12284
-1.4235
5.62425
-1.3771
4.60415
-1.08888
3.18182
-0.322011
1.14885
0.00468868
-0.131986
0.0148194
-0.184238
-0.0873121
0.003268
0.370152
0.000598043
0.959009
-0.0100754
1.4124
-0.0252065
1.76527
-0.0435975
2.10309
-0.0676238
2.44133
-0.0998765
2.82023
-0.143734
3.25526
-0.205045
3.74942
-0.308838
4.35048
-0.536779
4.59037
-1.04891
5.46685
-1.32391
6.39784
-1.36421
5.66455
-1.22395
4.46389
-0.769799
2.72767
-0.0680326
0.447088
0.0444488
-0.244467
0.0241893
-0.163979
-0.0631227
0.00426534
0.365887
0.0021666
0.961108
-0.00781524
1.42238
-0.0216305
1.77909
-0.0390082
2.12047
-0.0634636
2.46578
-0.096469
2.85324
-0.141867
3.30065
-0.205816
3.81337
-0.317782
4.46245
-0.575555
4.84814
-1.07065
5.96195
-1.26025
6.58743
-1.26928
5.67358
-1.04942
4.24403
-0.459304
2.13756
-0.0183812
0.00616439
-0.00666992
-0.256178
0.00476396
-0.175413
-0.0583588
0.00869646
0.35719
0.0102937
0.959511
0.00343432
1.42924
-0.0104743
1.793
-0.0292502
2.13925
-0.0545367
2.49107
-0.088305
2.887
-0.13431
3.34666
-0.19999
3.87905
-0.318164
4.58062
-0.597909
5.12789
-1.04836
6.4124
-1.17209
6.71116
-1.15584
5.65734
-0.895648
3.98384
-0.262685
1.50459
-0.0699628
-0.186558
-0.0387041
-0.287437
-0.0143437
-0.199773
-0.0727024
0.0112592
0.345931
0.0156005
0.955169
0.0104358
1.43441
0.000273045
1.80316
-0.0181436
2.15767
-0.0424894
2.51542
-0.0756081
2.92012
-0.12149
3.39254
-0.187637
3.9452
-0.309807
4.70279
-0.596295
5.41437
-0.98392
6.80003
-1.04837
6.77562
-0.979198
5.58816
-0.675644
3.68028
-0.0694429
0.898393
0.0157236
-0.271724
0.000825045
-0.272539
-0.00143577
-0.197512
-0.0741382
0.0185429
0.327388
0.0304202
0.943292
0.0295688
1.43526
0.0185782
1.81415
0.000852318
2.17539
-0.0217303
2.538
-0.053924
2.95232
-0.0985759
3.43719
-0.163575
4.0102
-0.285604
4.82482
-0.566279
5.69505
-0.872823
7.10657
-0.907855
6.81065
-0.804457
5.48477
-0.443352
3.31918
0.0686212
0.38642
0.0789829
-0.282086
0.0584632
-0.252019
0.0223292
-0.161378
-0.0518089
0.024176
0.303212
0.0420064
0.925462
0.0448517
1.43241
0.0381378
1.82087
0.0257318
2.1878
0.00417709
2.55955
-0.0255847
2.98208
-0.0673099
3.47892
-0.128754
4.07164
-0.244426
4.94049
-0.492884
5.94351
-0.71349
7.32718
-0.74189
6.83905
-0.638589
5.38146
-0.305757
2.98635
0.000521009
0.0801418
0.0191283
-0.300693
0.0298891
-0.26278
0.0147294
-0.146218
-0.0370796
0.0352352
0.267977
0.0656406
0.895056
0.0771554
1.4209
0.0740176
1.824
0.0633052
2.19851
0.0443743
2.57848
0.0174409
3.00901
-0.0209448
3.5173
-0.0766937
4.12739
-0.176897
5.0407
-0.381347
6.14796
-0.537032
7.48286
-0.559228
6.86124
-0.460236
5.28247
-0.183368
2.70948
-0.0726324
-0.0305938
-0.0539337
-0.319392
-0.0207075
-0.296006
-0.00256463
-0.164361
-0.0396442
0.0446462
0.223331
0.0869115
0.852791
0.106815
1.40099
0.111404
1.81941
0.107279
2.20263
0.0931319
2.59263
0.0717631
3.03038
0.0399473
3.54912
-0.0102744
4.17761
-0.0852988
5.11572
-0.222231
6.28489
-0.311535
7.57217
-0.322536
6.87225
-0.26867
5.22861
-0.0797271
2.52054
-0.0949793
-0.0153416
-0.0707828
-0.343589
-0.0277114
-0.339077
0.000151023
-0.192224
-0.0394932
0.0582121
0.165119
0.121066
0.789937
0.158394
1.36367
0.171175
1.80663
0.171242
2.20257
0.161573
2.6023
0.147089
3.04486
0.124313
3.57189
0.0885404
4.21339
0.0400193
5.16424
-0.0166127
6.34152
-0.0487102
7.60426
-0.0495729
6.87311
-0.0114165
5.19045
0.0499833
2.45914
-0.0882223
0.122864
-0.091588
-0.340223
-0.0425771
-0.388088
0.00991836
-0.244719
-0.0295748
0.0602557
0.104863
0.150817
0.699375
0.207152
1.30733
0.234348
1.77944
0.246409
2.19051
0.245421
2.60329
0.238329
3.05196
0.226523
3.5837
0.209107
4.2308
0.189291
5.18406
0.239428
6.29138
0.282103
7.56159
0.289923
6.86529
0.187693
5.29268
-0.0684511
2.71528
-0.315775
0.370188
-0.350703
-0.305295
-0.263303
-0.475488
-0.107516
-0.400506
-0.137091
0.0499725
0.0548907
0.184313
0.565035
0.280935
1.21071
0.327269
1.7331
0.347257
2.17052
0.355222
2.59532
0.355614
3.05156
0.357276
3.58204
0.359584
4.22849
0.373718
5.16992
0.520646
6.14446
0.663646
7.41859
0.653871
6.87506
0.452665
5.49389
-0.057018
3.22496
-0.563627
0.876797
-0.650087
-0.218835
-0.506658
-0.618917
-0.264743
-0.64242
-0.401834
0.0344097
0.020481
0.219148
0.380296
0.345749
1.08411
0.423702
1.65515
0.466452
2.12777
0.489292
2.57248
0.496957
3.0439
0.512076
3.56692
0.539359
4.20121
0.596311
5.11297
0.838562
5.9022
1.2034
7.05375
1.4035
6.67496
1.49029
5.4071
1.05597
3.65928
0.284654
1.64812
-0.252548
0.318367
-0.463969
-0.407496
-0.281368
-0.825022
-0.683202
0.0306656
-0.0101846
0.236315
0.174646
0.449631
0.870794
0.565194
1.53959
0.616435
2.07653
0.650394
2.53852
0.671437
3.02286
0.695869
3.54249
0.74588
4.1512
0.85921
4.99964
1.22052
5.5409
1.8445
6.42977
2.20776
6.3117
2.45258
5.16227
2.33422
3.77764
1.67717
2.30517
0.982349
1.01318
0.410002
0.16485
0.0997167
-0.514736
-0.583485
0.0244627
-0.0346473
0.159848
0.0392609
0.49488
0.535762
0.693403
1.34106
0.794968
1.97496
0.844457
2.48904
0.881179
2.98613
0.909943
3.51372
0.981876
4.07927
1.11823
4.86329
1.50981
5.14932
2.29144
5.64814
2.68648
5.91666
2.86866
4.98009
2.73339
3.91291
2.22906
2.8095
1.60147
1.64077
1.05858
0.707744
0.42769
0.116155
-0.155796
0.00293168
-0.037579
0.0797441
-0.0375516
0.413389
0.202118
0.713768
1.04068
0.853759
1.83497
0.89392
2.44887
0.899769
2.98028
0.882828
3.53067
0.881904
4.08019
0.924609
4.82059
1.08203
4.99189
1.52632
5.20386
1.70541
5.73757
1.7461
4.9394
1.6597
3.99931
1.41983
3.04937
1.02891
2.03169
0.61226
1.12439
0.255949
0.472466
0.100153
0.00414362
-0.0417226
0.0451437
-0.0785517
0.218122
0.0291388
0.546511
0.712296
0.718217
1.66326
0.780411
2.38668
0.797709
2.96299
0.792626
3.53575
0.773966
4.09885
0.792504
4.80205
0.867999
4.9164
1.17062
4.90124
1.35959
5.5486
1.37287
4.92612
1.31142
4.06076
1.14826
3.21253
0.857235
2.32272
0.536974
1.44466
0.226748
0.782692
0.326901
0.00482142
-0.046544
0.022819
-0.0965492
0.0944125
-0.0424546
0.379725
0.426983
0.576912
1.46608
0.662494
2.3011
0.680417
2.94506
0.678264
3.5379
0.654293
4.12282
0.652473
4.80387
0.680732
4.88814
0.8601
4.72187
1.03869
5.37001
1.03663
4.92819
0.977741
4.11964
0.854618
3.33565
0.648043
2.52929
0.401174
1.69152
0.161837
1.02203
0.488738
-0.00442115
-0.0421229
-0.00260737
-0.098363
0.0318496
-0.0769116
0.23808
0.220752
0.439305
1.26485
0.543134
2.19727
0.566302
2.9219
0.564013
3.54019
0.536098
4.15074
0.517296
4.82267
0.522763
4.88267
0.627104
4.61753
0.764819
5.2323
0.755516
4.93749
0.694102
4.18105
0.597604
3.43215
0.452114
2.67478
0.269783
1.87386
0.0989059
1.1929
0.587644
-0.0125986
-0.0295243
-0.0106383
-0.100323
0.014339
-0.101889
0.138791
0.0963002
0.319775
1.08387
0.413859
2.10319
0.445188
2.89057
0.449661
3.53572
0.430277
4.17012
0.406748
4.8462
0.394146
4.89527
0.451908
4.55976
0.543062
5.14114
0.533931
4.94662
0.475041
4.23994
0.39721