/*--------------------------------*- C++ -*----------------------------------*\
  =========                 |
  \\      /  F ield         | OpenFOAM: The Open Source CFD Toolbox
   \\    /   O peration     | Website:  https://openfoam.org
    \\  /    A nd           | Version:  10
     \\/     M anipulation  |
\*---------------------------------------------------------------------------*/
FoamFile
{
    format      ascii;
    class       volVectorField;
    location    "64";
    object      U;
}
// * * * * * * * * * * * * * * * * * * * * * * * * * * * * * * * * * * * * * //

dimensions      [0 1 -1 0 0 0 0];

internalField   nonuniform List<vector> 
2200
(
(0.878842 -0.0304106 0)
(1.00579 -0.0512779 0)
(1.00328 -0.0353906 0)
(1.00027 -0.0244282 0)
(0.99989 -0.0166468 0)
(1.00004 -0.0107206 0)
(1.00002 -0.00682539 0)
(0.999985 -0.00418988 0)
(0.99991 -0.00217847 0)
(1.00019 -0.000612658 0)
(1.00012 0.00113779 0)
(1.00033 0.00263862 0)
(1.00035 0.00453627 0)
(1.00026 0.00712399 0)
(1.00015 0.0108484 0)
(1.00007 0.0166684 0)
(1.00037 0.0243758 0)
(1.00347 0.0348539 0)
(1.00599 0.0513829 0)
(0.879056 0.0302937 0)
(0.712032 -0.0327628 0)
(0.996653 -0.063007 0)
(1.03334 -0.0561471 0)
(1.02491 -0.0464104 0)
(1.01587 -0.0360946 0)
(1.00963 -0.0263501 0)
(1.00591 -0.0181126 0)
(1.00379 -0.0113937 0)
(1.00268 -0.00601417 0)
(1.00214 -0.00157044 0)
(1.00187 0.00250737 0)
(1.00205 0.00701232 0)
(1.00325 0.0123149 0)
(1.00546 0.0189105 0)
(1.00933 0.0272226 0)
(1.01544 0.0369683 0)
(1.02455 0.0474767 0)
(1.03315 0.0580219 0)
(0.996708 0.0631388 0)
(0.711774 0.0330392 0)
(0.535567 -0.0238932 0)
(0.969932 -0.0569303 0)
(1.05645 -0.0547258 0)
(1.05228 -0.0487518 0)
(1.03629 -0.0404218 0)
(1.02448 -0.0322531 0)
(1.01593 -0.0239683 0)
(1.0104 -0.0160744 0)
(1.00713 -0.0087883 0)
(1.00552 -0.00210483 0)
(1.00579 0.00436173 0)
(1.00745 0.0107943 0)
(1.01052 0.0177841 0)
(1.01582 0.0254529 0)
(1.02415 0.0334177 0)
(1.03618 0.041387 0)
(1.05226 0.049387 0)
(1.05632 0.0532415 0)
(0.969212 0.0576463 0)
(0.534397 0.0239384 0)
(0.392364 -0.0136446 0)
(0.911866 -0.0463776 0)
(1.05753 -0.0468747 0)
(1.06958 -0.0442777 0)
(1.05489 -0.0381395 0)
(1.03935 -0.031458 0)
(1.02756 -0.0246705 0)
(1.0191 -0.0174492 0)
(1.01378 -0.00994817 0)
(1.01121 -0.00242862 0)
(1.01074 0.00502653 0)
(1.01285 0.0125625 0)
(1.01807 0.0198719 0)
(1.02654 0.0267085 0)
(1.03845 0.0331351 0)
(1.05396 0.039605 0)
(1.06817 0.0456818 0)
(1.05547 0.0483165 0)
(0.909889 0.0470089 0)
(0.389912 0.01378 0)
(0.307769 -0.00451195 0)
(0.846796 -0.0323713 0)
(1.04943 -0.0399136 0)
(1.07951 -0.038161 0)
(1.06825 -0.0335007 0)
(1.05172 -0.0278898 0)
(1.03836 -0.0224791 0)
(1.02812 -0.0164078 0)
(1.02098 -0.00950528 0)
(1.01696 -0.00182065 0)
(1.01703 0.00613968 0)
(1.02078 0.0133858 0)
(1.02752 0.0197372 0)
(1.03733 0.0254376 0)
(1.05022 0.0303505 0)
(1.06666 0.0356688 0)
(1.0777 0.040037 0)
(1.04729 0.0417581 0)
(0.842968 0.0329753 0)
(0.303712 0.00474045 0)
(0.264365 0.000101408 0)
(0.789106 -0.0200683 0)
(1.03348 -0.031452 0)
(1.08363 -0.0320211 0)
(1.07734 -0.028732 0)
(1.06087 -0.0238264 0)
(1.04725 -0.0193375 0)
(1.03641 -0.0142421 0)
(1.02865 -0.00817125 0)
(1.02433 -0.00123481 0)
(1.02371 0.00610154 0)
(1.02706 0.0128368 0)
(1.03435 0.0186137 0)
(1.04502 0.0231323 0)
(1.05864 0.0271317 0)
(1.07489 0.0315524 0)
(1.08036 0.0342462 0)
(1.02922 0.0333543 0)
(0.782578 0.0207343 0)
(0.258697 0.000122347 0)
(0.240443 0.00107091 0)
(0.738507 -0.012269 0)
(1.01379 -0.0249575 0)
(1.08413 -0.0267118 0)
(1.08311 -0.0244105 0)
(1.0679 -0.0202614 0)
(1.05432 -0.0162414 0)
(1.04337 -0.0116825 0)
(1.03508 -0.00627142 0)
(1.02997 0.000207958 0)
(1.02966 0.00691681 0)
(1.03409 0.0128616 0)
(1.04159 0.0174187 0)
(1.05176 0.021387 0)
(1.06477 0.0247277 0)
(1.07946 0.0281716 0)
(1.07987 0.0297597 0)
(1.00751 0.0272728 0)
(0.728813 0.0131597 0)
(0.233036 -0.00083162 0)
(0.226157 0.000962192 0)
(0.695703 -0.00802112 0)
(0.993265 -0.0207054 0)
(1.08235 -0.0230719 0)
(1.08693 -0.0212196 0)
(1.07346 -0.0176543 0)
(1.06004 -0.0138203 0)
(1.0495 -0.0095375 0)
(1.04161 -0.00459891 0)
(1.03684 0.000991083 0)
(1.03594 0.00704337 0)
(1.03891 0.0122113 0)
(1.04574 0.0167368 0)
(1.0558 0.0200927 0)
(1.06921 0.0231024 0)
(1.08191 0.0258324 0)
(1.07564 0.0267829 0)
(0.983252 0.0234678 0)
(0.681716 0.00913112 0)
(0.216576 -0.000709966 0)
(0.216604 0.000623506 0)
(0.660337 -0.00565706 0)
(0.972734 -0.017584 0)
(1.0796 -0.0201393 0)
(1.09035 -0.0185503 0)
(1.07832 -0.0153896 0)
(1.06488 -0.0117566 0)
(1.05428 -0.00750852 0)
(1.04619 -0.00259711 0)
(1.04092 0.00290798 0)
(1.04008 0.00819187 0)
(1.04402 0.0130137 0)
(1.05082 0.016539 0)
(1.06013 0.0198219 0)
(1.07255 0.0224927 0)
(1.08339 0.0246193 0)
(1.07089 0.0250749 0)
(0.959174 0.0210407 0)
(0.64159 0.00707952 0)
(0.204466 -0.000334445 0)
(0.209469 0.000300616 0)
(0.631898 -0.00419567 0)
(0.954035 -0.0149702 0)
(1.07665 -0.0178802 0)
(1.0935 -0.0165235 0)
(1.08304 -0.0135588 0)
(1.06968 -0.00989387 0)
(1.05935 -0.00585581 0)
(1.05171 -0.00123907 0)
(1.04688 0.00371551 0)
(1.04539 0.00886724 0)
(1.04737 0.013247 0)
(1.05307 0.0171373 0)
(1.06246 0.0198457 0)
(1.07546 0.0222241 0)
(1.08434 0.0239512 0)
(1.06376 0.0238938 0)
(0.934285 0.0191666 0)
(0.606583 0.00595258 0)
(0.193981 4.53224e-05 0)
(0.203644 8.53679e-05 0)
(0.608596 -0.00313633 0)
(0.936009 -0.0125263 0)
(1.07349 -0.0155315 0)
(1.0969 -0.0143601 0)
(1.08779 -0.0115577 0)
(1.07418 -0.00801544 0)
(1.06328 -0.00390078 0)
(1.05494 0.000857871 0)
(1.04937 0.00605637 0)
(1.04787 0.0108018 0)
(1.05095 0.0148475 0)
(1.05715 0.017734 0)
(1.06601 0.0204495 0)
(1.07792 0.0225761 0)
(1.08466 0.0237904 0)
(1.0571 0.0230777 0)
(0.910544 0.0176449 0)
(0.576297 0.00528894 0)
(0.184338 0.000323093 0)
(0.199156 1.30023e-05 0)
(0.590591 -0.00226638 0)
(0.920823 -0.0101705 0)
(1.07066 -0.013342 0)
(1.10027 -0.0122688 0)
(1.0927 -0.00954487 0)
(1.07912 -0.00592228 0)
(1.06832 -0.0020046 0)
(1.06028 0.00248967 0)
(1.05484 0.00725209 0)
(1.0524 0.012058 0)
(1.05354 0.0160809 0)
(1.05857 0.0193224 0)
(1.06768 0.021354 0)
(1.08018 0.0230462 0)
(1.08437 0.0238884 0)
(1.04772 0.0226037 0)
(0.885685 0.0164572 0)
(0.548479 0.00493144 0)
(0.174823 0.00049644 0)
(0.195585 2.99219e-05 0)
(0.575861 -0.00154824 0)
(0.906256 -0.00808366 0)
(1.06785 -0.0109719 0)
(1.10386 -0.00984659 0)
(1.09772 -0.00706519 0)
(1.08399 -0.00347934 0)
(1.07244 0.000593526 0)
(1.06319 0.00524972 0)
(1.0567 0.0104188 0)
(1.05423 0.0150095 0)
(1.05642 0.0184626 0)
(1.06213 0.0206989 0)
(1.07077 0.0226406 0)
(1.08162 0.023956 0)
(1.08357 0.0243555 0)
(1.03881 0.0224419 0)
(0.861821 0.0156211 0)
(0.523316 0.00476916 0)
(0.165625 0.000582852 0)
(0.193536 6.38821e-05 0)
(0.565487 -0.000756503 0)
(0.895156 -0.00586524 0)
(1.06574 -0.00866433 0)
(1.10761 -0.00742103 0)
(1.10295 -0.00459423 0)
(1.0892 -0.000863527 0)
(1.07763 0.0031182 0)
(1.06864 0.00765996 0)
(1.06212 0.0124598 0)
(1.0583 0.0169737 0)
(1.05842 0.0205668 0)
(1.06279 0.0230274 0)
(1.07158 0.0242428 0)
(1.0827 0.0251082 0)
(1.08151 0.0250535 0)
(1.02656 0.0226017 0)
(0.836118 0.0151329 0)
(0.498655 0.00470942 0)
(0.156264 0.000620945 0)
(0.192703 0.000106565 0)
(0.558053 -0.000196428 0)
(0.884895 -0.00384338 0)
(1.06402 -0.00592068 0)
(1.11156 -0.00439659 0)
(1.1083 -0.00124412 0)
(1.09458 0.00266052 0)
(1.08232 0.00697036 0)
(1.07201 0.0117936 0)
(1.06376 0.0167776 0)
(1.05994 0.0209944 0)
(1.06104 0.0237731 0)
(1.06603 0.0252979 0)
(1.07416 0.0264602 0)
(1.08255 0.0268692 0)
(1.07898 0.0263292 0)
(1.01472 0.0232122 0)
(0.811085 0.0149664 0)
(0.475379 0.00476393 0)
(0.147107 0.000642657 0)
(0.193345 8.96022e-05 0)
(0.553945 0.000871797 0)
(0.878856 -0.00148792 0)
(1.06366 -0.00322981 0)
(1.11617 -0.00133647 0)
(1.11424 0.0019673 0)
(1.10031 0.0061417 0)
(1.08773 0.0104661 0)
(1.07736 0.0151669 0)
(1.0693 0.0200416 0)
(1.06386 0.0243485 0)
(1.06234 0.0271312 0)
(1.06544 0.0285991 0)
(1.0736 0.0290506 0)
(1.08252 0.029184 0)
(1.0742 0.0281595 0)
(0.999046 0.0241475 0)
(0.783602 0.0151611 0)
(0.451326 0.00491983 0)
(0.137509 0.000660811 0)
(0.195483 0.00025362 0)
(0.554262 0.00153927 0)
(0.874144 0.000623874 0)
(1.0644 -1.82757e-05 0)
(1.12132 0.00225442 0)
(1.12055 0.00601873 0)
(1.1066 0.0105773 0)
(1.09342 0.0156109 0)
(1.08188 0.0210082 0)
(1.07177 0.0262143 0)
(1.06555 0.0298463 0)
(1.06473 0.0318017 0)
(1.0684 0.0328509 0)
(1.07551 0.0331396 0)
(1.08067 0.0323858 0)
(1.06899 0.0306113 0)
(0.983431 0.0256713 0)
(0.756153 0.0157269 0)
(0.427535 0.00520492 0)
(0.127793 0.000689165 0)
(0.19973 0.000674806 0)
(0.557019 0.00237702 0)
(0.87462 0.0034048 0)
(1.06707 0.00346944 0)
(1.12741 0.00640929 0)
(1.12762 0.0104914 0)
(1.11316 0.0155812 0)
(1.09915 0.0207844 0)
(1.08678 0.0260881 0)
(1.07603 0.030995 0)
(1.06839 0.0351514 0)
(1.06499 0.0372245 0)
(1.06611 0.0376259 0)
(1.07315 0.0367866 0)
(1.07904 0.0363027 0)
(1.0611 0.033677 0)
(0.963147 0.027574 0)
(0.725278 0.0166741 0)
(0.401739 0.00558213 0)
(0.117226 0.000713672 0)
(0.206215 0.000879296 0)
(0.563961 0.00349909 0)
(0.878519 0.00585458 0)
(1.07187 0.0076174 0)
(1.13437 0.0111382 0)
(1.13557 0.0158728 0)
(1.12082 0.0214105 0)
(1.10607 0.0274805 0)
(1.09264 0.0338782 0)
(1.08037 0.0398711 0)
(1.07079 0.0431883 0)
(1.06681 0.0439616 0)
(1.06833 0.04383 0)
(1.07385 0.0434963 0)
(1.07491 0.0412474 0)
(1.0521 0.0376786 0)
(0.942387 0.0303124 0)
(0.693309 0.0180186 0)
(0.375009 0.00608201 0)
(0.106166 0.000749215 0)
(0.214673 0.00106098 0)
(0.57513 0.0047894 0)
(0.886791 0.00907025 0)
(1.07956 0.0122983 0)
(1.14284 0.0169954 0)
(1.14447 0.0224507 0)
(1.12888 0.0290234 0)
(1.11297 0.0355984 0)
(1.09782 0.041965 0)
(1.08297 0.0470337 0)
(1.07146 0.0504873 0)
(1.0658 0.0519327 0)
(1.06507 0.0512817 0)
(1.06944 0.048928 0)
(1.07108 0.0471674 0)
(1.03983 0.0424022 0)
(0.915518 0.0332708 0)
(0.656489 0.0196446 0)
(0.345126 0.00658979 0)
(0.09395 0.000763617 0)
(0.227183 0.00142176 0)
(0.59388 0.00672635 0)
(0.902231 0.0133625 0)
(1.09068 0.0184914 0)
(1.15309 0.0240056 0)
(1.15502 0.0304272 0)
(1.13845 0.0377005 0)
(1.12092 0.0451805 0)
(1.10382 0.0526297 0)
(1.08761 0.0592062 0)
(1.07436 0.0628327 0)
(1.0666 0.0619823 0)
(1.06514 0.0603963 0)
(1.06858 0.058322 0)
(1.06379 0.0543822 0)
(1.02538 0.0482172 0)
(0.88724 0.0374401 0)
(0.617304 0.021653 0)
(0.313348 0.00716791 0)
(0.0810975 0.00078018 0)
(0.242765 0.00195325 0)
(0.616715 0.00853379 0)
(0.922599 0.0178445 0)
(1.10606 0.0252554 0)
(1.16577 0.0327324 0)
(1.16705 0.0404342 0)
(1.14862 0.0493151 0)
(1.12914 0.0577521 0)
(1.10974 0.0655231 0)
(1.08995 0.0709045 0)
(1.07245 0.072426 0)
(1.0637 0.0722602 0)
(1.06087 0.0701176 0)
(1.06134 0.0663649 0)
(1.0568 0.0625149 0)
(1.00692 0.0549145 0)
(0.850626 0.0414359 0)
(0.571045 0.0236753 0)
(0.27744 0.00762353 0)
(0.0670421 0.000765392 0)
(0.265022 0.00282308 0)
(0.65042 0.0123943 0)
(0.952107 0.0249841 0)
(1.12605 0.0352318 0)
(1.18114 0.0437286 0)
(1.18135 0.0534492 0)
(1.16057 0.0633074 0)
(1.13816 0.0726763 0)
(1.1152 0.0807861 0)
(1.09254 0.0866934 0)
(1.07451 0.0893917 0)
(1.06296 0.087138 0)
(1.05807 0.0830322 0)
(1.05893 0.078642 0)
(1.04498 0.0724023 0)
(0.98419 0.0624334 0)
(0.811379 0.0467216 0)
(0.521842 0.0259588 0)
(0.239634 0.00799979 0)
(0.0526987 0.000745049 0)
(0.296243 0.00373182 0)
(0.69544 0.015459 0)
(0.990979 0.0328862 0)
(1.15269 0.0466904 0)
(1.20035 0.0583081 0)
(1.19795 0.0700441 0)
(1.1735 0.0816968 0)
(1.14781 0.0918693 0)
(1.12197 0.100295 0)
(1.09594 0.105022 0)
(1.0722 0.104264 0)
(1.05796 0.100296 0)
(1.05224 0.0958796 0)
(1.04801 0.089911 0)
(1.03321 0.0828759 0)
(0.956694 0.0711423 0)
(0.760955 0.0513438 0)
(0.462372 0.0276499 0)
(0.197141 0.00801855 0)
(0.0374425 0.000637893 0)
(0.332744 0.00709786 0)
(0.753381 0.0247829 0)
(1.04024 0.0465882 0)
(1.18512 0.0646805 0)
(1.22316 0.0776205 0)
(1.21637 0.0924992 0)
(1.18716 0.105109 0)
(1.15706 0.115496 0)
(1.12609 0.122748 0)
(1.09494 0.125669 0)
(1.06979 0.124062 0)
(1.05462 0.119448 0)
(1.04684 0.11258 0)
(1.04321 0.105283 0)
(1.01469 0.0957162 0)
(0.921323 0.0797481 0)
(0.705788 0.056957 0)
(0.401458 0.0294783 0)
(0.154893 0.00787105 0)
(0.0235887 0.000584874 0)
(0.412947 0.0107315 0)
(0.841186 0.0357221 0)
(1.10679 0.0676598 0)
(1.22558 0.0904204 0)
(1.25015 0.10672 6.1632e-34)
(1.2363 0.123305 -2.78434e-34)
(1.20068 0.135808 0)
(1.1657 0.144905 0)
(1.13078 0.150551 0)
(1.09667 0.151261 0)
(1.06745 0.146573 0)
(1.0481 0.137751 0)
(1.038 0.129113 0)
(1.02678 0.119592 0)
(0.994473 0.10771 0)
(0.879928 0.0893116 0)
(0.636451 0.0605719 0)
(0.325382 0.0291014 0)
(0.105595 0.00729251 0)
(0.00831054 0.000756854 0)
(0.484114 0.0259104 4.49851e-20)
(0.943524 0.060062 -3.40949e-20)
(1.17765 0.102075 0)
(1.26725 0.129315 2.65481e-20)
(1.2788 0.144946 -2.15289e-20)
(1.25563 0.163519 2.93774e-34)
(1.21318 0.174145 0)
(1.17305 0.181118 1.57077e-20)
(1.13245 0.183922 -5.16193e-20)
(1.09209 0.181189 1.05512e-20)
(1.05845 0.172483 0)
(1.03873 0.162332 -2.68635e-20)
(1.02777 0.152052 -3.23241e-20)
(1.0164 0.141153 5.66135e-20)
(0.959703 0.125815 -4.47134e-20)
(0.811833 0.0986258 0)
(0.538431 0.0633968 -1.60757e-20)
(0.237072 0.0274861 0)
(0.0561198 0.00692476 -8.88356e-20)
(-0.00809648 0.00040238 1.04696e-19)
(0.520468 0.0538481 -5.93812e-21)
(1.00919 0.10253 1.0055e-19)
(1.22923 0.152852 -5.21208e-21)
(1.30152 0.177289 -6.45301e-20)
(1.30378 0.194801 -4.54882e-20)
(1.27157 0.211566 7.40155e-20)
(1.22269 0.219398 0)
(1.17675 0.223688 0)
(1.1307 0.223863 8.20073e-20)
(1.08619 0.21825 0)
(1.05031 0.207788 9.67643e-20)
(1.02659 0.195346 2.88248e-20)
(1.00968 0.181726 5.1793e-22)
(0.983177 0.166031 -6.1402e-20)
(0.916989 0.144772 0)
(0.745857 0.112606 0)
(0.459404 0.0662374 -2.61622e-19)
(0.177568 0.0254669 6.57912e-19)
(0.0236696 0.00490925 -3.88891e-19)
(-0.0198129 -0.00144632 -4.58003e-19)
(0.527605 0.076696 -5.43427e-20)
(1.04455 0.159765 2.115e-20)
(1.26502 0.213054 1.18556e-20)
(1.32816 0.236533 1.12206e-19)
(1.32343 0.252706 1.45978e-20)
(1.28388 0.264946 -1.92527e-19)
(1.22934 0.268718 6.58362e-20)
(1.17826 0.269446 0)
(1.12701 0.265826 -1.73174e-19)
(1.0771 0.256421 1.54278e-19)
(1.03567 0.24246 -2.61134e-19)
(1.00704 0.225332 1.22452e-19)
(0.989183 0.209469 -7.9409e-20)
(0.96509 0.194049 1.7904e-19)
(0.88296 0.169118 0)
(0.697886 0.125726 -6.52158e-20)
(0.411206 0.0706566 0)
(0.15589 0.0256847 3.58819e-19)
(0.0129458 0.0032012 -8.50201e-19)
(-0.024381 -0.00336641 5.32262e-19)
(0.524446 0.108227 1.4194e-19)
(1.06816 0.217693 -6.30753e-20)
(1.28839 0.278902 -1.3767e-20)
(1.34577 0.301487 0)
(1.33591 0.315169 -8.32891e-20)
(1.29105 0.322284 1.02902e-19)
(1.23181 0.321245 -7.03316e-20)
(1.17568 0.317645 0)
(1.11938 0.310228 1.22997e-19)
(1.06508 0.297015 -1.08343e-19)
(1.01949 0.278024 2.25755e-19)
(0.990319 0.258215 0)
(0.968592 0.240851 -1.68692e-19)
(0.931751 0.220011 9.50812e-20)
(0.849299 0.188745 2.39209e-19)
(0.664482 0.141093 -2.10469e-19)
(0.391397 0.0792115 3.32329e-19)
(0.15205 0.0288235 -7.35081e-19)
(0.0116752 0.00248983 4.64985e-19)
(-0.0259395 -0.00527277 -5.81641e-19)
(0.510965 0.132247 -4.27667e-20)
(1.07223 0.270066 3.02778e-20)
(1.29797 0.343843 -4.59742e-20)
(1.3548 0.367169 9.45946e-20)
(1.34185 0.379056 -9.10578e-20)
(1.29344 0.380907 3.21604e-20)
(1.23059 0.375073 3.75627e-21)
(1.17069 0.367237 -1.38087e-19)
(1.11052 0.355099 -1.28566e-19)
(1.05227 0.33699 -2.32141e-19)
(1.00341 0.314408 -4.85314e-19)
(0.968339 0.292282 -1.49794e-19)
(0.944388 0.271536 2.2174e-21)
(0.914433 0.249581 -3.25336e-19)
(0.82479 0.217129 -5.17403e-21)
(0.641989 0.158712 3.06143e-19)
(0.38429 0.0900386 -9.18948e-20)
(0.156208 0.0349786 -5.3219e-20)
(0.0180683 0.00297018 0)
(-0.0238549 -0.00610272 1.23646e-18)
(0.495526 0.153607 0)
(1.07003 0.321429 -3.23001e-22)
(1.30144 0.408111 -6.34696e-21)
(1.35731 0.431464 -1.29413e-20)
(1.34184 0.441684 8.69206e-20)
(1.29091 0.439278 -7.55676e-20)
(1.22528 0.429139 7.64942e-20)
(1.16226 0.416739 2.26881e-19)
(1.09894 0.400302 -7.15165e-20)
(1.03724 0.377894 1.14454e-19)
(0.983618 0.350707 2.60818e-19)
(0.947573 0.324828 3.26647e-19)
(0.921992 0.303327 -1.96852e-19)
(0.880605 0.277327 3.52373e-19)
(0.796412 0.237702 -2.79286e-19)
(0.622144 0.179648 0)
(0.380005 0.104645 -6.97846e-19)
(0.165724 0.0435331 9.39309e-19)
(0.0289998 0.00636758 7.01021e-20)
(-0.0191457 -0.00599148 -1.30799e-18)
(0.478852 0.172968 -5.11559e-21)
(1.05824 0.367576 -1.95268e-20)
(1.29705 0.467842 4.56916e-20)
(1.3544 0.493292 -6.9319e-20)
(1.33713 0.503056 7.33586e-20)
(1.2845 0.496368 -7.2535e-20)
(1.217 0.481973 1.50754e-19)
(1.15174 0.465539 -6.75008e-20)
(1.08519 0.444842 -2.8858e-19)
(1.01888 0.417819 -3.12707e-22)
(0.962143 0.386902 -2.83842e-19)
(0.923511 0.359414 -3.51734e-19)
(0.895284 0.333411 2.1764e-19)
(0.861967 0.306915 -1.26783e-19)
(0.774144 0.267634 3.04046e-19)
(0.606817 0.199028 0)
(0.378666 0.120668 -4.33967e-19)
(0.175213 0.0534598 6.40972e-19)
(0.0400391 0.0111746 1.21213e-18)
(-0.01385 -0.00515745 -1.42555e-18)
(0.465668 0.19117 -9.68735e-20)
(1.04851 0.413953 4.31311e-20)
(1.29083 0.526517 -2.54897e-20)
(1.34789 0.552622 7.10902e-20)
(1.329 0.56115 1.21887e-20)
(1.27508 0.551117 -1.41394e-19)
(1.20578 0.53346 -8.79209e-20)
(1.13803 0.513309 -8.72333e-20)
(1.06877 0.488892 -1.63517e-19)
(1.00065 0.458106 2.62937e-19)
(0.942534 0.42294 2.865e-19)
(0.901945 0.391443 5.58069e-19)
(0.87157 0.364326 0)
(0.828244 0.335017 6.47841e-21)
(0.747746 0.287937 -8.36382e-19)
(0.590409 0.221315 1.96365e-19)
(0.376536 0.136853 9.42142e-19)
(0.183717 0.0646384 -2.78048e-19)
(0.0508432 0.0171267 5.76785e-19)
(-0.00831707 -0.00362699 -4.80576e-20)
(0.453477 0.207981 5.83031e-21)
(1.03327 0.454456 6.16762e-20)
(1.28014 0.580254 -5.385e-21)
(1.33828 0.608986 6.79658e-20)
(1.31806 0.617495 -1.35872e-19)
(1.26302 0.60407 1.39649e-19)
(1.19243 0.582953 9.0977e-20)
(1.12336 0.559377 2.59825e-19)
(1.05236 0.531208 3.27177e-19)
(0.981164 0.496018 -3.04689e-19)
(0.919548 0.457321 0)
(0.875725 0.423563 -2.11676e-19)
(0.844993 0.392524 2.43029e-19)
(0.810257 0.361598 3.07192e-19)
(0.726867 0.317631 -1.77807e-19)
(0.575716 0.240338 -4.32172e-19)
(0.373572 0.153441 -1.2874e-19)
(0.190147 0.0759814 -2.00237e-21)
(0.0598058 0.0235072 0)
(-0.00340372 -0.00184157 0)
(0.445615 0.224616 -8.69304e-20)
(1.02257 0.496081 0)
(1.26947 0.633015 1.00404e-20)
(1.32674 0.662817 -1.70828e-20)
(1.30537 0.670067 1.56659e-19)
(1.24956 0.653948 -3.9323e-20)
(1.17793 0.630349 9.24268e-20)
(1.10741 0.603773 -1.75506e-19)
(1.03447 0.572552 2.48046e-19)
(0.961299 0.534282 -1.00982e-19)
(0.897932 0.492472 1.64461e-19)
(0.853749 0.454241 6.7206e-19)
(0.82107 0.422183 1.43389e-20)
(0.777315 0.388187 -3.20727e-19)
(0.70174 0.335223 5.94001e-19)
(0.558529 0.262222 3.51931e-21)
(0.368452 0.168821 1.37734e-19)
(0.1936 0.0873121 -6.56586e-19)
(0.0661092 0.0294764 6.76586e-19)
(0.000507911 -7.24401e-05 -7.97039e-19)
(0.437781 0.240867 2.42379e-23)
(1.00832 0.532059 0)
(1.25608 0.680634 0)
(1.31352 0.713534 2.72818e-21)
(1.29126 0.720824 -4.50152e-20)
(1.23475 0.701982 6.4475e-20)
(1.16242 0.675514 -1.70614e-19)
(1.09112 0.646113 0)
(1.01666 0.611989 -3.66149e-19)
(0.94071 0.570222 4.41913e-19)
(0.874295 0.524597 4.70542e-19)
(0.827423 0.483507 -2.46806e-19)
(0.794053 0.447955 -2.99358e-19)
(0.759066 0.411616 7.02246e-19)
(0.680282 0.363127 -2.11302e-19)
(0.541587 0.27851 -2.51771e-19)
(0.360508 0.18329 -1.50528e-19)
(0.193363 0.0968108 -7.09702e-19)
(0.0695233 0.0345201 1.0404e-19)
(0.00333088 0.00142435 8.63185e-19)
(0.432852 0.258413 -4.18199e-20)
(0.998339 0.569644 -5.64561e-20)
(1.24349 0.727543 2.37552e-20)
(1.29957 0.761734 -2.04947e-22)
(1.27659 0.767723 -5.07457e-20)
(1.21968 0.746688 1.01117e-19)
(1.14674 0.718338 0)
(1.07428 0.686658 1.06562e-19)
(0.998104 0.650146 -8.40245e-20)
(0.920776 0.605933 7.3813e-19)
(0.852697 0.557555 -1.0622e-19)
(0.804987 0.513071 1.22305e-19)
(0.770236 0.475351 0)
(0.72627 0.435507 -3.80408e-19)
(0.654401 0.376201 4.6111e-19)
(0.522722 0.297252 0)
(0.350559 0.195222 -3.24091e-19)
(0.190485 0.104849 9.54006e-19)
(0.0701381 0.0384094 1.13401e-19)
(0.00496876 0.00245886 -1.06425e-18)
(0.429263 0.275572 -1.03801e-19)
(0.986127 0.602081 1.3201e-19)
(1.22924 0.769425 0)
(1.28501 0.806653 2.57864e-20)
(1.2614 0.812859 0)
(1.20391 0.789731 -1.33924e-19)
(1.13046 0.759039 0)
(1.05741 0.725043 0)
(0.979946 0.686291 -1.12216e-19)
(0.900001 0.639506 -7.01883e-19)
(0.82849 0.587914 -8.70416e-19)
(0.778014 0.539769 1.43481e-19)
(0.742501 0.497738 5.1849e-19)
(0.707699 0.454905 4.19462e-19)
(0.632429 0.400612 -1.48002e-18)
(0.504131 0.308278 -5.91677e-19)
(0.338903 0.205801 3.46917e-19)
(0.185152 0.110832 0)
(0.0688323 0.0407907 9.72737e-19)
(0.00558036 0.00314101 -1.14755e-18)
(0.427412 0.291134 1.22643e-19)
(0.977636 0.636058 -1.52321e-19)
(1.21629 0.810972 0)
(1.27038 0.849258 -1.13271e-20)
(1.24616 0.854305 -4.7513e-21)
(1.18841 0.829445 0)
(1.11458 0.797337 5.27981e-20)
(1.0406 0.76167 7.45918e-20)
(0.961732 0.721172 -2.10444e-19)
(0.880655 0.672641 9.27967e-20)
(0.807522 0.618346 0)
(0.75544 0.567287 5.94736e-19)
(0.718674 0.522957 6.00157e-21)
(0.674166 0.475568 2.26412e-19)
(0.606518 0.407568 2.68599e-19)
(0.484126 0.321926 0)
(0.326505 0.212638 -5.65014e-19)
(0.178236 0.115016 1.10681e-18)
(0.066439 0.0420136 -1.17415e-18)
(0.00546926 0.00349347 2.47211e-18)
(0.425741 0.305971 0)
(0.966852 0.665008 0)
(1.20237 0.847575 -7.52924e-20)
(1.25572 0.888639 0)
(1.23091 0.894094 0)
(1.17264 0.867691 -1.0716e-19)
(1.09847 0.833726 5.40017e-20)
(1.02419 0.796206 1.78493e-20)
(0.944358 0.754071 -4.78833e-20)
(0.860626 0.703735 0)
(0.783549 0.647037 -1.33073e-19)
(0.727912 0.592765 -4.85201e-19)
(0.689086 0.541772 -5.84994e-19)
(0.654653 0.489926 -2.35448e-19)
(0.583934 0.427325 2.90866e-19)
(0.465083 0.325767 -6.85155e-19)
(0.314368 0.217257 1.21616e-18)
(0.17102 0.116245 1.56673e-21)
(0.0634576 0.0427473 -1.12341e-18)
(0.00526813 0.00387675 -1.66705e-19)
(0.424639 0.320121 0)
(0.959314 0.695862 -1.2318e-19)
(1.18997 0.884257 9.12229e-20)
(1.24132 0.926096 0)
(1.21593 0.930503 0)
(1.15753 0.902734 2.13051e-19)
(1.08327 0.86775 0)
(1.00834 0.829082 0)
(0.92717 0.785789 -4.62306e-19)
(0.842047 0.734367 1.29227e-19)
(0.763243 0.675563 -1.17987e-18)
(0.70512 0.618133 0)
(0.664796 0.56522 -6.36945e-19)
(0.619273 0.507224 1.01611e-20)
(0.556539 0.426244 -9.36663e-19)
(0.44499 0.332012 3.68432e-19)
(0.303218 0.216484 1.22429e-21)
(0.167598 0.114309 -1.26496e-18)
(0.0619734 0.0410387 6.044e-19)
(0.00337168 0.0016589 1.78275e-19)
(0.423335 0.33407 0)
(0.94982 0.722036 -1.6706e-19)
(1.17692 0.916246 9.60513e-20)
(1.22726 0.96052 1.34146e-19)
(1.20133 0.965411 -6.23791e-21)
(1.14253 0.936516 2.10357e-20)
(1.0681 0.90011 -3.05588e-20)
(0.992978 0.86001 4.3694e-19)
(0.910916 0.815539 4.94536e-19)
(0.823235 0.76291 9.83156e-19)
(0.740512 0.702857 9.80295e-19)
(0.677653 0.642788 1.72753e-19)
(0.632926 0.582293 9.16134e-19)
(0.597362 0.516736 5.6661e-19)
(0.531085 0.440257 6.72158e-19)
(0.425537 0.324868 -4.03093e-19)
(0.291739 0.209281 -4.64369e-19)
(0.168149 0.111323 5.45627e-19)
(0.0696261 0.0487816 -3.24932e-19)
(0.0107319 0.0111323 5.7779e-19)
(0.422447 0.347522 2.33284e-19)
(0.943287 0.750166 2.61911e-19)
(1.16539 0.948766 5.51143e-20)
(1.21362 0.99344 1.5563e-20)
(1.18718 0.997302 -1.40596e-20)
(1.12839 0.9673 -5.87851e-20)
(1.05404 0.930194 2.91538e-20)
(0.978382 0.889363 -1.92236e-20)
(0.895015 0.844194 -5.76324e-19)
(0.805941 0.791185 -1.0674e-18)
(0.721111 0.729953 6.80421e-20)
(0.654873 0.666706 0)
(0.608024 0.605107 0)
(0.557811 0.532802 -2.95725e-19)
(0.498276 0.430005 -1.10251e-18)
(0.4035 0.319177 8.68379e-19)
(0.289592 0.1911 5.08617e-19)
(0.180001 0.0905033 0)
(0.0865731 0.0191602 1.03992e-18)
(0.00456142 -0.0156894 -6.15815e-19)
(0.421352 0.360585 -1.23802e-19)
(0.934931 0.773622 1.0919e-19)
(1.15329 0.976724 -1.31619e-19)
(1.20049 1.02348 -1.10681e-19)
(1.17364 1.02784 -2.07809e-20)
(1.11454 0.997004 -1.88291e-20)
(1.04008 0.958828 0)
(0.964271 0.916935 -5.49497e-19)
(0.880182 0.870977 6.97363e-20)
(0.788864 0.81723 0)
(0.700216 0.755737 0)
(0.628439 0.6915 1.10815e-19)
(0.573504 0.622307 1.49089e-19)
(0.531236 0.539198 -3.19964e-19)
(0.465885 0.440313 7.91236e-19)
(0.375194 0.296621 -9.46692e-19)
(0.272446 0.165977 -1.09127e-18)
(0.201381 0.0785491 9.67075e-19)
(0.154551 0.0713214 -3.6964e-19)
(0.110615 0.0755853 2.15031e-19)
(0.420597 0.372787 1.53654e-19)
(0.929179 0.798974 0)
(1.14267 1.00556 0)
(1.18783 1.05237 -3.10968e-20)
(1.16055 1.05568 2.51746e-20)
(1.10154 1.02392 -1.99203e-20)
(1.02729 0.985288 1.33407e-19)
(0.95109 0.943012 5.6198e-19)
(0.865904 0.896773 1.04627e-18)
(0.773257 0.843199 -8.07549e-20)
(0.682121 0.781641 1.67404e-19)
(0.606459 0.715217 -9.92595e-19)
(0.548695 0.646304 -9.91993e-19)
(0.48583 0.558148 -1.72133e-19)
(0.418342 0.423251 0)
(0.339141 0.286095 -4.68156e-21)
(0.253982 0.0925454 6.02691e-19)
(0.245049 -0.0253535 -1.0115e-18)
(0.211595 -0.107572 7.6854e-19)
(0.0880343 -0.0992605 6.36013e-19)
(0.41942 0.384725 -3.38807e-19)
(0.921513 0.819677 -1.52368e-19)
(1.13138 1.02996 6.91244e-21)
(1.17563 1.07869 6.13713e-20)
(1.14801 1.08259 0)
(1.08871 1.0503 -4.80486e-20)
(1.01435 1.01096 -1.93802e-19)
(0.938061 0.96805 -2.27768e-21)
(0.852302 0.92148 -5.48135e-19)
(0.757564 0.867621 -7.93323e-20)
(0.66289 0.806668 7.36876e-20)
(0.581402 0.741959 8.72197e-19)
(0.510912 0.666739 9.67592e-19)
(0.45275 0.564663 1.68148e-19)
(0.377031 0.441463 8.58032e-19)
(0.275985 0.250886 0)
(0.149452 0.0745622 0)
(-0.00985026 0.17863 6.91441e-19)
(-0.078698 0.629872 -2.73469e-20)
(0.00941166 1.54386 -8.58073e-19)
(0.418684 0.395871 1.86843e-19)
(0.916342 0.842669 4.30229e-19)
(1.1215 1.05591 -5.9545e-19)
(1.16375 1.10458 3.03658e-19)
(1.13565 1.10762 -1.09318e-20)
(1.07642 1.07474 1.74985e-21)
(1.00229 1.03538 0)
(0.925658 0.992651 -4.67877e-19)
(0.838858 0.946503 0)
(0.742804 0.893685 1.11466e-18)
(0.645138 0.834096 -9.03632e-20)
(0.558851 0.768602 1.01326e-19)
(0.486119 0.696885 1.11443e-18)
(0.397844 0.598223 -3.65449e-19)
(0.286473 0.425971 -4.35619e-19)
(0.184951 0.301201 0)
(0.0756096 0.464671 0)
(0.0245649 1.35769 0)
(0.0711809 2.47244 -3.92423e-19)
(0.0976745 2.91511 -2.42389e-19)
(0.417191 0.406552 0)
(0.90918 0.860861 0)
(1.11091 1.07734 2.16753e-19)
(1.15238 1.12801 -2.47226e-19)
(1.12392 1.13192 1.15139e-19)
(1.06439 1.09894 7.24801e-21)
(0.990122 1.05935 2.54404e-20)
(0.91341 1.01656 -1.9807e-20)
(0.826153 0.970746 7.788e-20)
(0.728132 0.918468 -1.2793e-18)
(0.627115 0.860534 1.63529e-19)
(0.535198 0.800236 8.76953e-19)
(0.444732 0.725991 -1.10971e-18)
(0.360137 0.606634 -1.2261e-18)
(0.264534 0.48305 4.11863e-19)
(0.181295 0.627685 0)
(0.113889 1.58471 5.61248e-19)
(0.118572 2.70036 6.06377e-19)
(0.126001 3.09029 -6.77493e-19)
(0.118683 3.22331 7.22038e-19)
(0.416215 0.41695 0)
(0.904527 0.881579 3.76609e-19)
(1.1018 1.10072 -5.43284e-20)
(1.14135 1.15124 3.41865e-19)
(1.11241 1.15445 -1.20857e-19)
(1.05297 1.12118 0)
(0.97898 1.08193 0)
(0.901997 1.03979 0)
(0.813862 0.99505 4.35638e-19)
(0.714875 0.944744 5.87706e-20)
(0.610872 0.889496 0)
(0.51364 0.829148 -8.71524e-19)
(0.427117 0.760469 0)
(0.304509 0.652091 8.77247e-19)
(0.200539 0.701911 -5.94561e-19)
(0.145735 1.4658 -4.76482e-19)
(0.149655 2.68701 -1.0974e-18)
(0.173065 3.12614 -5.76657e-19)
(0.163664 3.26549 -7.75449e-19)
(0.150688 3.30569 5.66473e-19)
(0.414605 0.426317 -1.31084e-19)
(0.897769 0.897284 1.48823e-20)
(1.09191 1.11936 -6.02391e-20)
(1.1309 1.17201 -2.65074e-19)
(1.10162 1.17636 0)
(1.0419 1.14331 0)
(0.967737 1.1042 0)
(0.890739 1.06245 3.30296e-20)
(0.802368 1.01858 -5.51016e-19)
(0.701662 0.969539 0)
(0.594935 0.916873 0)
(0.495013 0.864851 0)
(0.383229 0.791936 0)
(0.308914 0.744296 6.44053e-19)
(0.266183 1.14188 1.58033e-18)
(0.239285 2.399 4.64165e-19)
(0.256131 3.08168 9.28938e-19)
(0.25078 3.27905 -7.11381e-19)
(0.202501 3.34445 2.60454e-19)
(0.170781 3.3576 0)
(0.413461 0.43555 1.34689e-19)
(0.893474 0.916469 -8.33716e-19)
(1.08337 1.14113 -2.24957e-19)
(1.12052 1.19349 -4.9898e-20)
(1.09076 1.19722 2.80835e-20)
(1.03117 1.16409 -1.11625e-19)
(0.957373 1.12557 -7.72994e-22)
(0.88022 1.08477 -3.61408e-19)
(0.791164 1.04246 0)
(0.689978 0.996149 -7.53488e-20)
(0.58125 0.947437 6.85457e-20)
(0.475948 0.894077 0)
(0.382126 0.834448 0)
(0.321164 0.935835 -8.0694e-19)
(0.266795 1.85248 1.00912e-19)
(0.26321 2.94475 -3.48983e-19)
(0.287968 3.28225 7.29435e-19)
(0.25941 3.38047 5.22811e-19)
(0.194885 3.40503 -7.06839e-19)
(0.170483 3.41517 3.48817e-19)
(0.411387 0.445039 2.63831e-19)
(0.886087 0.931402 8.11172e-19)
(1.073 1.15909 2.70659e-19)
(1.10989 1.2139 0)
(1.0799 1.219 0)
(1.0201 1.18619 8.65623e-20)
(0.9462 1.14787 5.36996e-20)
(0.869237 1.10762 3.21792e-19)
(0.780318 1.06639 2.13027e-20)
(0.677944 1.02176 9.59604e-19)
(0.56781 0.975977 -1.14406e-18)
(0.457406 0.928542 0)
(0.378853 0.912785 0)
(0.333478 1.31079 -5.50302e-19)
(0.329384 2.49515 -6.60948e-19)
(0.373941 3.19458 0)
(0.398961 3.36285 -7.36737e-19)
(0.328292 3.42572 5.08408e-20)
(0.259975 3.47123 3.39085e-19)
(0.237863 3.49668 -1.10251e-19)
(0.409607 0.454849 -5.01309e-19)
(0.881188 0.952644 -3.89131e-19)
(1.06339 1.18312 0)
(1.09828 1.23705 0)
(1.06787 1.24118 0)
(1.00841 1.20808 0)
(0.935184 1.17029 -6.48451e-20)
(0.858356 1.13091 2.79826e-19)
(0.76911 1.09132 0)
(0.667126 1.04975 -8.73407e-19)
(0.55668 1.00849 2.05313e-18)
(0.446641 0.968665 8.41882e-20)
(0.395682 1.03338 1.13477e-19)
(0.385217 1.74285 8.96461e-19)
(0.396059 2.9016 -4.82074e-19)
(0.435829 3.31418 0)
(0.418957 3.43569 2.06974e-19)
(0.333204 3.52475 9.1177e-20)
(0.259384 3.58886 1.49095e-19)
(0.183917 3.56832 -1.55964e-20)
(0.406618 0.465211 2.38174e-19)
(0.871824 0.968484 -3.96107e-19)
(1.051 1.20223 0)
(1.08602 1.25902 -7.31245e-20)
(1.05554 1.26468 2.52548e-19)
(0.996025 1.23175 0)
(0.922881 1.19392 0)
(0.846615 1.15502 -4.84854e-19)
(0.758083 1.11638 -5.56209e-20)
(0.65579 1.07646 8.56347e-19)
(0.542388 1.03745 -9.75317e-19)
(0.451223 1.01798 5.73384e-19)
(0.411867 1.22198 0)
(0.420113 2.18685 -4.75302e-19)
(0.462229 3.14292 3.11779e-19)
(0.527119 3.41619 1.95518e-19)
(0.518214 3.51169 0)
(0.455732 3.59368 -3.72096e-20)
(0.386838 3.63346 -4.10128e-19)
(0.306477 3.60556 -9.66267e-20)
(0.403898 0.475753 -4.73212e-19)
(0.86581 0.992747 5.66887e-19)