/*--------------------------------*- C++ -*----------------------------------*\
  =========                 |
  \\      /  F ield         | OpenFOAM: The Open Source CFD Toolbox
   \\    /   O peration     | Website:  https://openfoam.org
    \\  /    A nd           | Version:  10
     \\/     M anipulation  |
\*---------------------------------------------------------------------------*/
FoamFile
{
    format      ascii;
    class       volScalarField;
    location    "10";
    object      p;
}
// * * * * * * * * * * * * * * * * * * * * * * * * * * * * * * * * * * * * * //

dimensions      [1 -1 -2 0 0 0 0];

internalField   nonuniform List<scalar> 
16128
(
1
1
1
1
1
1
1
1
1
1
1
1
1
1
1
1
1
1
1
1
1
1
1
1
4.94972
10.2677
10.5305
10.6173
10.7337
10.8393
10.9426
11.0412
11.1362
11.2282
11.3159
11.3969
11.4716
11.5441
11.6165
11.6856
11.747
11.8005
11.8506
11.8993
11.9463
11.9808
12.0006
12.0174
1
1
1
1
1
1
1
1
1
1
1
1
1
1
1
1
1
1
1
1
1
1
1
1
4.87243
10.2315
10.5239
10.6126
10.7288
10.8343
10.9373
11.0357
11.1305
11.2219
11.3088
11.3894
11.4643
11.5368
11.6079
11.6745
11.7344
11.7883
11.84
11.8888
11.9335
11.9648
11.9826
12.0011
1
1
1
1
1
1
1
1
1
1
1
1
1
1
1
1
1
1
1
1
1
1
1
1
4.70262
10.1891
10.508
10.5992
10.7161
10.8222
10.9255
11.0242
11.119
11.2099
11.2963
11.3771
11.4529
11.5253
11.5941
11.6581
11.7174
11.7725
11.8249
11.8714
11.9113
11.9392
11.9547
11.9788
1
1
1
1
1
1
1
1
1
1
1
1
1
1
1
1
1
1
1
1
1
1
1
1
4.45539
10.1207
10.4892
10.5825
10.6996
10.8055
10.9082
11.0064
11.1006
11.1905
11.2759
11.3565
11.4327
11.5047
11.5717
11.6339
11.6931
11.7493
11.8016
11.8452
11.8794
11.9035
11.916
11.9431
1
1
1
1
1
1
1
1
1
1
1
1
1
1
1
1
1
1
1
1
1
1
1
1
4.13606
10.0174
10.4666
10.5618
10.6788
10.7842
10.8858
10.9829
11.0759
11.1646
11.2485
11.3278
11.4033
11.4742
11.5397
11.6004
11.6589
11.7146
11.7659
11.807
11.8372
11.8593
11.8728
11.9073
1
1
1
1
1
1
1
1
1
1
1
1
1
1
1
1
1
1
1
1
1
1
1
1
3.74595
9.86691
10.4425
10.5393
10.6566
10.7616
10.8623
10.9583
11.0503
11.1376
11.2199
11.2972
11.3707
11.4398
11.5036
11.5622
11.6183
11.6718
11.7219
11.7618
11.7876
11.8031
11.8002
11.8561
1
1
1
1
1
1
1
1
1
1
1
1
1
1
1
1
1
1
1
1
1
1
1
1
3.30114
9.64583
10.4163
10.5126
10.6292
10.7323
10.8312
10.9254
11.0155
11.1009
11.1813
11.256
11.3268
11.394
11.4566
11.5137
11.567
11.6167
11.6636
11.7023
11.728
11.7478
11.7238
11.7851
1
1
1
1
1
1
1
1
1
1
1
1
1
1
1
1
1
1
1
1
1
1
1
1
2.81643
9.33115
10.3975
10.4866
10.6002
10.6989
10.7936
10.8837
10.9704
11.0528
11.1308
11.2029
11.2709
11.3358
11.3972
11.453
11.5039
11.5503
11.594
11.6311
11.6544
11.6721
11.6348
11.7026
1
1
1
1
1
1
1
1
1
1
1
1
1
1
1
1
1
1
1
1
1
1
1
1
2.32373
8.90606
10.4081
10.4648
10.5739
10.6674
10.7594
10.8461
10.9288
11.007
11.0812
11.149
11.2122
11.2722
11.3296
11.3818
11.4287
11.4706
11.5099
11.5437
11.5644
11.5797
11.5338
11.6049
1
1
1
1
1
1
1
1
1
1
1
1
1
1
1
1
1
1
1
1
1
1
1
1
1.82246
8.33415
10.4183
10.4386
10.5442
10.6289
10.7164
10.7999
10.8801
10.955
11.0255
11.0896
11.1477
11.2014
11.2526
11.2992
11.3409
11.3781
11.4127
11.4417
11.4565
11.4665
11.4166
11.4735
1
1
1
1
1
1
1
1
1
1
1
1
1
1
1
1
1
1
1
1
1
1
1
1
1.3554
7.69185
10.4669
10.3874
10.4868
10.5694
10.6595
10.7432
10.8209
10.8932
10.9606
11.0215
11.0753
11.123
11.1667
11.2059
11.2403
11.2704
11.2959
11.3156
11.3214
11.3212
11.2636
11.3296
1
1
1
1
1
1
1
1
1
1
1
1
1
1
1
1
1
1
1
1
1
1
1
1
1.02258
6.90407
10.3248
10.3172
10.4168
10.4986
10.585
10.6692
10.7498
10.8216
10.8855
10.9428
10.9925
11.0342
11.07
11.1001
11.1241
11.1449
11.1604
11.1733
11.1704
11.1534
11.0794
11.1293
1
1
1
1
1
1
1
1
1
1
1
1
1
1
1
1
1
1
1
1
1
1
1
1
1.00012
5.86875
10.1016
10.2315
10.3436
10.4403
10.5258
10.604
10.67
10.7367
10.798
10.8514
10.8968
10.9329
10.9609
10.9811
10.9932
11.0013
10.9998
10.9923
10.9629
10.9245
10.8339
10.8924
1
1
1
1
1
1
1
1
1
1
1
1
1
1
1
1
1
1
1
1
1
1
1
1
0.999999
4.81425
9.83097
10.1452
10.2589
10.3601
10.4406
10.5128
10.5814
10.6425
10.6953
10.7434
10.7841
10.8146
10.8353
10.8455
10.8427
10.8335
10.8102
10.7823
10.7342
10.6724
10.5425
10.5137
1
1
1
1
1
1
1
1
1
1
1
1
1
1
1
1
1
1
1
1
1
1
1
1
1
3.7187
9.40656
10.0997
10.2265
10.3155
10.3844
10.4411
10.4918
10.5391
10.5862
10.6259
10.658
10.6818
10.6947
10.6919
10.6738
10.6453
10.5958
10.5335
10.4281
10.2734
10.058
9.99215
1
1
1
1
1
1
1
1
1
1
1
1
1
1
1
1
1
1
1
1
1
1
1
1
1
2.62817
8.74659
10.0884
10.1686
10.2474
10.3149
10.3681
10.4111
10.4473
10.4778
10.505
10.5248
10.5381
10.5372
10.5211
10.4858
10.4324
10.3462
10.2348
10.0665
9.86648
9.55123
9.50686
1
1
1
1
1
1
1
1
1
1
1
1
1
1
1
1
1
1
1
1
1
1
1
1
1
1.60187
7.94419
10.1719
10.1182
10.1902
10.2472
10.2893
10.3232
10.3512
10.3722
10.3874
10.3931
10.3925
10.3729
10.3402
10.2824
10.2005
10.076
9.91909
9.6631
9.29621
8.38524
6.36039
1
1
1
1
1
1
1
1
1
1
1
1
1
1
1
1
1
1
1
1
1
1
1
1
1
1.04748
6.76875
10.1202
10.0445
10.09
10.1488
10.1935
10.226
10.2487
10.2609
10.2647
10.2578
10.2393
10.2023
10.1509
10.0679
9.95575
9.78888
9.56601
9.21078
8.5922
7.62015
5.35298
1
1
1
1
1
1
1
1
1
1
1
1
1
1
1
1
1
1
1
1
1
1
1
1
1
1.00012
5.19834
9.6461
9.86652
9.97524
10.0377
10.0855
10.1208
10.1399
10.1461
10.1408
10.1206
10.0861
10.0313
9.95999
9.85052
9.70706
9.49861
9.20975
8.78321
8.10593
7.01143
5.05851
1
1
1
1
1
1
1
1
1
1
1
1
1
1
1
1
1
1
1
1
1
1
1
1
1
0.999998
3.65865
9.19816
9.85491
9.92713
9.97638
10.0006
10.0209
10.0298
10.0282
10.0142
9.98066
9.93113
9.85809
9.76536
9.63314
9.46132
9.21772
8.88307
8.40097
7.71429
6.59625
5.07512
1
1
1
1
1
1
1
1
1
1
1
1
1
1
1
1
1
1
1
1
1
1
1
1
1
1
2.18912
8.38799
9.86675
9.85671
9.89296
9.91688
9.93257
9.92815
9.9145
9.8878
9.84112
9.77761
9.68701
9.5734
9.42197
9.22496
8.95533
8.59322
8.09403
7.40955
6.37096
5.17061
1
1
1
1
1
1
1
1
1
1
1
1
1
1
1
1
1
1
1
1
1
1
1
1
1
1
1.14964
7.138
9.92467
9.82819
9.80898
9.82407
9.82849
9.81462
9.79204
9.75591
9.70038
9.6258
9.52079
9.38935
9.22071
9.00155
8.71657
8.34048
7.84816
7.18324
6.27711
5.29218
1
1
1
1
1
1
1
1
1
1
1
1
1
1
1
1
1
1
1
1
1
1
1
1
1
1
1.00195
5.43279
9.41106
9.62293
9.68154
9.70895
9.71079
9.69452
9.66492
9.62084
9.55684
9.47233
9.35704
9.21229
9.03003
8.79771
8.50392
8.12435
7.64329
7.02314
6.25066
5.41217
1
1
1
1
1
1
1
1
1
1
1
1
1
1
1
1
1
1
1
1
1
1
1
1
1
1
0.999975
3.45958
8.86692
9.56336
9.61574
9.63309
9.6206
9.59462
9.55446
9.50045
9.42597
9.33034
9.20563
9.04968
8.85543
8.61493
8.31815
7.94501
7.47589
6.91072
6.24933
5.51806
1
1
1
1
1
1
1
1
1
1
1
1
1
1
1
1
1
1
1
1
1
1
1
1
1
1
0.999994
1.75188
8.01502
9.62298
9.55461
9.54341
9.51807
9.48353
9.4354
9.37419
9.29245
9.18885
9.05646
8.89313
8.6924
8.44905
8.15505
7.7947
7.3447
6.83161
6.2514
5.61801
1
1
1
1
1
1
1
1
1
1
1
1
1
1
1
1
1
1
1
1
1
1
1
1
1
1
0.999999
1.0569
6.39386
9.40172
9.38368
9.40859
9.39169
9.36597
9.31828
9.25322
9.16658
9.05801
8.92035
8.75173
8.54661
8.30238
8.01241
7.66272
7.24367
6.77628
6.25361
5.70363
1
1
1
1
1
1
1
1
1
1
1
1
1
1
1
1
1
1
1
1
1
1
1
1
1
1
1
1.0001
4.13161
8.87011
9.31042
9.34327
9.3137
9.27728
9.21977
9.14501
9.04952
8.93324
8.79157
8.6206
8.41359
8.17484
7.88687
7.54704
7.16261
6.73688
6.26162
5.77822
1
1
1
1
1
1
1
1
1
1
1
1
1
1
1
1
1
1
1
1
1
1
1
1
1
1
1
0.999998
2.03067
8.12602
9.3335
9.26088
9.21441
9.17251
9.11403
9.03547
8.93495
8.81439
8.66808
8.50015
8.2927
8.05949
7.77356
7.44889
7.0938
6.70464
6.26559
5.83652
1
1
1
1
1
1
1
1
1
1
1
1
1
1
1
1
1
1
1
1
1
1
1
1
1
1
1
1
1.09501
6.37884
9.14015
9.1386
9.10877
9.07069
9.01308
8.93253
8.82855
8.70498
8.55745
8.38621
8.18709
7.95411
7.67999
7.37249
7.04105
6.67828
6.27606
5.88752
1
1
1
1
1
1
1
1
1
1
1
1
1
1
1
1
1
1
1
1
1
1
1
1
1
1
1
1
1.00048
3.82945
8.5997
9.05264
9.02846
9.00102
8.94301
8.85229
8.73819
8.60685
8.45455
8.2811
8.08829
7.85573
7.59659
7.30715
6.99703
6.65303
6.28743
5.92592
1
1
1
1
1
1
1
1
1
1
1
1
1
1
1
1
1
1
1
1
1
1
1
1
1
1
1
1
0.999996
1.59922
7.69076
9.18429
9.00354
8.92389
8.85149
8.75353
8.63916
8.51041
8.36083
8.18567
7.99757
7.77303
7.52642
7.25378
6.96222
6.63727
6.30243
5.96062
1
1
1
1
1
1
1
1
1
1
1
1
1
1
1
1
1
1
1
1
1
1
1
1
1
1
1
1
0.999999
1.03156
5.72589
8.76009
8.79353
8.81482
8.74729
8.64937
8.54062
8.41795
8.27158
8.10194
7.91175
7.69956
7.46305
7.20461
6.92792
6.62327
6.31083
5.98757
1
1
1
1
1
1
1
1
1
1
1
1
1
1
1
1
1
1
1
1
1
1
1
1
1
1
1
1
1
0.999945
2.9551
8.10099
8.78559
8.76231
8.67462
8.57962
8.47476
8.35187
8.20383
8.03387
7.84342
7.63427
7.40532
7.16001
6.89676
6.61167
6.31676
6.01173
1
1
1
1
1
1
1
1
1
1
1
1
1
1
1
1
1
1
1
1
1
1
1
1
1
1
1
1
1
0.999983
1.27088
6.66318
8.82955
8.68168
8.58841
8.49828
8.39676
8.27514
8.1292
7.96328
7.77937
7.57662
7.355
7.11917
6.86675
6.59631
6.31528
6.02602
1
1
1
1
1
1
1
1
1
1
1
1
1
1
1
1
1
1
1
1
1
1
1
1
1
1
1
1
1
0.999997
1.00584
4.07714
8.25131
8.51462
8.4885
8.43051
8.33759
8.21612
8.07055
7.90743
7.7273
7.52854
7.31174
7.08138
6.83705
6.57899
6.31051
6.03637
1
1
1
1
1
1
1
1
1
1
1
1
1
1
1
1
1
1
1
1
1
1
1
1
1
1
1
1
1
1
0.999981
1.59007
7.15708
8.64649
8.49612
8.39909
8.28899
8.15715
8.0095
7.84905
7.67334
7.48013
7.27079
7.04671
6.80991
6.5624
6.30732
6.05218
1
1
1
1
1
1
1
1
1
1
1
1
1
1
1
1
1
1
1
1
1
1
1
1
1
1
1
1
1
1
0.999995
1.02872
4.8498
8.25291
8.34651
8.30232
8.21002
8.08875
7.94905
7.79477
7.62339
7.43499
7.23099
7.01238
6.78136
6.5446
6.31023
6.09084
1
1
1
1
1
1
1
1
1
1
1
1
1
1
1
1
1
1
1
1
1
1
1
1
1
1
1
1
1
1
0.999999
1.00002
1.90965
7.39223
8.45507
8.30554
8.17994
8.04967
7.90618
7.74963
7.57715
7.39026
7.19071
6.9752
6.75574
6.54372
6.36212
6.22894
1
1
1
1
1
1
1
1
1
1
1
1
1
1
1
1
1
1
1
1
1
1
1
1
1
1
1
1
1
1
1
1
1.0643
5.29871
8.18307
8.19021
8.10549
7.98757
7.84958
7.69572
7.5259
7.34145
7.14571
6.93795
6.74314
6.59253
6.52445
6.51885
1
1
1
1
1
1
1
1
1
1
1
1
1
1
1
1
1
1
1
1
1
1
1
1
1
1
1
1
1
1
1
1
1.00025
2.19233
7.37464
8.21896
8.07706
7.95
7.80939
7.65555
7.48471
7.29955
7.1058
6.92291
6.8167
6.79795
6.87364
6.92685
1
1
1
1
1
1
1
1
1
1
1
1
1
1
1
1
1
1
1
1
1
1
1
1
1
1
1
1
1
1
1
1
1
1.10425
5.38733
8.05142
8.01097
7.89382
7.75963
7.60617
7.43554
7.24832
7.07747
6.99352
7.01816
7.1756
7.27826
7.29819
1
1
1
1
1
1
1
1
1
1
1
1
1
1
1
1
1
1
1
1
1
1
1
1
1
1
1
1
1
1
1
1
1
1.00082
2.25171
7.19618
8.01699
7.86359
7.72747
7.56645
7.3867
7.22022
7.15406
7.23417
7.45346
7.64573
7.64069
7.56229
1
1
1
1
1
1
1
1
1
1
1
1
1
1
1
1
1
1
1
1
1
1
1
1
1
1
1
1
1
1
1
1
1
1
1.11296
5.19019
7.86603
7.8184
7.67562
7.50429
7.33328
7.26054
7.38563
7.68721
7.93893
7.99822
7.86972
7.72854
1
1
1
1
1
1
1
1
1
1
1
1
1
1
1
1
1
1
1
1
1
1
1
1
1
1
1
1
1
1
1
1
1
1
1.00108
2.15694
6.88979
7.81063
7.62441
7.44625
7.35972
7.509
7.91177
8.23792
8.35373
8.22811
8.02504
7.85731
1
1
1
1
1
1
1
1
1
1
1
1
1
1
1
1
1
1
1
1
1
1
1
1
1
1
1
1
1
1
1
1
1
1
1
1.09589
4.67235
7.62654
7.51771
7.40403
7.55035
8.05546
8.50473
8.65423
8.58069
8.36194
8.15408
7.99582
1
1
1
1
1
1
1
1
1
1
1
1
1
1
1
1
1
1
1
1
1
1
1
1
1
1
1
1
1
1
1
1
1
1
1
1.00095
1.89012
6.422
7.38036
7.57741
8.18486
8.79121
8.98323
8.90901
8.7101
8.46567
8.28227
8.14357
1
1
1
1
1
1
1
1
1
1
1
1
1
1
1
1
1
1
1
1
1
1
1
1
1
1
1
1
1
1
1
1
1
1
1
1
1.0583
3.70252
7.05888
8.27731
9.0221
9.30676
9.22119
9.04315
8.80805
8.58531
8.43401
8.30444
1
1
1
1
1
1
1
1
1
1
1
1
1
1
1
1
1
1
1
1
1
1
1
1
1
1
1
1
1
1
1
1
1
1
1
1
1.00058
1.48304
5.97845
9.16839
9.59174
9.58377
9.37192
9.14116
8.90129
8.70667
8.58622
8.46516
1
1
1
1
1
1
1
1
1
1
1
1
1
1
1
1
1
1
1
1
1
1
1
1
1
1
1
1
1
1
1
1
1
1
1
1
1
1.01825
4.1069
9.72851
9.99103
9.73819
9.46926
9.25992
9.03467
8.85636
8.73751
8.61877
1
1
1
1
1
1
1
1
1
1
1
1
1
1
1
1
1
1
1
1
1
1
1
1
1
1
1
1
1
1
1
1
1
1
1
1
1
1.00009
2.5115
9.56419
10.2198
9.85074
9.56443
9.33996
9.13639
8.98646
8.88408
8.7793
1
1
1
1
1
1
1
1
1
1
1
1
1
1
1
1
1
1
1
1
1
1
1
1
1
1
1
1
1
1
1
1
1
1
1
1
1
1
1.73662
8.62358
10.1333
9.74159
9.53622
9.40849
9.2873
9.14783
9.03491
8.9179
1
1
1
1
1
1
1
1
1
1
1
1
1
1
1
1
1
1
1
1
1
1
1
1
1
1
1
1
1
1
1
1
1
1
1
1
1
1
1.19294
7.30667
10.1109
9.77493
9.70086
9.59731
9.47181
9.31989
9.18854
9.04866
1
1
1
1
1
1
1
1
1
1
1
1
1
1
1
1
1
1
1
1
1
1
1
1
1
1
1
1
1
1
1
1
1
1
1
1
1
1
1.0067
6.01596
9.94396
9.77843
9.72645
9.62858
9.51904
9.38463
9.25051
9.11275
1
1
1
1
1
1
1
1
1
1
1
1
1
1
1
1
1
1
1
1
1
1
1
1
1
1
1
1
1
1
1
1
1
1
1
1
1
1
1.00003
4.66546
9.57986
9.79769
9.77915
9.7097
9.60786
9.49209
9.38478
9.26914
1
1
1
1
1
1
1
1
1
1
1
1
1
1
1
1
1
1
1
1
1
1
1
1
1
1
1
1
1
1
1
1
1
1
1
1
1
1
1
3.43302
9.13686
9.85597
9.78929
9.72493
9.65949
9.57641
9.45959
9.33953
1
1
1
1
1
1
1
1
1
1
1
1
1
1
1
1
1
1
1
1
1
1
1
1
1
1
1
1
1
1
1
1
1
1
1
1
1
1
1
2.28579
8.50941
10.0529
9.89832
9.80483
9.69577
9.59582
9.5017
9.40307
1
1
1
1
1
1
1
1
1
1
1
1
1
1
1
1
1
1
1
1
1
1
1
1
1
1
1
1
1
1
1
1
1
1
1
1
1
1
1
1.36694
7.7303
10.2311
9.98386
9.85948
9.74384
9.65293
9.56303
9.46503
1
1
1
1
1
1
1
1
1
1
1
1
1
1
1
1
1
1
1
1
1
1
1
1
1
1
1
1
1
1
1
1
1
1
1
1
1
1
1
1.01622
6.87276
10.1844
9.97641
9.85383
9.76318
9.68215
9.59711
9.50724
1
1
1
1
1
1
1
1
1
1
1
1
1
1
1
1
1
1
1
1
1
1
1
1
1
1
1
1
1
1
1
1
1
1
1
1
1
1
1
1.00001
5.8012
10.0397
9.98045
9.90067
9.82403
9.73321
9.64062
9.54694
1
1
1
1
1
1
1
1
1
1
1
1
1
1
1
1
1
1
1
1
1
1
1
1
1
1
1
1
1
1
1
1
1
1
1
1
1
1
1
1
4.77172
9.83923
10.0227
9.9396
9.86596
9.77599
9.68551
9.59129
1
1
1
1
1
1
1
1
1
1
1
1
1
1
1
1
1
1
1
1
1
1
1
1
1
1
1
1
1
1
1
1
1
1
1
1
1
1
1
1
3.88483
9.53746
10.051
9.9614
9.9021
9.81659
9.72825
9.63299
1
1
1
1
1
1
1
1
1
1
1
1
1
1
1
1
1
1
1
1
1
1
1
1
1
1
1
1
1
1
1
1
1
1
1
1
1
1
1
1
3.07179
9.17317
10.1264
10.0139
9.94889
9.85741
9.7679
9.67231
1
1
1
1
1
1
1
1
1
1
1
1
1
1
1
1
1
1
1
1
1
1
1
1
1
1
1
1
1
1
1
1
1
1
1
1
1
1
1
1
2.33039
8.7353
10.2564
10.0734
9.98618
9.88823
9.7963
9.70102
1
1
1
1
1
1
1
1
1
1
1
1
1
1
1
1
1
1
1
1
1
1
1
1
1
1
1
1
1
1
1
1
1
1
1
1
1
1
1
1
1.70184
8.24328
10.3523
10.131
10.0252
9.92141
9.82732
9.73382
1
1
1
1
1
1
1
1
1
1
1
1
1
1
1
1
1
1
1
1
1
1
1
1
1
1
1
1
1
1
1
1
1
1
1
1
1
1
1
1
1.30501
7.70176
10.3897
10.1516
10.0361
9.93879
9.84953
9.75858
1
1
1
1
1
1
1
1
1
1
1
1
1
1
1
1
1
1
1
1
1
1
1
1
1
1
1
1
1
1
1
1
1
1
1
1
1
1
1
1
1.10894
7.16885
10.3527
10.1558
10.0629
9.97177
9.87981
9.78607
1
1
1
1
1
1
1
1
1
1
1
1
1
1
1
1
1
1
1
1
1
1
1
1
1
1
1
1
1
1
1
1
1
1
1
1
1
1
1
1
1.00452
6.58393
10.2825
10.1729
10.0822
9.9899
9.89786
9.80785
1
1
1
1
1
1
1
1
1
1
1
1
1
1
1
1
1
1
1
1
1
1
1
1
1
1
1
1
1
1
1
1
1
1
1
1
1
1
1
1
1.00003
6.03283
10.1725
10.188
10.0843
10.0062
9.91986
9.83232
1
1
1
1
1
1
1
1
1
1
1
1
1
1
1
1
1
1
1
1
1
1
1
1
1
1
1
1
1
1
1
1
1
1
1
1
1
1
1
1
1
5.48247
10.0774
10.1901
10.0837
10.0146
9.93093
9.84668
1
1
1
1
1
1
1
1
1
1
1
1
1
1
1
1
1
1
1
1
1
1
1
1
1
1
1
1
1
1
1
1
1
1
1
1
1
1
1
1
1
4.96049
9.9985
10.2114
10.1006
10.0364
9.95529
9.87319
1
1
1
1
1
1
1
1
1
1
1
1
1
1
1
1
1
1
1
1
1
1
1
1
1
1
1
1
1
1
1
1
1
1
1
1
1
1
1
1
1
4.48775
9.90942
10.2355
10.1146
10.0485
9.96728
9.88564
1
1
1
1
1
1
1
1
1
1
1
1
1
1
1
1
1
1
1
1
1
1
1
1
1
1
1
1
1
1
1
1
1
1
1
1
1
1
1
1
1
4.07579
9.80889
10.2623
10.132
10.0635
9.9812
9.89913
1
1
1
1
1
1
1
1
1
1
1
1
1
1
1
1
1
1
1
1
1
1
1
1
1
1
1
1
1
1
1
1
1
1
1
1
1
1
1
1
1
3.72723
9.69777
10.2876
10.1485
10.0776
9.99449
9.91213
1
1
1
1
1
1
1
1
1
1
1
1
1
1
1
1
1
1
1
1
1
1
1
1
1
1
1
1
1
1
1
1
1
1
1
1
1
1
1
1
1
3.44038
9.58051
10.3093
10.1631
10.0907
10.0066
9.92376
1
1
1
1
1
1
1
1
1
1
1
1
1
1
1
1
1
1
1
1
1
1
1
1
1
1
1
1
1
1
1
1
1
1
1
1
1
1
1
1
1
3.21234
9.46323
10.3258
10.1748
10.1019
10.0172
9.93405
1
1
1
1
1
1
1
1
1
1
1
1
1
1
1
1
1
1
1
1
1
1
1
1
1
1
1
1
1
1
1
1
1
1
1
1
1
1
1
1
1
3.03721
9.35538
10.3388
10.185
10.1119
10.0267
9.9431
1
1
1
1
1
1
1
1
1
1
1
1
1
1
1
1
1
1
1
1
1
1
1
1
1
1
1
1
1
1
1
1
1
1
1
1
1
1
1
1
1
2.90072
9.26076
10.3421
10.1847
10.1113
10.0262
9.94251
1
1
1
1
1
1
1
1
1
1
1
1
1
1
1
1
1
1
1
1
1
1
1
1
1
1
1
1
1
1
1
1
1
1
1
1
1
1
1
1
1
2.77904
9.19949
10.3605
10.1989
10.1243
10.0387
9.95476
1
1
1
1
1
1
1
1
1
1
1
1
1
1
1
1
1
1
1
1
1
1
1
1
1
1
1
1
1
1
1
1
1
1
1
1
1
1
1
1
1
2.68886
9.15844
10.3666
10.2024
10.1278
10.0424
9.9587
1
1
1
1
1
1
1
1
1
1
1
1
1
1
1
1
1
1
1
1
1
1
1
1
1
1
1
1
1
1
1
1
1
1
1
1
1
1
1
1
1
2.66552
9.12427
10.3727
10.2081
10.1334
10.0477
9.96373
1.25617
0.182042
0.0185523
0.0319757
0.0691814
0.0845521
0.109452
0.146962
0.193055
0.249691
0.316351
0.391401
0.46632
0.565796
0.670306
0.724072
0.746518
0.790402
0.857075
0.942538
1.01906
1.04828
1.04129
1.02621
1.02333
1.02412
1.04455
1.11657
1.15093
1.15803
1.15642
2.13172
4.38809
4.91629
5.06974
5.16549
5.24286
5.31422
5.34841
5.34376
5.35498
5.38916
5.45357
5.53357
5.5903
5.60441
5.59075
5.5735
5.57117
5.59066
5.62087
5.64406
5.64894
5.63717
5.61976
5.60656
5.60144
5.60035
5.59762
5.58737
5.56702
5.54241
5.52131
5.50611
5.49425
5.48112
5.46317
5.4386
5.40993
5.38273
5.36104
5.34481
5.33072
5.31394
5.29047
5.25889
5.22289
5.18919
5.1626
5.14363
5.12863
5.11186
5.08833
5.05693
5.02096
4.98568
4.9538
4.92505
4.89813
4.87174
4.84426
4.81412
4.78128
4.7475
4.71395
4.67992
4.64399
4.60621
4.56875
4.53397
4.50396
4.47882
4.4552
4.4275
4.3927
4.35383
4.31385
4.27377
4.2346
4.19789
4.16622
4.14053
4.11752
4.09075
4.0578
4.02153
3.98407
3.94778
3.91365
3.8834
3.85726
3.83344
3.80827
3.77932
3.74669
3.71251
3.67706
3.64258
3.61294
3.59184
3.57401
3.55153
3.52312
3.49085
3.4556
3.42081
3.39007
3.36686
3.34888
3.32809
3.30425
3.27866
3.25124
3.22241
3.19495
3.16967
3.14501
3.1207
3.09585
3.06764
3.0362
3.00902
2.98784
2.97121
2.95451
2.93589
2.91298
2.88452
2.85192
2.82032
2.7955
2.77751
2.76805
2.75866
2.75208
2.89405
3.34664
3.81224
4.11314
4.24184
4.38265
4.45661
4.48796
4.49487
4.48889
4.48303
4.48785
4.49693
4.49764
4.48609
4.47073
4.46018
4.45881
4.46289
4.46433
4.45713
4.44642
4.43877
4.43746
4.43891
4.44038
4.43769
2.09319
0.928056
0.311176
0.24682
0.240151
0.197787
0.148609
0.145477
0.156395
0.181612
0.216803
0.256305
0.30826
0.36576
0.448382
0.537151
0.598325
0.628688
0.679433
0.752341
0.829346
0.90932
0.949281
0.969264
0.994626
1.01771
1.04895
1.07957
1.10548
1.1258
1.14401
1.5525
3.99267
4.97967
5.05539
5.14486
5.25281
5.3293
5.36677
5.38161
5.38901
5.41703
5.44749
5.49118
5.53756
5.57094
5.58899
5.59698
5.60129
5.60599
5.61192
5.61929
5.62724
5.63138
5.62755
5.61721
5.60548
5.59546
5.58762
5.58095
5.57116
5.55385
5.53234
5.5106
5.4886
5.46636
5.44634
5.42919
5.41229
5.39356
5.3738
5.35312
5.33038
5.30477
5.27763
5.25041
5.22369
5.19807
5.17489
5.15344
5.13068
5.10498
5.07787
5.04992
5.02023
4.98911
4.95848
4.92909
4.90015
4.87073
4.84076
4.81054
4.77962
4.74758
4.71457
4.6803
4.6444
4.60739
4.57078
4.53612
4.50462
4.47737
4.45395
4.42721
4.3918
4.35308
4.3134
4.27308
4.23552
4.20053
4.16879
4.14146
4.11658
4.08741
4.05387
4.01908
3.98448
3.95077
3.91785
3.88685
3.85733
3.82825
3.79974
3.77047
3.74021
3.7101
3.68116
3.65262
3.62417
3.59639
3.56851
3.54007
3.51073
3.48239
3.45665
3.43307
3.40787
3.37953
3.35129
3.32463
3.29754
3.2706
3.24551
3.22251
3.19984
3.17586
3.14995
3.12343
3.09787
3.07332
3.04988
3.02587
2.99949
2.97425
2.94987
2.92318
2.89546
2.87138
2.85288
2.83873
2.82516
2.80702
2.78441
2.75808
2.72503
2.78084
3.11156
3.7262
4.1902
4.40312
4.44839
4.48046
4.47511
4.47396
4.47378
4.47964
4.49066
4.50142
4.50382
4.48983
4.47158
4.45728
4.45203
4.45388
4.45552
4.45248
4.44574
4.43978
4.43961
4.44329
4.44314
4.43773
2.77958
1.81574
1.08656
0.688759
0.558063
0.464425
0.349067
0.322227
0.305907
0.281879
0.281401
0.29139
0.309142
0.322164
0.348884
0.394728
0.429371
0.470389
0.523618
0.603958
0.680043
0.771696
0.855525
0.897079
0.940351
0.984195
1.03122
1.07703
1.10978
1.15487
1.20912
1.3796
3.09805
5.22475
5.51318
5.39644
5.38651
5.38125
5.39231
5.41139
5.43258
5.46116
5.48478
5.51084
5.5301
5.54722
5.57413
5.60796
5.62979
5.63114
5.616
5.5999
5.59889
5.61528
5.6329
5.63489
5.62028
5.59883
5.5793
5.567
5.56434
5.56231
5.54894
5.52453
5.4938
5.46183
5.4343
5.41678
5.40864
5.39976
5.38188
5.35606
5.32556
5.29421
5.2648
5.24087
5.22317
5.20684
5.18605
5.15893
5.12716
5.09496
5.06641
5.04284
5.02077
4.99463
4.9642
4.93182
4.89872
4.86542
4.83287
4.80233
4.77405
4.74599
4.71506
4.68017
4.6432
4.6061
4.56947
4.53408
4.50187
4.47621
4.45493
4.42506
4.38835
4.35083
4.31199
4.27252
4.23538
4.2016
4.17006
4.14242
4.11444
4.08245
4.04936
4.01622
3.98494
3.95456
3.92366
3.89144
3.85833
3.82543
3.79324
3.76307
3.73573
3.71017
3.6858
3.66078
3.63176
3.59571
3.55691
3.52641
3.5021
3.48042
3.46033
3.43896
3.41467
3.38243
3.34288
3.30919
3.28358
3.26104
3.23987
3.21933
3.19839
3.17594
3.15018
3.12201
3.09567
3.07257
3.05055
3.02583
2.99322
2.95533
2.92579
2.90392
2.88593
2.87191
2.86379
2.85334
2.83779
2.81527
2.77648
2.72822
2.69096
2.69907
2.8252
3.34234
4.31435
4.84061
4.67545
4.55448
4.50375
4.47298
4.46516
4.4679
4.47475
4.48583
4.4935
4.48733
4.47688
4.46452
4.45633
4.4505
4.44489
4.44038
4.4372
4.43701
4.44269
4.44719
4.44454
4.43542
3.43031
2.4932
1.82748
1.3326
1.02527
0.797491
0.642176
0.599377
0.562032
0.485229
0.419214
0.406704
0.399446
0.394231
0.401058
0.424063
0.435144
0.4311
0.434621
0.447968
0.477936
0.545215
0.663011
0.757552
0.823698
0.888915
0.944135
0.996765
1.05876
1.14089
1.26849
1.39105
2.03239
4.77455
5.96784
5.68298
5.48518
5.42177
5.41191
5.41811
5.43879
5.48719
5.53948
5.57117
5.56037
5.54175
5.55425
5.581
5.61124
5.62417
5.61535
5.60036
5.60444
5.62007
5.63601
5.63201
5.61325
5.58673
5.56536
5.55607
5.55977
5.56647
5.55319
5.523
5.48678
5.45241
5.42511
5.4099
5.40816
5.40439
5.3842
5.35526
5.32202
5.2914
5.26261
5.23847
5.22095
5.20607
5.18512
5.15622
5.12426
5.09331
5.06533
5.04103
5.01915
4.99469
4.96357
4.92902
4.89428
4.8605
4.82822
4.79864
4.77292
4.7474
4.71477
4.6779
4.63957
4.60242
4.56631
4.53203
4.50271
4.48043
4.45582
4.42139
4.38531
4.34808
4.30955
4.27056
4.23335
4.20027
4.17045
4.14212
4.11127
4.08019
4.04862
4.01705
3.98599
3.95502
3.92315
3.8898
3.85593
3.82283
3.79092
3.76033
3.73327
3.70909
3.68516
3.65994
3.63114
3.59654
3.55771
3.52352
3.49956
3.47895
3.45939
3.43768
3.41294
3.38099
3.34214
3.30608
3.2792
3.25771
3.23781
3.21797
3.1975
3.17541
3.14991
3.12159
3.0953
3.07295
3.05122
3.02618
2.99257
2.95082
2.91918
2.90079
2.88578
2.87478
2.86727
2.85517
2.83832
2.81436
2.77152
2.71889
2.68529
2.67986
2.72183
3.04472
4.21455
5.17034
4.9221
4.63055
4.51817
4.477
4.45812
4.45433
4.45583
4.46317
4.47929
4.49031
4.48925
4.48082
4.46229
4.44221
4.43054
4.42409
4.42504
4.43764
4.44987
4.45074
4.4464
4.42869
3.96187
3.09037
2.36586
1.89002
1.58867
1.27808
0.947931
0.855514
0.805134
0.728772
0.670149
0.631102
0.569215
0.517732
0.520972
0.522569
0.506214
0.475309
0.467974
0.477634
0.493548
0.495219
0.511756
0.549176
0.593408
0.650186
0.718693
0.805489
0.936576
1.09727
1.30059
1.43408
1.61342
3.44794
5.81667
5.95251
5.6361
5.54957
5.5322
5.51876
5.52145
5.54277
5.54828
5.53798
5.5347
5.54959
5.58214
5.62026
5.65196
5.66455
5.64832
5.62333
5.6174
5.61781
5.61759
5.61472
5.60892
5.59844
5.58531
5.57653
5.56887
5.55548
5.53435
5.50787
5.48135
5.45857
5.44232
5.43153
5.42103
5.4033
5.37749
5.34677
5.31448
5.28558
5.25941
5.23598
5.21721
5.20146
5.18232
5.15586
5.12566
5.09456
5.06378
5.03518
5.01179
4.99009
4.96125
4.92842
4.89393
4.86027
4.82795
4.79792
4.77211
4.74402
4.70952
4.67254
4.63411
4.59828
4.5643
4.53322
4.50772
4.48423
4.45202
4.41632
4.37962
4.34174
4.30382
4.26669
4.23168
4.20037
4.17134
4.14106
4.11055
4.07996
4.04857
4.01616
3.98279
3.94921
3.9163
3.88451
3.85406
3.8245
3.79452
3.76335
3.73224
3.70412
3.67876
3.65331
3.62645
3.59762
3.56608
3.53206
3.49941
3.47349
3.45114
3.42813
3.40266
3.37398
3.34353
3.31339
3.28462
3.25895
3.23674
3.21586
3.19474
3.17198
3.14627
3.11808
3.09087
3.06694
3.04432
3.01989
2.9914
2.95911
2.92757
2.90441
2.88843
2.87487
2.86326
2.84889
2.82926
2.80152
2.76508
2.72594
2.6959
2.69415
2.72905
2.97654
4.01406
5.25125
5.09989
4.71671
4.53671
4.47919
4.46146
4.45718
4.45914
4.46643
4.47993
4.4904
4.48817
4.4775
4.45677
4.43323
4.42162
4.41917
4.43023
4.44777
4.45217
4.44617
4.4322
4.4078
4.3071
3.55858
2.88684
2.33909
1.99752
1.69305
1.38621
1.2164
1.06001
0.904677
0.860697
0.844639
0.800975
0.720529
0.653757
0.63908
0.62195
0.584747
0.551201
0.548866
0.550354
0.538146
0.535709
0.550233
0.555007
0.560426
0.575701
0.62139
0.717655
0.921402
1.13098
1.3221
1.40641
1.88424
4.98804
6.10243
5.70175
5.58366
5.58169
5.59038
5.57108
5.53641
5.52626
5.54292
5.57285
5.60811
5.63514
5.64551
5.64459
5.64292
5.63133
5.61561
5.60463
5.6012
5.60231
5.61075
5.61721
5.61147
5.59403
5.5672
5.54431
5.52336
5.50952
5.50265
5.49385
5.481
5.46338
5.43858
5.41032
5.38355
5.35926
5.3338
5.30899
5.28517
5.26268
5.24118
5.22066
5.20082
5.17968
5.15328
5.12225
5.09009
5.05845
5.03025
5.00936
4.98968
4.96157
4.92949
4.89426
4.85846
4.82481
4.79395
4.76805
4.73833
4.70403
4.66706
4.62968
4.59571
4.56385
4.53582
4.51187
4.48189
4.44643
4.40955
4.37144
4.33411
4.29883
4.26542
4.23341
4.20181
4.16983
4.13829
4.10776
4.07742
4.04643
4.01398
3.97952
3.94358
3.909
3.87902
3.85227
3.82598
3.79858
3.76854
3.73487
3.69979
3.66882
3.64304
3.61907
3.59539
3.57069
3.54243
3.50891
3.47274
3.44024
3.41332
3.38856
3.36482
3.3424
3.31971
3.29421
3.26568
3.23769
3.21304
3.19017
3.16684
3.14188
3.11492
3.0865
3.05866
3.03331
3.0103
2.98867
2.96751
2.94463
2.91924
2.89412
2.87319
2.85416
2.83267
2.80716
2.77891
2.75381
2.73709
2.72318
2.74338
2.84629
3.12327
3.77926
5.06683
5.14726
4.8225
4.57974
4.4946
4.47607
4.47723
4.47681
4.47221
4.46493
4.45888
4.4521
4.44618
4.44043
4.43531
4.43612
4.44343
4.4479
4.44404
4.43548
4.41858
4.40021
4.39244
4.59632
3.9213
3.27907
2.77576
2.39255
2.03133
1.71245
1.54185
1.39141
1.21442
1.06783
1.02109
0.97415
0.915574
0.838901
0.771813
0.748818
0.726674
0.68608
0.65594
0.650458
0.637852
0.612915
0.597043
0.607658
0.619209
0.657949
0.720874
0.794031
0.85864
0.922455
1.0032
1.09629
1.16368
2.91268
5.58442
5.74128
5.6644
5.66968
5.65969
5.6212
5.56521
5.54647
5.57785
5.63807
5.66383
5.66343
5.64727
5.62345
5.61809
5.62572
5.62514
5.62044
5.61475
5.61287
5.61772
5.61943
5.60852
5.58742
5.55871
5.53613
5.51986
5.51563
5.51878
5.51078
5.48877
5.45962
5.4273
5.39809
5.37332
5.35441
5.33626
5.31546
5.29355
5.27127
5.24827
5.22391
5.1984
5.1724
5.14475
5.11474
5.08438
5.0557
5.03176
5.01267
4.98903
4.95828
4.92501
4.88838
4.85224
4.81879
4.79008
4.76546
4.73477
4.70043
4.66327
4.62644
4.59336
4.56299
4.53734
4.51094
4.47704
4.44068
4.40164
4.36282
4.32816
4.29627
4.26573
4.23462
4.2014
4.16614
4.13148
4.09981
4.07018
4.04108
4.01119
3.97903
3.94333
3.90547
3.87233
3.84604
3.82125
3.79615
3.76952
3.73904
3.70294
3.66428
3.6325
3.60936
3.58819
3.56656
3.54334
3.51578
3.48051
3.43966
3.40374
3.37849
3.35844
3.33927
3.31949
3.29798
3.27186
3.24087
3.21027
3.18399
3.16038
3.13715
3.11282
3.08612
3.05685
3.02785
3.00381
2.98555
2.96912
2.95145
2.92956
2.90203
2.87181
2.8434
2.81607
2.78884
2.76639
2.75167
2.75088
2.77064
2.85979
3.09715
3.35161
3.62459
4.55779
5.08371
4.8983
4.64889
4.50918
4.47987
4.48855
4.48875
4.47967
4.45797
4.43149
4.42057
4.41861
4.42801
4.44985
4.46752
4.46629
4.45329
4.4272
4.39995
4.38584
4.38181
4.38922
4.82123
4.20371
3.61593
3.13596
2.72969
2.36695
2.0702
1.83874
1.6617
1.49204
1.35235
1.25419
1.15661
1.08044
1.01037
0.911828
0.855946
0.847544
0.828387
0.783474
0.748655
0.737737
0.727189
0.728467
0.730895
0.742703
0.820088
0.8785
0.91701
0.980812
1.01618
1.0188
1.043
1.0804
1.3001
4.04125
5.71828
5.66627
5.66065
5.66509
5.62386
5.57628
5.57162
5.60858
5.67271
5.69243
5.67847
5.63829
5.61255
5.61214
5.63062
5.64999
5.64882
5.63883
5.62624
5.61567
5.60544
5.59277
5.57719
5.55983
5.54382
5.53491
5.53385
5.52714
5.50461
5.47521
5.44354
5.41527
5.39228
5.37771
5.36626
5.34731
5.3222
5.29567
5.26919
5.24352
5.21849
5.19196
5.16369
5.13507
5.10677
5.08001
5.0562
5.03551
5.01215
4.98199
4.94961
4.91472
4.87911
4.84553
4.81512
4.79027
4.76394
4.73108
4.69594
4.65828
4.62176
4.58909
4.56025
4.53519
4.5051
4.47081
4.43387
4.39376
4.35563
4.32281
4.29278
4.26339
4.23235
4.19893
4.16216
4.12481
4.09124
4.06162
4.03413
4.00709
3.97877
3.94667
3.90878
3.86955
3.83775
3.81223
3.78818
3.764
3.73859
3.70889
3.67209
3.6322
3.60032
3.57741
3.55633
3.53456
3.51083
3.48267
3.4473
3.40772
3.37554
3.35361
3.33431
3.3148
3.29425
3.27077
3.24192
3.20856
3.177
3.15142
3.12938
3.1079
3.08503
3.05898
3.02923
3.00074
2.98019
2.96403
2.94737
2.92858
2.9046
2.87288
2.83559
2.80274
2.78027
2.76527
2.76182
2.78278
2.86678
3.08132
3.39492
3.52831
3.5652
3.95225
4.8178
4.93764
4.75477
4.56298
4.47425
4.46346
4.47024
4.47203
4.46363
4.43962
4.41794
4.41342
4.42452
4.45474
4.47037
4.46348
4.44545
4.40955
4.37936
4.37087
4.37253
4.39449
5.01883
4.43644
3.9073
3.46352
3.04256
2.66749
2.40789
2.15723
1.9354
1.75369
1.61028
1.47677
1.35416
1.24983
1.17586
1.08875
0.989099
0.961248
0.950952
0.920213
0.878283
0.86054
0.870776
0.885381
0.888731
0.927673
1.0349
1.08211
1.10438
1.12291
1.1209
1.10627
1.12449
1.19029
1.2277
1.75983
4.41907
5.64714
5.71421
5.73412
5.69398
5.64055
5.62632
5.64561
5.69166
5.70567
5.68828
5.64819
5.62404
5.61854
5.63623
5.66502
5.67012
5.65731
5.63676
5.61047
5.58987
5.57529
5.56715
5.56229
5.55718
5.55215
5.54188
5.51926
5.49072
5.46057
5.43227
5.40859
5.3943
5.38946
5.37717
5.35089
5.32022
5.28862
5.25795
5.23021
5.20814
5.18707
5.16004
5.13096
5.10325
5.07873
5.05817
5.03568
5.0061
4.97392
4.93968
4.90533
4.87278
4.84289
4.81747
4.79211
4.76018
4.72554
4.68898
4.65196
4.61738
4.58604
4.55859
4.53004
4.49715
4.46263
4.42592
4.38775
4.35175
4.31892
4.28775
4.25693
4.22581
4.19313
4.15805
4.12224
4.08794
4.05608
4.02698
3.99999
3.97337
3.9446
3.91062
3.87189
3.8348
3.8037
3.77774
3.75438
3.73133
3.70711
3.67805
3.64069
3.59958
3.56651
3.54264
3.52123
3.49954
3.47661
3.45065
3.419
3.38304
3.35105
3.3273
3.30709
3.2867
3.26485
3.23984
3.20966
3.17615
3.14621
3.12318
3.1034
3.08378
3.06205
3.03565
3.00399
2.97461
2.95401
2.9373
2.91988
2.89946
2.87222
2.83788
2.80248
2.77995
2.77283
2.79086
2.86423
3.07669
3.37093
3.60241
3.6311
3.58498
3.6564
4.25561
4.86081
4.81696
4.66346
4.50772
4.43607
4.42713
4.44479
4.45663
4.45581
4.44546
4.43709
4.43735
4.44123
4.44207
4.4361
4.42283
4.40121
4.38513
4.37911
4.38375
4.40003
5.17048
4.62552
4.15842
3.74222
3.31342
2.96651
2.70407
2.44994
2.19193
2.01083
1.84871
1.69083
1.54538
1.42109
1.32962
1.24492
1.15495
1.10836
1.08186
1.04766
1.02673
1.04856
1.06708
1.06227
1.06883
1.12719
1.21365
1.26344
1.27765
1.28124
1.26127
1.24994
1.27787
1.33265
1.37213
1.39454
2.06456
4.46931
5.56486
5.69536
5.70905
5.66195
5.66114
5.67739
5.70508
5.70744
5.68473
5.65422
5.63947
5.63539
5.64954
5.67356
5.67896
5.66489
5.64087
5.61151
5.59036
5.5743