/*--------------------------------*- C++ -*----------------------------------*\
  =========                 |
  \\      /  F ield         | OpenFOAM: The Open Source CFD Toolbox
   \\    /   O peration     | Website:  https://openfoam.org
    \\  /    A nd           | Version:  10
     \\/     M anipulation  |
\*---------------------------------------------------------------------------*/
FoamFile
{
    format      ascii;
    class       volScalarField;
    location    "10";
    object      T;
}
// * * * * * * * * * * * * * * * * * * * * * * * * * * * * * * * * * * * * * //

dimensions      [0 0 0 1 0 0 0];

internalField   nonuniform List<scalar> 
16128
(
1
1
1
1
1
1
1
1
1
1
1
1
1
1
1
1
1
1
1
1
1
1
1
1
2.06866
2.68196
2.70463
2.71161
2.72033
2.72791
2.73507
2.74176
2.74823
2.75464
2.76094
2.76686
2.77226
2.7773
2.78216
2.78674
2.79085
2.79449
2.79792
2.80122
2.80442
2.80684
2.80828
2.80945
1
1
1
1
1
1
1
1
1
1
1
1
1
1
1
1
1
1
1
1
1
1
1
1
2.05824
2.6797
2.7043
2.71135
2.72002
2.72758
2.73471
2.74138
2.74783
2.7542
2.76045
2.76634
2.77175
2.7768
2.78156
2.78598
2.78999
2.79366
2.79719
2.8005
2.80355
2.80576
2.80708
2.80836
1
1
1
1
1
1
1
1
1
1
1
1
1
1
1
1
1
1
1
1
1
1
1
1
2.03214
2.67624
2.70317
2.71036
2.71905
2.72664
2.7338
2.74053
2.747
2.75336
2.75957
2.76547
2.77094
2.77597
2.7806
2.78484
2.78883
2.79258
2.79616
2.7993
2.80202
2.80403
2.80524
2.80692
1
1
1
1
1
1
1
1
1
1
1
1
1
1
1
1
1
1
1
1
1
1
1
1
1.99245
2.66996
2.70129
2.70867
2.7174
2.72504
2.73225
2.73904
2.74556
2.75191
2.75808
2.76397
2.76946
2.77448
2.779
2.78315
2.78716
2.791
2.79457
2.79752
2.79985
2.80163
2.8027
2.80461
1
1
1
1
1
1
1
1
1
1
1
1
1
1
1
1
1
1
1
1
1
1
1
1
1.93868
2.66023
2.69834
2.7059
2.71471
2.72248
2.72983
2.73678
2.74343
2.74983
2.75597
2.76179
2.76724
2.77221
2.77668
2.78079
2.78478
2.78862
2.79214
2.79494
2.79705
2.79872
2.79987
2.80229
1
1
1
1
1
1
1
1
1
1
1
1
1
1
1
1
1
1
1
1
1
1
1
1
1.86711
2.64492
2.69428
2.70216
2.71116
2.71911
2.72672
2.73396
2.74088
2.74743
2.75358
2.75931
2.76465
2.76956
2.77398
2.77803
2.78193
2.78566
2.78913
2.79193
2.79385
2.79508
2.79502
2.79884
1
1
1
1
1
1
1
1
1
1
1
1
1
1
1
1
1
1
1
1
1
1
1
1
1.77587
2.62136
2.68935
2.69754
2.70661
2.71462
2.72244
2.73
2.73723
2.74399
2.75021
2.75586
2.76108
2.76593
2.7704
2.77447
2.77828
2.78181
2.78512
2.78791
2.78992
2.79148
2.78995
2.79408
1
1
1
1
1
1
1
1
1
1
1
1
1
1
1
1
1
1
1
1
1
1
1
1
1.66538
2.58957
2.68501
2.6925
2.70135
2.70917
2.71697
2.72466
2.73213
2.73912
2.74549
2.75114
2.75631
2.76116
2.76572
2.76991
2.77371
2.77713
2.78029
2.78305
2.78496
2.78641
2.78397
2.78854
1
1
1
1
1
1
1
1
1
1
1
1
1
1
1
1
1
1
1
1
1
1
1
1
1.53383
2.54502
2.68162
2.68688
2.69561
2.70315
2.71092
2.71872
2.7264
2.73361
2.74014
2.74582
2.75089
2.75564
2.7602
2.7644
2.76816
2.77143
2.7744
2.77701
2.77881
2.78014
2.77712
2.78194
1
1
1
1
1
1
1
1
1
1
1
1
1
1
1
1
1
1
1
1
1
1
1
1
1.36712
2.47536
2.67612
2.6797
2.68875
2.69583
2.70348
2.71137
2.71931
2.72681
2.7336
2.73945
2.74454
2.74918
2.75365
2.7578
2.76151
2.76469
2.76749
2.7699
2.7714
2.7724
2.76909
2.77296
1
1
1
1
1
1
1
1
1
1
1
1
1
1
1
1
1
1
1
1
1
1
1
1
1.17303
2.39461
2.67643
2.672
2.68027
2.68735
2.69519
2.70307
2.711
2.71867
2.72571
2.73182
2.73705
2.74169
2.74605
2.7501
2.75369
2.7567
2.7591
2.76102
2.76198
2.76237
2.75857
2.7631
1
1
1
1
1
1
1
1
1
1
1
1
1
1
1
1
1
1
1
1
1
1
1
1
1.00985
2.31582
2.67123
2.66968
2.67635
2.68187
2.68822
2.69513
2.70254
2.70986
2.71676
2.72295
2.72831
2.73296
2.7372
2.74111
2.74446
2.74722
2.74924
2.75084
2.75119
2.75062
2.74588
2.74929
1
1
1
1
1
1
1
1
1
1
1
1
1
1
1
1
1
1
1
1
1
1
1
1
1.00004
2.20229
2.66786
2.67025
2.67565
2.681
2.68576
2.69056
2.69539
2.70122
2.70735
2.71316
2.71838
2.72293
2.72703
2.73076
2.73387
2.73617
2.73719
2.73755
2.73627
2.73444
2.72857
2.73254
1
1
1
1
1
1
1
1
1
1
1
1
1
1
1
1
1
1
1
1
1
1
1
1
1
2.05306
2.65239
2.66901
2.67402
2.67893
2.68259
2.68599
2.68979
2.69387
2.6982
2.70288
2.70741
2.71158
2.71548
2.71885
2.72127
2.7228
2.72261
2.7219
2.71965
2.71648
2.70716
2.70372
1
1
1
1
1
1
1
1
1
1
1
1
1
1
1
1
1
1
1
1
1
1
1
1
1
1.85692
2.60395
2.66137
2.67064
2.67706
2.68114
2.68365
2.68561
2.68767
2.69039
2.69332
2.69636
2.69963
2.70292
2.70522
2.70666
2.70724
2.70585
2.70306
2.69693
2.68706
2.67087
2.66379
1
1
1
1
1
1
1
1
1
1
1
1
1
1
1
1
1
1
1
1
1
1
1
1
1
1.60004
2.50633
2.639
2.65654
2.6679
2.67512
2.67922
2.68151
2.68292
2.68392
2.68501
2.6862
2.68785
2.68939
2.69029
2.69022
2.6893
2.68584
2.67984
2.66908
2.65593
2.63643
2.64091
1
1
1
1
1
1
1
1
1
1
1
1
1
1
1
1
1
1
1
1
1
1
1
1
1
1.25754
2.37901
2.62197
2.63516
2.65038
2.66169
2.66919
2.67386
2.6765
2.6775
2.67756
2.67729
2.6771
2.67607
2.67496
2.67277
2.66954
2.66337
2.65429
2.63702
2.61064
2.54493
2.3997
1
1
1
1
1
1
1
1
1
1
1
1
1
1
1
1
1
1
1
1
1
1
1
1
1
1.0194
2.2725
2.62447
2.62177
2.62923
2.64094
2.65198
2.66045
2.66605
2.6687
2.66907
2.66823
2.66637
2.6633
2.65981
2.65484
2.64864
2.6389
2.62473
2.59958
2.55212
2.47642
2.26921
1
1
1
1
1
1
1
1
1
1
1
1
1
1
1
1
1
1
1
1
1
1
1
1
1
1.00006
2.09866
2.60557
2.60815
2.61416
2.62249
2.63272
2.64279
2.65076
2.65611
2.65829
2.65765
2.65535
2.651
2.64537
2.63736
2.62767
2.61379
2.59387
2.56241
2.50871
2.41394
2.2073
1
1
1
1
1
1
1
1
1
1
1
1
1
1
1
1
1
1
1
1
1
1
1
1
1
0.999999
1.83559
2.56227
2.60883
2.61139
2.61486
2.61958
2.62627
2.63335
2.63993
2.64411
2.6444
2.64266
2.638
2.63091
2.62054
2.60749
2.5895
2.56469
2.52747
2.47101
2.36747
2.19921
1
1
1
1
1
1
1
1
1
1
1
1
1
1
1
1
1
1
1
1
1
1
1
1
1
1
1.45793
2.4427
2.60231
2.60449
2.60768
2.61032
2.61419
2.61799
2.62289
2.62724
2.62862
2.62755
2.62337
2.61587
2.60428
2.58858
2.56717
2.53847
2.49804
2.4395
2.34003
2.20637
1
1
1
1
1
1
1
1
1
1
1
1
1
1
1
1
1
1
1
1
1
1
1
1
1
1
1.05995
2.29538
2.60089
2.59784
2.5992
2.60159
2.60351
2.60456
2.60667
2.60937
2.61081
2.61018
2.60667
2.59956
2.58783
2.57065
2.54725
2.51583
2.47397
2.41475
2.3263
2.21768
1
1
1
1
1
1
1
1
1
1
1
1
1
1
1
1
1
1
1
1
1
1
1
1
1
1
1.00078
2.11476
2.56487
2.57789
2.58598
2.59074
2.59264
2.59254
2.59245
2.59267
2.59255
2.59146
2.58802
2.58137
2.57021
2.55314
2.52928
2.49679
2.45421
2.39688
2.32
2.2285
1
1
1
1
1
1
1
1
1
1
1
1
1
1
1
1
1
1
1
1
1
1
1
1
1
1
0.999993
1.77658
2.49838
2.56065
2.57431
2.58032
2.58226
2.58213
2.58101
2.57926
2.57684
2.57384
2.5693
2.56233
2.55148
2.53525
2.51227
2.48062
2.43837
2.38473
2.31775
2.23794
1
1
1
1
1
1
1
1
1
1
1
1
1
1
1
1
1
1
1
1
1
1
1
1
1
1
0.999998
1.29852
2.36461
2.55259
2.55722
2.56406
2.56793
2.56929
2.56844
2.56619
2.56242
2.55753
2.5512
2.54306
2.53195
2.51649
2.49507
2.46561
2.42545
2.37642
2.31722
2.24798
1
1
1
1
1
1
1
1
1
1
1
1
1
1
1
1
1
1
1
1
1
1
1
1
1
1
1
1.0229
2.21529
2.53642
2.53687
2.54367
2.54875
2.55315
2.55391
2.55253
2.54884
2.54311
2.53531
2.52559
2.51337
2.49785
2.47753
2.45016
2.41387
2.36989
2.31692
2.2572
1
1
1
1
1
1
1
1
1
1
1
1
1
1
1
1
1
1
1
1
1
1
1
1
1
1
1
1.00006
1.89781
2.48759
2.52456
2.53321
2.53466
2.53763
2.53882
2.53794
2.53477
2.52904
2.52071
2.50994
2.49647
2.48059
2.46025
2.43427
2.4022
2.36344
2.31635
2.26481
1
1
1
1
1
1
1
1
1
1
1
1
1
1
1
1
1
1
1
1
1
1
1
1
1
1
1
1
1.38709
2.36931
2.51774
2.51745
2.51898
2.52126
2.52253
2.52188
2.51928
2.51423
2.50617
2.49559
2.48142
2.46504
2.44403
2.41906
2.3901
2.35591
2.31384
2.26939
1
1
1
1
1
1
1
1
1
1
1
1
1
1
1
1
1
1
1
1
1
1
1
1
1
1
1
1
1.03771
2.19964
2.49966
2.50114
2.5029
2.50523
2.50641
2.50567
2.50319
2.49869
2.49142
2.48122
2.46784
2.451
2.4302
2.40601
2.37888
2.34744
2.31009
2.27127
1
1
1
1
1
1
1
1
1
1
1
1
1
1
1
1
1
1
1
1
1
1
1
1
1
1
1
1
1.00021
1.8268
2.43927
2.48417
2.48811
2.49173
2.49256
2.49107
2.48782
2.483
2.47599
2.4664
2.45416
2.43756
2.41779
2.39462
2.36887
2.33886
2.30542
2.27036
1
1
1
1
1
1
1
1
1
1
1
1
1
1
1
1
1
1
1
1
1
1
1
1
1
1
1
1
0.999999
1.23257
2.29922
2.4851
2.47619
2.47734
2.47717
2.47508
2.47165
2.46699
2.46042
2.45121
2.44004
2.42472
2.40634
2.38462
2.36026
2.33179
2.30118
2.26847
1
1
1
1
1
1
1
1
1
1
1
1
1
1
1
1
1
1
1
1
1
1
1
1
1
1
1
1
1
1.01251
2.11434
2.45222
2.45468
2.46169
2.46025
2.458
2.45513
2.45101
2.44475
2.43619
2.42529
2.41162
2.39474
2.37469
2.35184
2.32519
2.29662
2.26575
1
1
1
1
1
1
1
1
1
1
1
1
1
1
1
1
1
1
1
1
1
1
1
1
1
1
1
1
1
1
1.63011
2.36311
2.44419
2.44904
2.44678
2.44435
2.4414
2.43706
2.43056
2.42198
2.41122
2.39823
2.38258
2.36433
2.3432
2.31871
2.29198
2.26296
1
1
1
1
1
1
1
1
1
1
1
1
1
1
1
1
1
1
1
1
1
1
1
1
1
1
1
1
1
0.999997
1.10599
2.20021
2.44176
2.43269
2.43134
2.42976
2.42705
2.42256
2.41597
2.40753
2.39725
2.38489
2.37019
2.35332
2.33376
2.31123
2.28632
2.25922
1
1
1
1
1
1
1
1
1
1
1
1
1
1
1
1
1
1
1
1
1
1
1
1
1
1
1
1
1
0.999999
1.00231
1.8534
2.38317
2.40882
2.41313
2.41496
2.41347
2.40936
2.40283
2.39446
2.38431
2.37217
2.35792
2.34179
2.32343
2.30267
2.27961
2.25458
1
1
1
1
1
1
1
1
1
1
1
1
1
1
1
1
1
1
1
1
1
1
1
1
1
1
1
1
1
1
0.999996
1.22384
2.22698
2.41044
2.40248
2.40215
2.40007
2.39563
2.38927
2.38127
2.37143
2.35961
2.34587
2.33025
2.31281
2.29345
2.27211
2.24956
1
1
1
1
1
1
1
1
1
1
1
1
1
1
1
1
1
1
1
1
1
1
1
1
1
1
1
1
1
1
0.999999
1.01117
1.9696
2.37296
2.38362
2.38392
2.38272
2.37977
2.37482
2.36792
2.35874
2.34739
2.33406
2.31886
2.30189
2.28359
2.26447
2.24626
1
1
1
1
1
1
1
1
1
1
1
1
1
1
1
1
1
1
1
1
1
1
1
1
1
1
1
1
1
1
1
1.00002
1.32872
2.23319
2.38115
2.37384
2.37018
2.36621
2.361
2.35427
2.34554
2.33477
2.3221
2.30724
2.29088
2.27487
2.26223
2.25286
1
1
1
1
1
1
1
1
1
1
1
1
1
1
1
1
1
1
1
1
1
1
1
1
1
1
1
1
1
1
1
1
1.02494
2.0224
2.35241
2.35861
2.35549
2.35128
2.34602
2.33943
2.33118
2.32108
2.30924
2.29479
2.2806
2.27035
2.27113
2.27427
1
1
1
1
1
1
1
1
1
1
1
1
1
1
1
1
1
1
1
1
1
1
1
1
1
1
1
1
1
1
1
1
1.00011
1.41111
2.22358
2.34967
2.34249
2.33818
2.33268
2.32591
2.31749
2.30749
2.29554
2.28264
2.28116
2.28343
2.29554
2.30572
1
1
1
1
1
1
1
1
1
1
1
1
1
1
1
1
1
1
1
1
1
1
1
1
1
1
1
1
1
1
1
1
1
1.04051
2.02392
2.32929
2.32862
2.32388
2.3185
2.31168
2.30323
2.29274
2.28113
2.283
2.29004
2.31032
2.32448
2.33362
1
1
1
1
1
1
1
1
1
1
1
1
1
1
1
1
1
1
1
1
1
1
1
1
1
1
1
1
1
1
1
1
1
1.00032
1.42428
2.19913
2.31883
2.31044
2.30543
2.29833
2.28878
2.27907
2.28185
2.2947
2.31963
2.34205
2.34947
2.34692
1
1
1
1
1
1
1
1
1
1
1
1
1
1
1
1
1
1
1
1
1
1
1
1
1
1
1
1
1
1
1
1
1
1
1.04382
1.98938
2.30035
2.29895
2.29188
2.28313
2.27265
2.27467
2.29184
2.32419
2.35071
2.36534
2.35804
2.35017
1
1
1
1
1
1
1
1
1
1
1
1
1
1
1
1
1
1
1
1
1
1
1
1
1
1
1
1
1
1
1
1
1
1
1.0004
1.39547
2.16178
2.28882
2.27777
2.26669
2.26793
2.28648
2.3266
2.35899
2.37814
2.37214
2.35978
2.35012
1
1
1
1
1
1
1
1
1
1
1
1
1
1
1
1
1
1
1
1
1
1
1
1
1
1
1
1
1
1
1
1
1
1
1
1.03708
1.90474
2.26571
2.25994
2.25469
2.27392
2.32311
2.36589
2.38609
2.38411
2.37143
2.35929
2.35105
1
1
1
1
1
1
1
1
1
1
1
1
1
1
1
1
1
1
1
1
1
1
1
1
1
1
1
1
1
1
1
1
1
1
1
1.00034
1.31425
2.10778
2.23138
2.26067
2.31849
2.37276
2.39724
2.39503
2.38398
2.36937
2.35946
2.35286
1
1
1
1
1
1
1
1
1
1
1
1
1
1
1
1
1
1
1
1
1
1
1
1
1
1
1
1
1
1
1
1
1
1
1
1
1.02225
1.73148
2.17592
2.29928
2.3678
2.40177
2.39905
2.39164
2.37995
2.36785
2.36092
2.3553
1
1
1
1
1
1
1
1
1
1
1
1
1
1
1
1
1
1
1
1
1
1
1
1
1
1
1
1
1
1
1
1
1
1
1
1
1.00019
1.17936
2.04216
2.35622
2.39247
2.40286
2.39452
2.38423
2.37272
2.36421
2.36056
2.35627
1
1
1
1
1
1
1
1
1
1
1
1
1
1
1
1
1
1
1
1
1
1
1
1
1
1
1
1
1
1
1
1
1
1
1
1
1
1.00686
1.8156
2.43701
2.42998
2.4096
2.39277
2.38124
2.36974
2.36262
2.35932
2.35545
1
1
1
1
1
1
1
1
1
1
1
1
1
1
1
1
1
1
1
1
1
1
1
1
1
1
1
1
1
1
1
1
1
1
1
1
1
1.00003
1.53746
2.50332
2.48793
2.44299
2.40991
2.388
2.37239
2.36367
2.35951
2.35552
1
1
1
1
1
1
1
1
1
1
1
1
1
1
1
1
1
1
1
1
1
1
1
1
1
1
1
1
1
1
1
1
1
1
1
1
1
1
1.33849
2.5179
2.53589
2.48856
2.44672
2.41778
2.39607
2.37895
2.36809
2.35915
1
1
1
1
1
1
1
1
1
1
1
1
1
1
1
1
1
1
1
1
1
1
1
1
1
1
1
1
1
1
1
1
1
1
1
1
1
1
1.10251
2.41468
2.61289
2.5676
2.5276
2.48748
2.45232
2.42168
2.39845
2.37837
1
1
1
1
1
1
1
1
1
1
1
1
1
1
1
1
1
1
1
1
1
1
1
1
1
1
1
1
1
1
1
1
1
1
1
1
1
1
1.00313
2.24418
2.65225
2.62539
2.59663
2.55938
2.51998
2.48149
2.44771
2.41751
1
1
1
1
1
1
1
1
1
1
1
1
1
1
1
1
1
1
1
1
1
1
1
1
1
1
1
1
1
1
1
1
1
1
1
1
1
1
1.00001
2.0359
2.63753
2.63692
2.62894
2.61084
2.58435
2.55258
2.51953
2.48615
1
1
1
1
1
1
1
1
1
1
1
1
1
1
1
1
1
1
1
1
1
1
1
1
1
1
1
1
1
1
1
1
1
1
1
1
1
1
1
1.79672
2.57664
2.63774
2.63037
2.62195
2.61121
2.59534
2.5725
2.54582
1
1
1
1
1
1
1
1
1
1
1
1
1
1
1
1
1
1
1
1
1
1
1
1
1
1
1
1
1
1
1
1
1
1
1
1
1
1
1
1.49636
2.46301
2.63176
2.62353
2.61997
2.61294
2.60397
2.59341
2.57978
1
1
1
1
1
1
1
1
1
1
1
1
1
1
1
1
1
1
1
1
1
1
1
1
1
1
1
1
1
1
1
1
1
1
1
1
1
1
1
1.16253
2.34966
2.62307
2.61073
2.61083
2.60848
2.60461
2.5991
2.59124
1
1
1
1
1
1
1
1
1
1
1
1
1
1
1
1
1
1
1
1
1
1
1
1
1
1
1
1
1
1
1
1
1
1
1
1
1
1
1
1.00686
2.28884
2.62799
2.61336
2.60675
2.60295
2.60036
2.59668
2.59149
1
1
1
1
1
1
1
1
1
1
1
1
1
1
1
1
1
1
1
1
1
1
1
1
1
1
1
1
1
1
1
1
1
1
1
1
1
1
1
1.00001
2.1842
2.63835
2.62799
2.61703
2.60931
2.60275
2.5971
2.5914
1
1
1
1
1
1
1
1
1
1
1
1
1
1
1
1
1
1
1
1
1
1
1
1
1
1
1
1
1
1
1
1
1
1
1
1
1
1
1
1
2.04493
2.64334
2.64145
2.63146
2.62206
2.61216
2.60342
2.59555
1
1
1
1
1
1
1
1
1
1
1
1
1
1
1
1
1
1
1
1
1
1
1
1
1
1
1
1
1
1
1
1
1
1
1
1
1
1
1
1
1.88979
2.61971
2.64984
2.64119
2.63351
2.62372
2.61414
2.60448
1
1
1
1
1
1
1
1
1
1
1
1
1
1
1
1
1
1
1
1
1
1
1
1
1
1
1
1
1
1
1
1
1
1
1
1
1
1
1
1
1.71789
2.56924
2.65377
2.64457
2.63823
2.62962
2.62093
2.61171
1
1
1
1
1
1
1
1
1
1
1
1
1
1
1
1
1
1
1
1
1
1
1
1
1
1
1
1
1
1
1
1
1
1
1
1
1
1
1
1
1.52271
2.50079
2.65095
2.63874
2.63372
2.62722
2.6204
2.61301
1
1
1
1
1
1
1
1
1
1
1
1
1
1
1
1
1
1
1
1
1
1
1
1
1
1
1
1
1
1
1
1
1
1
1
1
1
1
1
1
1.31036
2.43107
2.64684
2.63316
2.62908
2.62407
2.61878
2.61271
1
1
1
1
1
1
1
1
1
1
1
1
1
1
1
1
1
1
1
1
1
1
1
1
1
1
1
1
1
1
1
1
1
1
1
1
1
1
1
1
1.15294
2.38578
2.65324
2.6365
2.6298
2.62414
2.61862
2.61259
1
1
1
1
1
1
1
1
1
1
1
1
1
1
1
1
1
1
1
1
1
1
1
1
1
1
1
1
1
1
1
1
1
1
1
1
1
1
1
1
1.06119
2.34659
2.66478
2.64836
2.6394
2.63132
2.62373
2.61633
1
1
1
1
1
1
1
1
1
1
1
1
1
1
1
1
1
1
1
1
1
1
1
1
1
1
1
1
1
1
1
1
1
1
1
1
1
1
1
1
1.00227
2.28499
2.67296
2.66264
2.65267
2.64269
2.63334
2.62473
1
1
1
1
1
1
1
1
1
1
1
1
1
1
1
1
1
1
1
1
1
1
1
1
1
1
1
1
1
1
1
1
1
1
1
1
1
1
1
1
1.00001
2.21598
2.66948
2.66843
2.65911
2.65128
2.64276
2.63428
1
1
1
1
1
1
1
1
1
1
1
1
1
1
1
1
1
1
1
1
1
1
1
1
1
1
1
1
1
1
1
1
1
1
1
1
1
1
1
1
1
2.13974
2.65926
2.66807
2.65976
2.65403
2.64709
2.63995
1
1
1
1
1
1
1
1
1
1
1
1
1
1
1
1
1
1
1
1
1
1
1
1
1
1
1
1
1
1
1
1
1
1
1
1
1
1
1
1
1
2.06128
2.64574
2.66778
2.65962
2.65499
2.64897
2.6427
1
1
1
1
1
1
1
1
1
1
1
1
1
1
1
1
1
1
1
1
1
1
1
1
1
1
1
1
1
1
1
1
1
1
1
1
1
1
1
1
1
1.98602
2.63291
2.66656
2.65782
2.65336
2.64761
2.64166
1
1
1
1
1
1
1
1
1
1
1
1
1
1
1
1
1
1
1
1
1
1
1
1
1
1
1
1
1
1
1
1
1
1
1
1
1
1
1
1
1
1.91686
2.62275
2.66596
2.65654
2.6519
2.64614
2.64029
1
1
1
1
1
1
1
1
1
1
1
1
1
1
1
1
1
1
1
1
1
1
1
1
1
1
1
1
1
1
1
1
1
1
1
1
1
1
1
1
1
1.85442
2.61381
2.66677
2.65659
2.6516
2.64565
2.63973
1
1
1
1
1
1
1
1
1
1
1
1
1
1
1
1
1
1
1
1
1
1
1
1
1
1
1
1
1
1
1
1
1
1
1
1
1
1
1
1
1
1.7991
2.60448
2.66911
2.6582
2.65287
2.64666
2.64054
1
1
1
1
1
1
1
1
1
1
1
1
1
1
1
1
1
1
1
1
1
1
1
1
1
1
1
1
1
1
1
1
1
1
1
1
1
1
1
1
1
1.75228
2.59515
2.67225
2.66099
2.65546
2.64901
2.64266
1
1
1
1
1
1
1
1
1
1
1
1
1
1
1
1
1
1
1
1
1
1
1
1
1
1
1
1
1
1
1
1
1
1
1
1
1
1
1
1
1
1.71495
2.58703
2.67503
2.66352
2.65792
2.65139
2.64495
1
1
1
1
1
1
1
1
1
1
1
1
1
1
1
1
1
1
1
1
1
1
1
1
1
1
1
1
1
1
1
1
1
1
1
1
1
1
1
1
1
1.68454
2.5789
2.67637
2.66458
2.65897
2.65247
2.64605
1
1
1
1
1
1
1
1
1
1
1
1
1
1
1
1
1
1
1
1
1
1
1
1
1
1
1
1
1
1
1
1
1
1
1
1
1
1
1
1
1
1.6542
2.57115
2.67774
2.66579
2.66022
2.65375
2.64735
1
1
1
1
1
1
1
1
1
1
1
1
1
1
1
1
1
1
1
1
1
1
1
1
1
1
1
1
1
1
1
1
1
1
1
1
1
1
1
1
1
1.63091
2.56649
2.67786
2.66574
2.66018
2.65373
2.64739
1
1
1
1
1
1
1
1
1
1
1
1
1
1
1
1
1
1
1
1
1
1
1
1
1
1
1
1
1
1
1
1
1
1
1
1
1
1
1
1
1
1.62697
2.5654
2.67852
2.66618
2.6605
2.65401
2.64765
1.47718
0.735463
0.351708
0.592656
0.783894
0.871491
0.978454
1.01374
1.0124
1.04691
1.11906
1.2073
1.29683
1.39082
1.44887
1.45605
1.45209
1.46031
1.48945
1.53927
1.5796
1.58984
1.58288
1.56819
1.5624
1.56058
1.56876
1.58997
1.58893
1.58297
1.58065
2.02475
2.55945
2.61202
2.61069
2.62035
2.63592
2.65079
2.65789
2.6575
2.65772
2.65913
2.66408
2.67131
2.6754
2.67361
2.66727
2.6604
2.65574
2.65388
2.65372
2.65319
2.65045
2.64558
2.64051
2.63656
2.63403
2.63217
2.63003
2.6267
2.62195
2.61655
2.61151
2.6072
2.60328
2.59919
2.59438
2.58863
2.58234
2.57636
2.57131
2.56714
2.56337
2.55933
2.55443
2.54846
2.54195
2.53582
2.53076
2.52683
2.52343
2.51976
2.51508
2.50926
2.50283
2.49656
2.49087
2.48571
2.4809
2.47623
2.47147
2.46636
2.46088
2.45531
2.4498
2.44422
2.43833
2.43214
2.426
2.42027
2.41526
2.41099
2.40698
2.40231
2.39649
2.38999
2.38328
2.3765
2.36981
2.36347
2.35792
2.35333
2.34918
2.34435
2.3384
2.33189
2.32521
2.31869
2.31247
2.30689
2.30201
2.29745
2.29249
2.28681
2.28043
2.27374
2.26684
2.26006
2.2542
2.24986
2.24607
2.24132
2.23544
2.22883
2.22167
2.21462
2.20837
2.20357
2.19966
2.1951
2.19
2.18461
2.17893
2.17307
2.16753
2.1625
2.15757
2.15261
2.14742
2.1415
2.13501
2.12949
2.12517
2.12148
2.11757
2.11323
2.10798
2.10152
2.09423
2.08737
2.08206
2.07837
2.07644
2.07402
2.07192
2.10327
2.19871
2.28769
2.34025
2.36565
2.39402
2.40904
2.41613
2.41807
2.41676
2.4147
2.41411
2.41434
2.41366
2.41097
2.40819
2.4064
2.40612
2.4067
2.40678
2.40537
2.40331
2.40168
2.40105
2.40078
2.40038
2.39933
1.74455
1.37202
0.989705
0.953504
0.95435
0.912476
0.849431
0.837572
0.846658
0.882185
0.936034
0.997812
1.07396
1.13159
1.19445
1.25142
1.29681
1.31851
1.3474
1.3874
1.42905
1.47238
1.4952
1.50482
1.51537
1.52531
1.53877
1.54501
1.54503
1.54881
1.55652
1.74705
2.43134
2.58891
2.59422
2.60729
2.6255
2.63985
2.648
2.65125
2.65163
2.65286
2.65301
2.65503
2.65788
2.65905
2.65817
2.65545
2.65187
2.64817
2.64463
2.64156
2.63896
2.63627
2.63293
2.62902
2.62542
2.62246
2.61996
2.61763
2.61486
2.61105
2.60662
2.60203
2.59728
2.59239
2.58773
2.58341
2.57912
2.57458
2.56996
2.56527
2.56034
2.55509
2.54972
2.54442
2.53922
2.53423
2.52967
2.52539
2.52094
2.51611
2.51112
2.50603
2.50072
2.49523
2.48987
2.48473
2.47969
2.47464
2.46956
2.4645
2.45936
2.45409
2.44869
2.44309
2.43722
2.43116
2.42514
2.41939
2.41412
2.40951
2.40549
2.40094
2.39503
2.3886
2.38201
2.37531
2.36902
2.36312
2.35771
2.35298
2.34859
2.34343
2.33751
2.33136
2.32519
2.31911
2.31314
2.30745
2.30195
2.29646
2.29102
2.28536
2.27944
2.27351
2.26782
2.26227
2.25674
2.25134
2.24579
2.23989
2.23374
2.22787
2.2226
2.21772
2.21255
2.20682
2.20108
2.19539
2.18952
2.18373
2.17841
2.17362
2.16899
2.1642
2.15904
2.15371
2.14842
2.14327
2.13847
2.13367
2.12837
2.12297
2.11745
2.11136
2.10507
2.0997
2.09558
2.09241
2.08943
2.08555
2.08068
2.07459
2.06668
2.07911
2.14989
2.27007
2.34955
2.38627
2.39873
2.40734
2.40829
2.40961
2.4101
2.41069
2.4113
2.41195
2.41174
2.4088
2.40561
2.40331
2.40249
2.40276
2.40297
2.40242
2.40123
2.40008
2.39987
2.4001
2.39971
2.39819
1.87641
1.67776
1.44809
1.26701
1.18786
1.12294
1.04751
1.04027
1.02787
0.991699
0.982542
0.986811
1.00216
1.01917
1.0498
1.09655
1.12801
1.15859
1.19631
1.24733
1.28812
1.3335
1.37894
1.40448
1.42739
1.44872
1.46899
1.48522
1.49673
1.51552
1.53927
1.6013
2.13539
2.52899
2.60111
2.58879
2.59115
2.59492
2.60058
2.6066
2.61109
2.61437
2.61491
2.61534
2.61571
2.61644
2.61878
2.62172
2.62241
2.62021
2.61472
2.60903
2.60582
2.60503
2.60474
2.60282
2.59869
2.59452
2.59118
2.58911
2.58853
2.58805
2.58608
2.58256
2.57797
2.57299
2.5685
2.56529
2.56328
2.56107
2.55746
2.55266
2.54716
2.54148
2.53606
2.53138
2.52754
2.52391
2.51969
2.51467
2.50915
2.50374
2.49899
2.49506
2.49138
2.48716
2.48232
2.47718
2.47193
2.46666
2.46149
2.45661
2.45206
2.44754
2.44257
2.43698
2.43103
2.425
2.41898
2.41309
2.40763
2.40317
2.39937
2.39425
2.38814
2.38197
2.37567
2.36934
2.36344
2.35809
2.3531
2.3487
2.34417
2.33893
2.33349
2.32796
2.32256
2.3172
2.31171
2.30593
2.29988
2.29384
2.28799
2.28243
2.27728
2.27239
2.26769
2.26292
2.2574
2.25057
2.24304
2.23692
2.23195
2.22748
2.22327
2.21877
2.21372
2.20716
2.19918
2.19217
2.18667
2.18186
2.17739
2.17308
2.16878
2.16422
2.15903
2.15333
2.14795
2.1432
2.13868
2.13357
2.12677
2.11879
2.11239
2.10747
2.10337
2.10013
2.09819
2.0957
2.09215
2.08715
2.07862
2.06787
2.05931
2.06097
2.08861
2.19462
2.36315
2.44727
2.42411
2.40819
2.40195
2.39873
2.39814
2.39861
2.39935
2.40055
2.40147
2.40032
2.39862
2.39685
2.39569
2.39485
2.39414
2.39372
2.39354
2.39371
2.39479
2.39547
2.39497
2.39337
1.97466
1.81545
1.67131
1.53439
1.42299
1.31112
1.22981
1.22092
1.20851
1.16205
1.10189
1.08136
1.07282
1.07209
1.07964
1.10034
1.10647
1.10199
1.10345
1.11326
1.13709
1.18156
1.25094
1.30065
1.33223
1.36254
1.38669
1.40726
1.43295
1.4689
1.52025
1.56223
1.76307
2.33889
2.55704
2.53229
2.51343
2.51495
2.5206
2.52688
2.53377
2.54256
2.54994
2.55383
2.55243
2.55096
2.55413
2.55943
2.56416
2.56558
2.56379
2.56038
2.55941
2.55963
2.5603
2.55865
2.55486
2.55082
2.54801
2.54717
2.54826
2.55008
2.5493
2.54644
2.54242
2.53846
2.53533
2.53369
2.53373
2.53344
2.53081
2.52673
2.52185
2.51709
2.51235
2.50803
2.5045
2.50127
2.49718
2.49211
2.48685
2.48198
2.47774
2.47422
2.47119
2.46787
2.46362
2.45884
2.45399
2.44922
2.4446
2.4403
2.43651
2.43268
2.42774
2.4221
2.41614
2.41025
2.40439
2.39868
2.39363
2.38958
2.38515
2.37925
2.37321
2.36712
2.36099
2.35495
2.34933
2.34449
2.34025
2.33629
2.33194
2.32752
2.32293
2.31816
2.3133
2.3083
2.30303
2.29739
2.29163
2.286
2.28051
2.27523
2.27055
2.26634
2.26213
2.25758
2.25231
2.24586
2.23863
2.23231
2.2278
2.22371
2.21959
2.21503
2.20986
2.20324
2.19525
2.18794
2.18248
2.1781
2.17402
2.16997
2.16582
2.16136
2.15622
2.15052
2.14531
2.14087
2.13643
2.13117
2.12408
2.11541
2.10884
2.10496
2.1017
2.09907
2.09716
2.09433
2.09052
2.0851
2.07556
2.06389
2.05695
2.05469
2.06353
2.1304
2.34284
2.48671
2.45254
2.4102
2.39398
2.38814
2.38456
2.38378
2.38382
2.3845
2.38667
2.38844
2.38847
2.38756
2.38497
2.38206
2.38064
2.38016
2.38077
2.38331
2.38562
2.38599
2.38562
2.38325
2.04764
1.91383
1.77893
1.67487
1.59953
1.50592
1.38109
1.34381
1.32077
1.2837
1.25279
1.23009
1.19218
1.15832
1.16009
1.16081
1.15064
1.12957
1.12246
1.12836
1.13785
1.1396
1.15136
1.17626
1.20246
1.23457
1.27038
1.31082
1.36834
1.43464
1.51012
1.55323
1.6041
2.05979
2.43885
2.4995
2.46175
2.46288
2.46872
2.47428
2.4792
2.48509
2.48838
2.4905
2.49258
2.49672
2.50389
2.51197
2.51853
2.52141
2.52019
2.51743
2.51651
2.51632
2.51615
2.5156
2.51478
2.51363
2.51236
2.51186
2.51174
2.51118
2.5098
2.50772
2.5055
2.50356
2.50234
2.50179
2.50127
2.49982
2.4972
2.49377
2.4899
2.48618
2.4825
2.47889
2.47566
2.47267
2.46914
2.46465
2.45981
2.45506
2.45062
2.44675
2.4438
2.44121
2.43768
2.4336
2.42922
2.4249
2.42068
2.41672
2.41328
2.40943
2.40455
2.39919
2.39349
2.388
2.38263
2.37752
2.37309
2.36886
2.36325
2.35713
2.35097
2.34476
2.33875
2.33307
2.32795
2.3236
2.31978
2.31588
2.31203
2.30819
2.30413
2.29976
2.29505
2.29012
2.28515
2.28025
2.27553
2.27089
2.26613
2.26116
2.25619
2.25172
2.24769
2.24357
2.23916
2.23438
2.2291
2.22324
2.21735
2.21244
2.20804
2.20342
2.19825
2.19243
2.18631
2.18028
2.17449
2.16929
2.16479
2.16063
2.1565
2.15211
2.1472
2.14185
2.13671
2.13218
2.12783
2.12309
2.11755
2.1112
2.10486
2.10012
2.09674
2.09378
2.09114
2.08787
2.08353
2.07743
2.06955
2.06101
2.05482
2.05327
2.06028
2.11138
2.30351
2.49071
2.46873
2.41333
2.38685
2.37784
2.37338
2.37172
2.3714
2.37149
2.37287
2.37446
2.37424
2.37286
2.36996
2.36667
2.36535
2.36532
2.36757
2.37085
2.37195
2.37146
2.36976
2.36632
2.09255
1.9834
1.87057
1.76609
1.69436
1.61838
1.52971
1.47714
1.42165
1.35578
1.33522
1.3282
1.30953
1.27272
1.23623
1.22627
1.21615
1.19575
1.17484
1.172
1.17194
1.16355
1.16169
1.17036
1.17286
1.17594
1.18518
1.21254
1.26654
1.3622
1.44437
1.50915
1.53351
1.67984
2.30953
2.4937
2.4481
2.44436
2.44989
2.45741
2.45891
2.45789
2.45904
2.46494
2.4723
2.47852
2.48363
2.48737
2.48944
2.49055
2.49001
2.4887
2.48773
2.48753
2.48787
2.4892
2.49035
2.48999
2.48831
2.48543
2.48318
2.48129
2.48038
2.48031
2.48
2.47902
2.47725
2.47452
2.47141
2.46858
2.46614
2.46354
2.46092
2.45822
2.45545
2.45254
2.4495
2.44633
2.44283
2.43856
2.4337
2.42882
2.42421
2.42031
2.41759
2.41517
2.41168
2.40765
2.40316
2.39855
2.3942
2.39021
2.38688
2.38294
2.37827
2.37311
2.36776
2.36274
2.35785
2.35334
2.34928
2.34418
2.33817
2.33195
2.3256
2.31948
2.31384
2.3087
2.304
2.29957
2.29528
2.29123
2.28746
2.28379
2.28
2.2759
2.27133
2.26635
2.26142
2.25712
2.25325
2.24939
2.24533
2.24083
2.23572
2.23035
2.22568
2.22193
2.2185
2.21509
2.2114
2.20689
2.20123
2.19486
2.18893
2.18387
2.1791
2.17442
2.16991
2.1653
2.16015
2.1545
2.14902
2.14429
2.14003
2.13581
2.13138
2.12663
2.12158
2.11663
2.11217
2.10818
2.10442
2.10063
2.09635
2.09146
2.0865
2.08228
2.07837
2.0739
2.06853
2.06258
2.05726
2.05364
2.05007
2.05431
2.07591
2.13269
2.25207
2.45347
2.46291
2.41654
2.38055
2.36634
2.36222
2.36073
2.35892
2.35656
2.35447
2.35317
2.35195
2.35104
2.35036
2.34989
2.35028
2.35185
2.35296
2.35277
2.35196
2.34981
2.34728
2.34605
2.12849
2.035
1.93446
1.84786
1.77497
1.69556
1.61517
1.5704
1.52611
1.46864
1.41599
1.39883
1.37977
1.35507
1.32126
1.28928
1.27788
1.26743
1.2474
1.23011
1.22548
1.2175
1.20357
1.1949
1.2011
1.20697
1.22708
1.25912
1.29357
1.32338
1.35175
1.38755
1.42144
1.44477
2.00228
2.47449
2.47916
2.47183
2.47188
2.47106
2.46718
2.46131
2.46017
2.46565
2.47495
2.47893
2.47925
2.47826
2.4763
2.47609
2.47749
2.47756
2.47707
2.47626
2.47596
2.47658
2.47692
2.47577
2.47331
2.46986
2.46728
2.4655
2.46514
2.46568
2.46476
2.46189
2.45793
2.45353
2.4496
2.44641
2.44411
2.44202
2.43962
2.43703
2.43427
2.43126
2.42788
2.42416
2.42022
2.41594
2.4113
2.40665
2.40233
2.39878
2.396
2.39269
2.38848
2.38393
2.37891
2.37395
2.36936
2.36545
2.36213
2.35794
2.35323
2.34805
2.34283
2.33801
2.33345
2.32941
2.32513
2.3196
2.31363
2.30723
2.30088
2.29521
2.29008
2.2853
2.28061
2.27577
2.27079
2.26606
2.26194
2.25823
2.25465
2.25094
2.2468
2.24197
2.23661
2.23186
2.22812
2.22456
2.22092
2.21703
2.21253
2.20711
2.20126
2.19661
2.19346
2.19062
2.18762
2.18423
2.17993
2.17409
2.16699
2.16053
2.15586
2.15201
2.14823
2.14428
2.14
2.13492
2.129
2.12325
2.11845
2.1143
2.11037
2.10633
2.10189
2.09698
2.09212
2.0882
2.08537
2.08282
2.07992
2.07604
2.07093
2.06515
2.05964
2.05431
2.04883
2.04427
2.04132
2.04072
2.04524
2.06373
2.11136
2.15883
2.20469
2.35575
2.43394
2.40737
2.37099
2.34882
2.3435
2.34339
2.34154
2.33795
2.33319
2.32855
2.32646
2.32598
2.32733
2.33079
2.33382
2.33397
2.33254
2.32903
2.32529
2.32349
2.32308
2.32411
2.15466
2.07298
1.98677
1.90998
1.83753
1.76445
1.69915
1.64485
1.5986
1.55025
1.50885
1.47804
1.4439
1.41538
1.3882
1.34796
1.32355
1.31998
1.31164
1.291
1.27334
1.26696
1.26139
1.26252
1.26437
1.27057
1.3075
1.33237
1.34751
1.37274
1.38625
1.38569
1.3943
1.40796
1.50085
2.27829
2.5196
2.50137
2.49087
2.48707
2.47878
2.47075
2.46905
2.47228
2.47899
2.48099
2.47902
2.47383
2.47044
2.47025
2.4722
2.47406
2.47346
2.47149
2.46939
2.4677
2.46616
2.46438
2.46224
2.45985
2.4576
2.45621
2.45576
2.45448
2.45107
2.4466
2.4417
2.43719
2.43338
2.43077
2.42874
2.42594
2.42249
2.4189
2.41533
2.41181
2.4083
2.40448
2.40033
2.39603
2.3917
2.38754
2.38379
2.38049
2.37687
2.37235
2.36755
2.36239
2.35712
2.35213
2.34759
2.34388
2.34001
2.33528
2.33027
2.32489
2.31964
2.31487
2.31054
2.30667
2.30194
2.29652
2.29064
2.28425
2.27815
2.27287
2.26807
2.26344
2.25868
2.25367
2.24828
2.2429
2.23823
2.23427
2.23072
2.22728
2.22363
2.21931
2.21395
2.2082
2.20352
2.19978
2.19623
2.19265
2.18888
2.18445
2.17888
2.17279
2.16805
2.16486
2.16194
2.15885
2.1553
2.15084
2.14494
2.13806
2.13231
2.12828
2.12465
2.12091
2.11695
2.11247
2.10703
2.10082
2.09503
2.0905
2.08677
2.08327
2.07963
2.07545
2.07057
2.06589
2.06272
2.06035
2.05781
2.05476
2.05059
2.04477
2.0377
2.03139
2.02712
2.02435
2.02363
2.02823
2.04597
2.08857
2.14798
2.16707
2.17043
2.23482
2.36525
2.38628
2.35966
2.33133
2.31785
2.31501
2.31442
2.31285
2.31004
2.30559
2.30179
2.30076
2.30219
2.30679
2.30941
2.30871
2.30659
2.30175
2.29766
2.29672
2.29722
2.30079
2.17746
2.10291
2.02927
1.96213
1.89158
1.82174
1.77065
1.71717
1.66529
1.61937
1.58206
1.54407
1.50536
1.47087
1.44585
1.41507
1.37706
1.36538
1.36071
1.34757
1.33021
1.32222
1.32636
1.33241
1.33396
1.35056
1.39379
1.4108
1.41867
1.42493
1.42395
1.41797
1.42422
1.44673
1.45928
1.6735
2.31246
2.49442
2.49891
2.49906
2.49041
2.48042
2.47638
2.47656
2.47947
2.47994
2.47623
2.46985
2.46584
2.46442
2.46565
2.46799
2.46774
2.46485
2.46125
2.45723
2.45399
2.45156
2.44994
2.44869
2.44735
2.446
2.44393
2.44021
2.43559
2.43063
2.42577
2.4214
2.41817
2.41627
2.41353
2.40932
2.4047
2.40005
2.39561
2.3916
2.38834
2.38519
2.38122
2.37692
2.37275
2.36896
2.36565
2.36205
2.35747
2.35251
2.34724
2.34192
2.3368
2.33204
2.32791
2.32383
2.31892
2.31371
2.30831
2.30289
2.29782
2.29318
2.28905
2.2847
2.27966
2.27433
2.26863
2.26269
2.25707
2.25192
2.24706
2.24229
2.23754
2.23262
2.2274
2.22213
2.21717
2.21265
2.20864
2.20501
2.20146
2.19755
2.19276
2.1871
2.18155
2.17684
2.17289
2.16933
2.16581
2.16212
2.15768
2.1519
2.14548
2.1404
2.13689
2.13378
2.13054
2.12701
2.12284
2.11754
2.11132
2.10565
2.10135
2.09764
2.09385
2.08978
2.08515
2.0796
2.07347
2.06806
2.06406
2.06078
2.05764
2.0542
2.04991
2.04458
2.03963
2.03636
2.03381
2.03108
2.02769
2.02288
2.01659
2.0099
2.00576
2.00459
2.00863
2.02422
2.06624
2.12012
2.16209
2.1602
2.14993
2.1599
2.25504
2.34438
2.33857
2.31736
2.2957
2.28432
2.28087
2.28265
2.28302
2.28202
2.2796
2.2779
2.27775
2.27827
2.27856
2.27804
2.27661
2.27397
2.27215
2.27171
2.2728
2.27587
2.1951
2.12674
2.06394
2.00353
1.93525
1.87553
1.82788
1.77798
1.72259
1.68138
1.64243
1.60108
1.56007
1.52338
1.49524
1.46739
1.4363
1.41952
1.40955
1.39646
1.38908
1.39774
1.40471
1.40291
1.40527
1.42663
1.4566
1.47269
1.47719
1.47826
1.4713
1.46702
1.47594
1.49339
1.50538
1.5131
1.75183
2.2787
2.45013
2.47116
2.47207
2.46537
2.46491
2.46586
2.46771
2.46672
2.46167
2.45618
2.45318
2.45178
2.45232
2.45384
2.45344
2.4501
2.4458
2.4412
2.43766
2.43476
2.4333
2.43294
2.43202
2.42919
2.42508
2.42051
2.41583
2.4112
2.40687
2.40326
2.40052
2.39766
2.39343
2.38845
2.38343
2.37834
2.37354
2.36941
2.36641
2.3639
2.36042
2.35625
2.35208
2.34823
2.34471
2.3406
2.33593
2.33103
2.32595
2.32097
2.31624
2.31192
2.30751