/*--------------------------------*- C++ -*----------------------------------*\
  =========                 |
  \\      /  F ield         | OpenFOAM: The Open Source CFD Toolbox
   \\    /   O peration     | Website:  https://openfoam.org
    \\  /    A nd           | Version:  10
     \\/     M anipulation  |
\*---------------------------------------------------------------------------*/
FoamFile
{
    format      ascii;
    class       volVectorField;
    location    "10";
    object      U;
}
// * * * * * * * * * * * * * * * * * * * * * * * * * * * * * * * * * * * * * //

dimensions      [0 1 -1 0 0 0 0];

internalField   nonuniform List<vector> 
16128
(
(3 -5.6602e-15 0)
(3 8.97462e-15 0)
(3 2.36375e-15 0)
(3 -3.6931e-14 0)
(3 -5.67371e-15 0)
(3 6.16166e-14 0)
(3 9.11873e-14 0)
(3 9.63856e-14 0)
(3 4.19435e-14 0)
(3 3.66021e-14 0)
(3 2.99763e-14 0)
(3 -4.43875e-14 0)
(3 -6.10756e-14 0)
(3 -5.68539e-14 0)
(3 -5.96341e-14 0)
(3 -6.80114e-14 0)
(3 -8.63627e-14 0)
(3 -5.86172e-14 0)
(3 -1.54566e-13 0)
(3 -1.82795e-13 0)
(3 -2.00808e-13 0)
(3 -1.88494e-13 0)
(3 -1.55004e-13 0)
(3 -7.90738e-14 0)
(1.44617 0.00831627 0)
(0.769255 0.00892996 0)
(0.723284 0.0111041 0)
(0.696833 0.0119666 0)
(0.667143 0.0124515 0)
(0.637937 0.012956 0)
(0.60802 0.0134258 0)
(0.57773 0.0137488 0)
(0.547289 0.0138619 0)
(0.517 0.0138211 0)
(0.487074 0.0138325 0)
(0.45734 0.0141437 0)
(0.427194 0.0146774 0)
(0.39613 0.0151284 0)
(0.364134 0.0154206 0)
(0.331499 0.0157687 0)
(0.298414 0.0162689 0)
(0.264581 0.0169308 0)
(0.229335 0.0176749 0)
(0.192063 0.018508 0)
(0.153043 0.0191813 0)
(0.112202 0.0205906 0)
(0.0682754 0.0220291 0)
(0.0235544 0.0225234 0)
(3 -1.28603e-15 0)
(3 -5.31722e-15 0)
(3 -3.18879e-14 0)
(3 -4.44251e-14 0)
(3 -3.43746e-14 0)
(3 1.85211e-14 0)
(3 7.75755e-14 0)
(3 8.86388e-14 0)
(3 4.32694e-14 0)
(3 6.40205e-14 0)
(3 6.96453e-14 0)
(3 -1.27355e-13 0)
(3 -1.61123e-13 0)
(3 -1.09046e-13 0)
(3 -6.27901e-14 0)
(3 -5.45985e-14 0)
(3 -4.63151e-14 0)
(3 -9.3313e-14 0)
(3 -2.09255e-13 0)
(3 -2.53053e-13 0)
(3 -2.04329e-13 0)
(3 -1.95707e-13 0)
(3 -2.05745e-13 0)
(3 -7.98669e-14 0)
(1.46097 0.0384003 0)
(0.76522 0.0358387 0)
(0.715869 0.0329853 0)
(0.68908 0.0345539 0)
(0.65938 0.035914 0)
(0.630215 0.0374988 0)
(0.600354 0.0390512 0)
(0.570068 0.040149 0)
(0.539565 0.0405612 0)
(0.509204 0.040451 0)
(0.479236 0.0405076 0)
(0.449476 0.0415204 0)
(0.4193 0.0432025 0)
(0.388247 0.0446095 0)
(0.356432 0.0456078 0)
(0.324179 0.0468973 0)
(0.291592 0.0486481 0)
(0.258354 0.0507443 0)
(0.223954 0.0528812 0)
(0.187996 0.0553629 0)
(0.150545 0.0576863 0)
(0.111094 0.0626726 0)
(0.0678445 0.0675383 0)
(0.0240392 0.0688285 0)
(3 -8.9008e-16 0)
(3 -3.32629e-14 0)
(3 -5.40672e-14 0)
(3 -1.91884e-14 0)
(3 -4.08215e-14 0)
(3 -6.31834e-14 0)
(3 -5.8347e-14 0)
(3 -8.5056e-14 0)
(3 -1.12556e-13 0)
(3 -3.4085e-14 0)
(3 -5.12665e-14 0)
(3 -7.41236e-14 0)
(3 -8.60998e-14 0)
(3 -4.81744e-14 0)
(3 -1.23552e-14 0)
(3 -3.02515e-14 0)
(3 -2.71658e-14 0)
(3 -5.75648e-14 0)
(3 -1.14333e-13 0)
(3 -1.54283e-13 0)
(3 -1.18758e-13 0)
(3 -1.05543e-13 0)
(3 -7.11935e-14 0)
(3 1.24579e-14 0)
(1.50844 0.0677362 0)
(0.771761 0.0624221 0)
(0.718033 0.0571573 0)
(0.689642 0.0590969 0)
(0.658915 0.0610649 0)
(0.629043 0.0634704 0)
(0.598708 0.0659272 0)
(0.567999 0.0677282 0)
(0.53704 0.0684641 0)
(0.50618 0.0683052 0)
(0.475656 0.0683044 0)
(0.445271 0.0698145 0)
(0.414452 0.072473 0)
(0.382798 0.0747606 0)
(0.350491 0.0763511 0)
(0.317764 0.0782367 0)
(0.28461 0.0806541 0)
(0.250855 0.0835647 0)
(0.216411 0.0865815 0)
(0.181277 0.0905175 0)
(0.145181 0.0945089 0)
(0.107565 0.103377 0)
(0.0656947 0.111657 0)
(0.0244307 0.113345 0)
(3 -1.65016e-15 0)
(3 -6.54564e-15 0)
(3 -2.10712e-14 0)
(3 -6.85334e-14 0)
(3 -6.34226e-14 0)
(3 -6.10817e-14 0)
(3 -1.12777e-13 0)
(3 -1.42598e-13 0)
(3 -1.46985e-13 0)
(3 -1.20886e-13 0)
(3 -7.37736e-14 0)
(3 1.70485e-14 0)
(3 -1.56363e-14 0)
(3 -3.53101e-14 0)
(3 -5.57556e-14 0)
(3 -3.27549e-14 0)
(3 -6.3018e-14 0)
(3 -7.59003e-14 0)
(3 -1.02756e-13 0)
(3 -1.69269e-13 0)
(3 -1.42447e-13 0)
(3 -1.06106e-13 0)
(3 -6.92028e-15 0)
(3 1.0724e-14 0)
(1.58058 0.0941782 0)
(0.780016 0.0887885 0)
(0.721247 0.0822746 0)
(0.692167 0.0838528 0)
(0.661356 0.0861108 0)
(0.631704 0.0891387 0)
(0.601778 0.0924489 0)
(0.571427 0.0950626 0)
(0.540638 0.0963643 0)
(0.509721 0.096418 0)
(0.47892 0.096528 0)
(0.448082 0.098667 0)
(0.416711 0.102513 0)
(0.384409 0.10599 0)
(0.351357 0.108438 0)
(0.317695 0.111034 0)
(0.283307 0.114079 0)
(0.248149 0.117638 0)
(0.212493 0.121096 0)
(0.176778 0.125948 0)
(0.140486 0.130819 0)
(0.103888 0.143217 0)
(0.0630539 0.154499 0)
(0.0233293 0.155716 0)
(3 2.42141e-14 0)
(3 3.50382e-14 0)
(3 -2.20408e-15 0)
(3 -3.96216e-14 0)
(3 -3.21873e-14 0)
(3 4.9491e-16 0)
(3 1.8039e-14 0)
(3 -4.82571e-14 0)
(3 -1.38777e-13 0)
(3 -2.01023e-13 0)
(3 -1.53831e-13 0)
(3 -7.97439e-14 0)
(3 -7.15478e-14 0)
(3 -4.71438e-14 0)
(3 -2.50816e-14 0)
(3 -8.70882e-15 0)
(3 -5.16142e-14 0)
(3 -6.58152e-14 0)
(3 -9.62591e-14 0)
(3 -1.59593e-13 0)
(3 -1.67482e-13 0)
(3 -1.57866e-13 0)
(3 -1.3586e-13 0)
(3 -5.81952e-14 0)
(1.67964 0.120522 0)
(0.790281 0.115602 0)
(0.723393 0.108951 0)
(0.693189 0.10918 0)
(0.662066 0.111255 0)
(0.632525 0.114564 0)
(0.603031 0.118567 0)
(0.573194 0.122018 0)
(0.54283 0.124051 0)
(0.51219 0.124509 0)
(0.481576 0.124772 0)
(0.450953 0.127462 0)
(0.419927 0.132468 0)
(0.387983 0.137241 0)
(0.355196 0.140724 0)
(0.321603 0.144232 0)
(0.286921 0.148161 0)
(0.251069 0.152713 0)
(0.214378 0.156795 0)
(0.177598 0.162583 0)
(0.139997 0.16776 0)
(0.102989 0.182977 0)
(0.0622722 0.196838 0)
(0.0221037 0.197018 0)
(3 -4.89202e-15 0)
(3 -2.30679e-14 0)
(3 -1.37623e-14 0)
(3 5.28735e-14 0)
(3 2.9629e-14 0)
(3 2.91407e-14 0)
(3 5.38747e-14 0)
(3 7.25809e-14 0)
(3 -6.27118e-15 0)
(3 -5.16805e-14 0)
(3 -1.06831e-13 0)
(3 -1.20697e-13 0)
(3 -2.76248e-15 0)
(3 1.01912e-14 0)
(3 2.77331e-14 0)
(3 4.29785e-14 0)
(3 3.39649e-14 0)
(3 -4.96463e-14 0)
(3 -1.31002e-13 0)
(3 -1.13254e-13 0)
(3 -1.10683e-13 0)
(3 -1.3769e-13 0)
(3 -1.91703e-13 0)
(3 -1.57477e-13 0)
(1.81427 0.145257 0)
(0.806035 0.143114 0)
(0.727442 0.137375 0)
(0.696045 0.135233 0)
(0.664424 0.136732 0)
(0.634737 0.140068 0)
(0.605354 0.144622 0)
(0.575729 0.14892 0)
(0.545525 0.151845 0)
(0.514888 0.152944 0)
(0.484166 0.153439 0)
(0.453488 0.15657 0)
(0.422586 0.162626 0)
(0.390775 0.168725 0)
(0.357986 0.173371 0)
(0.324299 0.177977 0)
(0.289408 0.183024 0)
(0.253139 0.188904 0)
(0.215516 0.193882 0)
(0.177465 0.200968 0)
(0.137986 0.206113 0)
(0.100704 0.223222 0)
(0.0614624 0.23731 0)
(0.0301728 0.238881 0)
(3 -1.86406e-14 0)
(3 -2.09337e-14 0)
(3 1.97035e-14 0)
(3 2.31933e-14 0)
(3 1.68908e-14 0)
(3 -1.35534e-15 0)
(3 1.89757e-14 0)
(3 6.65373e-14 0)
(3 1.02728e-13 0)
(3 6.45588e-14 0)
(3 7.04556e-15 0)
(3 -3.23216e-14 0)
(3 -8.50131e-15 0)
(3 2.14148e-14 0)
(3 4.69759e-15 0)
(3 -2.66615e-14 0)
(3 -3.37128e-14 0)
(3 -7.01058e-14 0)
(3 -1.25534e-13 0)
(3 -1.24486e-13 0)
(3 -1.37706e-13 0)
(3 -1.42787e-13 0)
(3 -1.42913e-13 0)
(3 -1.51608e-13 0)
(1.98515 0.164717 0)
(0.828267 0.171078 0)
(0.733371 0.166569 0)
(0.701802 0.161276 0)
(0.670324 0.161885 0)
(0.641189 0.16499 0)
(0.612653 0.169867 0)
(0.584026 0.174886 0)
(0.554723 0.178732 0)
(0.524667 0.18069 0)
(0.49418 0.181571 0)
(0.463586 0.185111 0)
(0.432789 0.192186 0)
(0.400912 0.199768 0)
(0.367702 0.205875 0)
(0.333415 0.211911 0)
(0.297868 0.21836 0)
(0.260945 0.225895 0)
(0.222321 0.232123 0)
(0.183126 0.241188 0)
(0.141405 0.246678 0)
(0.102411 0.265207 0)
(0.060739 0.276335 0)
(0.0404166 0.280929 0)
(3 5.29643e-15 0)
(3 7.8812e-14 0)
(3 8.32255e-14 0)
(3 1.70257e-14 0)
(3 9.8966e-17 0)
(3 3.25545e-14 0)
(3 4.46902e-14 0)
(3 2.56719e-14 0)
(3 3.0339e-14 0)
(3 2.73971e-14 0)
(3 1.56426e-15 0)
(3 -5.96443e-14 0)
(3 -7.32789e-14 0)
(3 -5.65846e-14 0)
(3 -3.54814e-14 0)
(3 -7.22374e-14 0)
(3 -8.35044e-14 0)
(3 -1.48728e-13 0)
(3 -2.23998e-13 0)
(3 -2.26714e-13 0)
(3 -2.07706e-13 0)
(3 -1.93316e-13 0)
(3 -1.09562e-13 0)
(3 -8.07359e-14 0)
(2.18788 0.1781 0)
(0.852254 0.203285 0)
(0.732736 0.196916 0)
(0.701373 0.188042 0)
(0.669676 0.187643 0)
(0.640606 0.190241 0)
(0.612367 0.195155 0)
(0.584366 0.200801 0)
(0.555928 0.205669 0)
(0.526799 0.20876 0)
(0.497191 0.210232 0)
(0.467608 0.214126 0)
(0.438159 0.222121 0)
(0.407665 0.23124 0)
(0.375422 0.23899 0)
(0.341712 0.246729 0)
(0.306353 0.254845 0)
(0.269335 0.264299 0)
(0.229979 0.271851 0)
(0.190027 0.282997 0)
(0.146939 0.289135 0)
(0.10734 0.309206 0)
(0.0638012 0.317691 0)
(0.0430795 0.324417 0)
(3 7.32179e-15 0)
(3 1.42252e-14 0)
(3 -1.0388e-14 0)
(3 -4.50108e-14 0)
(3 -2.90195e-14 0)
(3 -6.11836e-15 0)
(3 3.28373e-14 0)
(3 2.88426e-14 0)
(3 3.94143e-14 0)
(3 -2.51596e-14 0)
(3 -6.16455e-14 0)
(3 -1.0627e-13 0)
(3 -1.14773e-13 0)
(3 -1.13896e-13 0)
(3 -5.22906e-14 0)
(3 1.60618e-14 0)
(3 -1.01771e-14 0)
(3 -6.39538e-14 0)
(3 -8.42458e-14 0)
(3 -5.96458e-14 0)
(3 -5.59952e-14 0)
(3 -5.11089e-14 0)
(3 -1.153e-14 0)
(3 -3.45958e-15 0)
(2.42519 0.189158 0)
(0.890283 0.243169 0)
(0.74293 0.226502 0)
(0.714743 0.216715 0)
(0.681914 0.215512 0)
(0.651429 0.217451 0)
(0.621536 0.222025 0)
(0.592251 0.227695 0)
(0.562976 0.232923 0)
(0.533322 0.23671 0)
(0.503348 0.238493 0)
(0.473715 0.24227 0)
(0.444906 0.250761 0)
(0.415655 0.261355 0)
(0.38462 0.270995 0)
(0.351972 0.280889 0)
(0.317355 0.291183 0)
(0.280865 0.303113 0)
(0.241227 0.312417 0)
(0.200858 0.325873 0)
(0.156453 0.333059 0)
(0.115447 0.354816 0)
(0.0688254 0.36239 0)
(0.0462574 0.371125 0)
(3 -1.48628e-15 0)
(3 -5.01507e-14 0)
(3 -9.61496e-14 0)
(3 -8.51429e-14 0)
(3 -3.63029e-14 0)
(3 -1.65358e-14 0)
(3 1.74304e-15 0)
(3 2.28134e-15 0)
(3 9.8523e-15 0)
(3 -1.37998e-14 0)
(3 -4.45507e-14 0)
(3 -4.11968e-14 0)
(3 -4.1127e-14 0)
(3 -5.79329e-14 0)
(3 7.76324e-15 0)
(3 4.08958e-14 0)
(3 6.04718e-15 0)
(3 6.83606e-14 0)
(3 8.93739e-14 0)
(3 6.84765e-14 0)
(3 6.69363e-14 0)
(3 8.26518e-14 0)
(3 8.88978e-14 0)
(3 4.39069e-14 0)
(2.69599 0.185989 0)
(0.962923 0.279127 0)
(0.776576 0.241703 0)
(0.749837 0.240087 0)
(0.713937 0.241569 0)
(0.680431 0.244432 0)
(0.646892 0.24934 0)
(0.614074 0.255484 0)
(0.581622 0.261441 0)
(0.549283 0.266145 0)
(0.516932 0.26832 0)
(0.485288 0.271562 0)
(0.455235 0.279814 0)
(0.425884 0.291344 0)
(0.395315 0.302615 0)
(0.363463 0.314701 0)
(0.329527 0.327442 0)
(0.293641 0.342454 0)
(0.25359 0.354274 0)
(0.212718 0.370634 0)
(0.166589 0.379811 0)
(0.123237 0.404269 0)
(0.0724144 0.412908 0)
(0.0459198 0.421112 0)
(3 8.36385e-16 0)
(3 5.05258e-15 0)
(3 4.133e-15 0)
(3 -2.10955e-15 0)
(3 -1.49562e-14 0)
(3 2.23113e-14 0)
(3 3.63145e-14 0)
(3 9.01871e-15 0)
(3 -5.68364e-14 0)
(3 3.74507e-14 0)
(3 5.28199e-14 0)
(3 7.28705e-14 0)
(3 1.0046e-13 0)
(3 8.71858e-14 0)
(3 2.78517e-14 0)
(3 -2.88271e-14 0)
(3 4.53245e-15 0)
(3 9.24831e-14 0)
(3 1.0467e-13 0)
(3 7.84765e-14 0)
(3 1.1609e-13 0)
(3 1.02719e-13 0)
(3 5.00412e-14 0)
(3 5.10401e-15 0)
(2.95 0.0808885 0)
(1.0595 0.29281 0)
(0.806276 0.257801 0)
(0.789261 0.263283 0)
(0.752922 0.268385 0)
(0.717558 0.273478 0)
(0.681098 0.279633 0)
(0.645341 0.286365 0)
(0.610076 0.292606 0)
(0.574889 0.297983 0)
(0.539528 0.300687 0)
(0.504815 0.303214 0)
(0.47202 0.310514 0)
(0.441058 0.322248 0)
(0.409775 0.334534 0)
(0.377924 0.348495 0)
(0.344216 0.363673 0)
(0.309109 0.38216 0)
(0.269181 0.397134 0)
(0.228563 0.416744 0)
(0.181012 0.429156 0)
(0.134974 0.457746 0)
(0.08064 0.46899 0)
(0.0522627 0.475137 0)
(3 -6.73014e-15 0)
(3 2.64637e-16 0)
(3 7.79748e-15 0)
(3 5.5089e-15 0)
(3 5.8788e-15 0)
(3 -2.65278e-15 0)
(3 -3.28817e-14 0)
(3 -1.94344e-14 0)
(3 -3.70317e-14 0)
(3 -1.73868e-14 0)
(3 -2.92849e-14 0)
(3 5.89896e-15 0)
(3 1.28008e-14 0)
(3 -2.78054e-14 0)
(3 -1.06136e-13 0)
(3 -1.30614e-13 0)
(3 -3.10773e-14 0)
(3 6.92149e-14 0)
(3 5.0788e-14 0)
(3 3.31152e-14 0)
(3 5.46636e-14 0)
(3 9.18293e-14 0)
(3 9.28227e-14 0)
(3 5.64641e-14 0)
(3.01833 0.00747185 0)
(1.14836 0.288432 0)
(0.808439 0.271475 0)
(0.798701 0.293179 0)
(0.769798 0.30079 0)
(0.740952 0.30509 0)
(0.709601 0.310208 0)
(0.67663 0.317231 0)
(0.642182 0.325119 0)
(0.606627 0.332036 0)
(0.56981 0.335854 0)
(0.532545 0.338071 0)
(0.496554 0.344009 0)
(0.462881 0.355306 0)
(0.429726 0.367889 0)
(0.397003 0.38311 0)
(0.363002 0.40012 0)
(0.328615 0.421986 0)
(0.288501 0.441182 0)
(0.246652 0.465725 0)
(0.19548 0.483952 0)
(0.146198 0.517964 0)
(0.0866594 0.53133 0)
(0.0561785 0.537838 0)
(3 -3.91873e-15 0)
(3 -3.57371e-14 0)
(3 -4.18058e-14 0)
(3 -6.04976e-15 0)
(3 2.84559e-14 0)
(3 -2.32427e-14 0)
(3 -7.91167e-14 0)
(3 -8.93795e-14 0)
(3 -7.34903e-14 0)
(3 -5.59361e-14 0)
(3 -3.26615e-14 0)
(3 -3.27147e-15 0)
(3 -1.14455e-13 0)
(3 -1.45749e-13 0)
(3 -2.18753e-13 0)
(3 -2.0567e-13 0)
(3 -1.13467e-13 0)
(3 -4.23213e-14 0)
(3 1.54514e-14 0)
(3 2.67933e-14 0)
(3 3.73787e-14 0)
(3 7.24471e-14 0)
(3 9.59131e-14 0)
(3 7.57682e-14 0)
(3.00064 1.8186e-05 0)
(1.27925 0.306766 0)
(0.798149 0.2788 0)
(0.781848 0.308825 0)
(0.759608 0.325274 0)
(0.737335 0.332618 0)
(0.715575 0.338883 0)
(0.693143 0.346277 0)
(0.667657 0.354909 0)
(0.637499 0.36425 0)
(0.603204 0.371217 0)
(0.566082 0.375088 0)
(0.528243 0.380478 0)
(0.491931 0.39134 0)
(0.456324 0.403659 0)
(0.421979 0.419421 0)
(0.386732 0.437691 0)
(0.352428 0.462833 0)
(0.312811 0.487185 0)
(0.271615 0.517431 0)
(0.221231 0.541982 0)
(0.171372 0.582496 0)
(0.104403 0.600008 0)
(0.0707455 0.611339 0)
(3 1.54379e-15 0)
(3 4.28451e-14 0)
(3 9.56355e-14 0)
(3 7.84346e-14 0)
(3 2.56804e-14 0)
(3 4.93418e-15 0)
(3 -1.33376e-14 0)
(3 -5.69294e-14 0)
(3 -5.00731e-14 0)
(3 -1.04548e-14 0)
(3 3.21603e-14 0)
(3 -4.40576e-16 0)
(3 -3.08348e-15 0)
(3 2.48019e-14 0)
(3 3.72469e-14 0)
(3 -8.91687e-14 0)
(3 -1.35163e-13 0)
(3 -1.26331e-13 0)
(3 -1.27499e-14 0)
(3 7.88679e-14 0)
(3 2.15974e-13 0)
(3 1.70508e-13 0)
(3 6.29029e-14 0)
(3 5.15422e-14 0)
(3 -6.93514e-08 0)
(1.49612 0.335441 0)
(0.808271 0.308984 0)
(0.753496 0.318136 0)
(0.736933 0.332244 0)
(0.719906 0.342189 0)
(0.705003 0.353225 0)
(0.688947 0.365136 0)
(0.673079 0.379062 0)
(0.653987 0.392453 0)
(0.628834 0.40373 0)
(0.597534 0.411563 0)
(0.562255 0.418391 0)
(0.526198 0.429766 0)
(0.489347 0.441884 0)
(0.453355 0.458156 0)
(0.417007 0.476856 0)
(0.383078 0.504284 0)
(0.344619 0.533092 0)
(0.304668 0.569696 0)
(0.251619 0.605369 0)
(0.196024 0.660286 0)
(0.117374 0.688679 0)
(0.0720028 0.708535 0)
(3 8.06694e-15 0)
(3 1.20084e-14 0)
(3 5.06507e-14 0)
(3 6.68922e-14 0)
(3 1.90827e-14 0)
(3 -1.82922e-14 0)
(3 -1.97651e-14 0)
(3 -1.64931e-14 0)
(3 2.42951e-14 0)
(3 2.66841e-14 0)
(3 1.92187e-14 0)
(3 2.45046e-14 0)
(3 6.02254e-14 0)
(3 1.31215e-13 0)
(3 2.2004e-13 0)
(3 1.62907e-13 0)
(3 6.45655e-14 0)
(3 5.74617e-14 0)
(3 5.71704e-14 0)
(3 9.0102e-14 0)
(3 7.4473e-14 0)
(3 6.25019e-14 0)
(3 4.11125e-14 0)
(3 8.5143e-14 0)
(3 -8.97954e-08 0)
(1.82757 0.374204 0)
(0.835502 0.368051 0)
(0.745008 0.347745 0)
(0.725985 0.349716 0)
(0.710868 0.3566 0)
(0.696636 0.365363 0)
(0.682877 0.377064 0)
(0.669327 0.392164 0)
(0.656553 0.410522 0)
(0.64124 0.428441 0)
(0.619417 0.442773 0)
(0.591358 0.453981 0)
(0.560223 0.468066 0)
(0.525125 0.481988 0)
(0.490056 0.499319 0)
(0.453436 0.51801 0)
(0.419593 0.547022 0)
(0.382413 0.580768 0)
(0.344866 0.626389 0)
(0.295982 0.675155 0)
(0.249801 0.744093 0)
(0.168204 0.78938 0)
(0.111299 0.822503 0)
(3 -5.84124e-15 0)
(3 -5.02635e-14 0)
(3 -7.33568e-14 0)
(3 -1.85012e-14 0)
(3 4.66747e-16 0)
(3 -1.51273e-14 0)
(3 -3.26206e-14 0)
(3 -2.23096e-14 0)
(3 1.57096e-14 0)
(3 1.01012e-14 0)
(3 5.198e-15 0)
(3 2.82147e-14 0)
(3 1.40983e-14 0)
(3 4.1086e-14 0)
(3 1.00232e-13 0)
(3 1.56769e-13 0)
(3 1.5877e-13 0)
(3 1.34197e-13 0)
(3 1.05685e-13 0)
(3 4.11353e-14 0)
(3 7.60737e-15 0)
(3 2.18344e-14 0)
(3 4.81498e-14 0)
(3 6.3818e-14 0)
(3 -1.91934e-08 0)
(2.31156 0.375841 0)
(0.908098 0.437448 0)
(0.784288 0.37634 0)
(0.752702 0.373745 0)
(0.725626 0.376647 0)
(0.703913 0.383609 0)
(0.686453 0.394061 0)
(0.671249 0.407469 0)
(0.65844 0.424907 0)
(0.646667 0.44527 0)
(0.633148 0.465602 0)
(0.613415 0.483069 0)
(0.58989 0.501683 0)
(0.561262 0.51988 0)
(0.530281 0.540161 0)
(0.495426 0.559986 0)
(0.463276 0.590723 0)
(0.429121 0.628152 0)
(0.399616 0.679851 0)
(0.356925 0.737397 0)
(0.316317 0.83581 0)
(0.206824 0.945231 0)
(0.161503 1.03819 0)
(3 1.55504e-14 0)
(3 1.29649e-14 0)
(3 1.04282e-15 0)
(3 -3.21071e-14 0)
(3 -1.50395e-14 0)
(3 -9.08592e-15 0)
(3 9.73545e-15 0)
(3 5.41204e-15 0)
(3 7.17097e-15 0)
(3 1.54916e-15 0)
(3 -4.80701e-14 0)
(3 -6.87562e-14 0)
(3 -5.20839e-14 0)
(3 -4.85037e-14 0)
(3 -2.57683e-14 0)
(3 5.2975e-14 0)
(3 8.46451e-14 0)
(3 7.83319e-14 0)
(3 1.11522e-13 0)
(3 1.26398e-13 0)
(3 1.24166e-13 0)
(3 7.2856e-14 0)
(3 3.90274e-14 0)
(3 4.6437e-14 0)
(3 -1.98782e-09 0)
(2.90512 0.193438 0)
(1.07396 0.465049 0)
(0.860417 0.399579 0)
(0.823289 0.395082 0)
(0.776928 0.400215 0)
(0.738682 0.405004 0)
(0.709523 0.413065 0)
(0.686723 0.424865 0)
(0.669154 0.440962 0)
(0.655633 0.460933 0)
(0.644326 0.483254 0)
(0.630798 0.505641 0)
(0.61395 0.529369 0)
(0.59384 0.553325 0)
(0.570001 0.578828 0)
(0.540464 0.601756 0)
(0.51308 0.634493 0)
(0.483146 0.673172 0)
(0.462267 0.730984 0)
(0.427051 0.80997 0)
(0.410603 0.944835 0)
(0.394884 1.09506 0)
(0.539815 1.34471 0)
(3 6.84008e-15 0)
(3 6.77016e-15 0)
(3 1.09177e-15 0)
(3 -3.21852e-14 0)
(3 -3.89902e-14 0)
(3 -1.37312e-14 0)
(3 1.70296e-15 0)
(3 -7.19867e-15 0)
(3 -5.39057e-14 0)
(3 -3.88318e-14 0)
(3 -2.56838e-14 0)
(3 -5.32547e-14 0)
(3 -5.89496e-14 0)
(3 -1.39625e-13 0)
(3 -4.57426e-14 0)
(3 4.65537e-14 0)
(3 4.45318e-14 0)
(3 6.95941e-14 0)
(3 1.12472e-13 0)
(3 1.55321e-13 0)
(3 1.36841e-13 0)
(3 3.46821e-14 0)
(3 -6.38091e-14 0)
(3 -5.92629e-14 0)
(3 -8.10107e-11 0)
(3.04765 0.0121116 0)
(1.26704 0.428813 0)
(0.884258 0.430457 0)
(0.857887 0.447313 0)
(0.82193 0.445051 0)
(0.782733 0.441764 0)
(0.746254 0.443081 0)
(0.715313 0.448784 0)
(0.690723 0.460117 0)
(0.672769 0.477305 0)
(0.659809 0.499182 0)
(0.648291 0.523533 0)
(0.637119 0.550663 0)
(0.623814 0.57942 0)
(0.609102 0.610803 0)
(0.587449 0.638992 0)
(0.567764 0.674891 0)
(0.544529 0.715282 0)
(0.532936 0.7776 0)
(0.523634 0.869376 0)
(0.537989 1.00934 0)
(0.624814 1.1605 0)
(0.934935 1.34856 0)
(3 -1.28579e-14 0)
(3 -2.61273e-15 0)
(3 1.52511e-14 0)
(3 2.12122e-14 0)
(3 -4.3994e-15 0)
(3 2.47018e-14 0)
(3 1.77811e-14 0)
(3 -3.48564e-15 0)
(3 -1.58476e-14 0)
(3 -1.44033e-14 0)
(3 1.74911e-14 0)
(3 2.95168e-14 0)
(3 -5.46265e-15 0)
(3 -3.68668e-14 0)
(3 -7.03375e-15 0)
(3 -5.57514e-14 0)
(3 -7.82069e-14 0)
(3 -3.3051e-14 0)
(3 -1.42229e-14 0)
(3 1.06625e-14 0)
(3 -1.22688e-14 0)
(3 -7.70423e-14 0)
(3 -5.65763e-14 0)
(3 2.56598e-15 0)
(3 -1.68726e-12 0)
(3.00179 -7.11513e-06 0)
(1.49026 0.425005 0)
(0.866282 0.460053 0)
(0.844874 0.470761 0)
(0.823397 0.474405 0)
(0.801162 0.475363 0)
(0.774704 0.476985 0)
(0.745929 0.480068 0)
(0.718967 0.486411 0)
(0.696386 0.498511 0)
(0.680505 0.5174 0)
(0.668012 0.540788 0)
(0.660038 0.569053 0)
(0.651095 0.600722 0)
(0.645279 0.6366 0)
(0.633229 0.671007 0)
(0.623698 0.710879 0)
(0.610907 0.753605 0)
(0.610254 0.815508 0)
(0.625337 0.905628 0)
(0.673386 1.02861 0)
(0.823847 1.16476 0)
(1.15299 1.28318 0)
(3 -7.97964e-16 0)
(3 -2.99453e-15 0)
(3 -2.19302e-15 0)
(3 4.4777e-15 0)
(3 4.05458e-14 0)
(3 6.03768e-14 0)
(3 5.8455e-14 0)
(3 3.33701e-14 0)
(3 -8.92502e-15 0)
(3 -4.02001e-14 0)
(3 -5.86074e-14 0)
(3 4.0532e-14 0)
(3 2.68479e-14 0)
(3 2.91593e-14 0)
(3 2.52143e-14 0)
(3 -9.15275e-15 0)
(3 -3.60905e-14 0)
(3 -4.83229e-14 0)
(3 -8.12754e-14 0)
(3 -1.03295e-13 0)
(3 -1.14406e-13 0)
(3 -8.99372e-14 0)
(3 -4.15478e-14 0)
(3 -1.65373e-14 0)
(3 2.25271e-14 0)
(3 -2.11409e-07 0)
(1.9281 0.452012 0)
(0.894401 0.491655 0)
(0.831603 0.477413 0)
(0.826051 0.487834 0)
(0.812547 0.495936 0)
(0.795549 0.502685 0)
(0.774206 0.508054 0)
(0.750846 0.514095 0)
(0.727394 0.522154 0)
(0.709066 0.537404 0)
(0.693847 0.557694 0)
(0.686413 0.584634 0)
(0.679821 0.61658 0)
(0.679972 0.654592 0)
(0.677142 0.694441 0)
(0.678777 0.738227 0)
(0.678602 0.783907 0)
(0.690459 0.842419 0)
(0.721542 0.923447 0)
(0.798241 1.02872 0)
(0.970686 1.13827 0)
(1.24877 1.21095 0)
(3 7.33212e-15 0)
(3 2.16479e-14 0)
(3 8.42991e-15 0)
(3 7.07367e-15 0)
(3 3.82766e-14 0)
(3 4.93328e-14 0)
(3 3.48807e-14 0)
(3 3.94625e-14 0)
(3 -1.2868e-14 0)
(3 1.1011e-14 0)
(3 3.37871e-14 0)
(3 3.07831e-14 0)
(3 4.19804e-14 0)
(3 3.59963e-14 0)
(3 4.71433e-14 0)
(3 2.71267e-14 0)
(3 1.59936e-14 0)
(3 -1.42477e-14 0)
(3 -7.42451e-14 0)
(3 -1.12271e-13 0)
(3 -6.68841e-14 0)
(3 3.95451e-14 0)
(3 1.04559e-13 0)
(3 6.51119e-14 0)
(3 4.66164e-14 0)
(3 -2.66114e-07 0)
(2.60341 0.359625 0)
(1.01319 0.546344 0)
(0.873749 0.484904 0)
(0.855294 0.494582 0)
(0.837776 0.509128 0)
(0.820992 0.521608 0)
(0.802214 0.531938 0)
(0.783049 0.541436 0)
(0.761663 0.549339 0)
(0.742721 0.562468 0)
(0.725728 0.578675 0)
(0.716452 0.602526 0)
(0.710911 0.632193 0)
(0.71407 0.669003 0)
(0.718384 0.710988 0)
(0.730026 0.757493 0)
(0.743164 0.80609 0)
(0.767497 0.861178 0)
(0.810749 0.931075 0)
(0.90335 1.01648 0)
(1.06985 1.09644 0)
(1.29942 1.14593 0)
(3 1.05027e-14 0)
(3 1.14955e-14 0)
(3 1.76051e-14 0)
(3 2.98464e-14 0)
(3 5.61576e-14 0)
(3 5.00832e-14 0)
(3 2.19058e-14 0)
(3 -2.46518e-14 0)
(3 7.50396e-15 0)
(3 2.23195e-14 0)
(3 6.67449e-14 0)
(3 5.29038e-14 0)
(3 6.11341e-14 0)
(3 6.7646e-14 0)
(3 2.69063e-14 0)
(3 -7.74898e-15 0)
(3 -4.35106e-15 0)
(3 1.2779e-14 0)
(3 -1.63175e-14 0)
(3 -6.00144e-14 0)
(3 -9.30735e-14 0)
(3 -8.64333e-15 0)
(3 9.15333e-14 0)
(3 1.28662e-13 0)
(3 1.07355e-13 0)
(3 -5.59667e-08 0)
(3.08208 0.0493913 0)
(1.26657 0.525291 0)
(0.929461 0.513542 0)
(0.897002 0.523275 0)
(0.87259 0.531279 0)
(0.851743 0.540305 0)
(0.833721 0.550829 0)
(0.817501 0.562702 0)
(0.798987 0.572558 0)
(0.781504 0.586032 0)
(0.764469 0.599864 0)
(0.752813 0.620322 0)
(0.746593 0.646523 0)
(0.749914 0.680147 0)
(0.75828 0.720576 0)
(0.776428 0.767023 0)
(0.800939 0.817229 0)
(0.836467 0.87036 0)
(0.890363 0.931041 0)
(0.987406 0.997403 0)
(1.13733 1.05234 0)
(1.3246 1.08405 0)
(3 -1.2083e-14 0)
(3 -1.02558e-14 0)
(3 -3.23653e-14 0)
(3 -2.91586e-14 0)
(3 -9.16086e-15 0)
(3 -2.22456e-14 0)
(3 -1.17351e-14 0)
(3 -1.2444e-14 0)
(3 1.94062e-14 0)
(3 -9.17714e-15 0)
(3 4.11224e-15 0)
(3 9.49453e-15 0)
(3 -5.83622e-14 0)
(3 -5.83167e-14 0)
(3 -3.33226e-14 0)
(3 -1.2282e-14 0)
(3 -3.64733e-15 0)
(3 -2.08618e-14 0)
(3 1.65564e-14 0)
(3 1.22925e-14 0)
(3 -9.62176e-14 0)
(3 -1.27981e-13 0)
(3 -8.35647e-14 0)
(3 -1.48684e-15 0)
(3 8.39355e-14 0)
(3 -5.68532e-09 0)
(3.00955 0.000136006 0)
(1.49376 0.507392 0)
(0.919058 0.570848 0)
(0.892582 0.555888 0)
(0.876777 0.557629 0)
(0.862197 0.563978 0)
(0.849549 0.573858 0)
(0.838849 0.586567 0)
(0.826329 0.598019 0)
(0.814418 0.61224 0)
(0.801455 0.625564 0)
(0.79123 0.642938 0)
(0.785132 0.664559 0)
(0.78794 0.693478 0)
(0.798416 0.7294 0)
(0.819626 0.771805 0)
(0.850967 0.819738 0)
(0.895386 0.87093 0)
(0.958384 0.925254 0)
(1.0546 0.977724 0)
(1.18674 1.01625 0)
(1.34095 1.03564 0)
(3 3.7227e-15 0)
(3 5.60028e-14 0)
(3 4.03903e-14 0)
(3 2.93279e-14 0)
(3 6.65906e-15 0)
(3 -2.16308e-14 0)
(3 -2.61977e-14 0)
(3 7.89822e-15 0)
(3 -2.28728e-14 0)
(3 -7.8381e-14 0)
(3 -1.0379e-13 0)
(3 -1.35476e-13 0)
(3 -1.27353e-13 0)
(3 -1.39329e-13 0)
(3 -1.11992e-13 0)
(3 -2.95424e-15 0)
(3 8.00436e-14 0)
(3 7.40006e-14 0)
(3 6.09536e-14 0)
(3 7.34754e-15 0)
(3 2.80883e-14 0)
(3 -4.31139e-14 0)
(3 -2.10684e-14 0)
(3 -3.64514e-14 0)
(3 3.93043e-14 0)
(3 -1.79946e-10 0)
(3.00007 -2.58458e-06 0)
(2.05686 0.51212 0)
(0.965804 0.602809 0)
(0.904095 0.567276 0)
(0.893997 0.572521 0)
(0.881988 0.579607 0)
(0.871186 0.588678 0)
(0.86271 0.601649 0)
(0.853803 0.614695 0)
(0.846448 0.630323 0)
(0.838336 0.645354 0)
(0.831628 0.662581 0)
(0.826977 0.681267 0)
(0.829046 0.705942 0)
(0.839933 0.737062 0)
(0.861683 0.774052 0)
(0.895059 0.816655 0)
(0.943613 0.863237 0)
(1.01138 0.91081 0)
(1.10501 0.954996 0)
(1.22187 0.984218 0)
(1.3519 0.99491 0)
(3 3.4583e-15 0)
(3 4.68614e-15 0)
(3 4.46911e-14 0)
(3 8.96932e-14 0)
(3 4.44444e-14 0)
(3 2.30953e-14 0)
(3 2.65634e-14 0)
(3 -3.16286e-15 0)
(3 -3.05934e-14 0)
(3 -7.01213e-14 0)
(3 -7.50747e-14 0)
(3 -1.12091e-13 0)
(3 -7.76314e-14 0)
(3 -1.32155e-14 0)
(3 -8.4306e-15 0)
(3 1.98206e-14 0)
(3 2.00484e-14 0)
(3 5.15473e-14 0)
(3 1.46518e-14 0)
(3 5.49971e-14 0)
(3 1.06428e-13 0)
(3 9.38778e-14 0)
(3 1.28932e-14 0)
(3 -7.14481e-14 0)
(3 -2.14947e-14 0)
(3 -4.42412e-13 0)
(3.00001 -3.37641e-06 0)
(2.86975 0.250085 0)
(1.15162 0.617305 0)
(0.961336 0.572917 0)
(0.936953 0.580035 0)
(0.916473 0.593055 0)
(0.900409 0.603466 0)
(0.889604 0.616876 0)
(0.880614 0.630426 0)
(0.87538 0.646719 0)
(0.871175 0.663419 0)
(0.869039 0.681692 0)
(0.868184 0.699777 0)
(0.871285 0.720649 0)
(0.882314 0.746853 0)
(0.903774 0.778132 0)
(0.937108 0.81411 0)
(0.98604 0.853964 0)
(1.05369 0.894195 0)
(1.14399 0.932797 0)
(1.24802 0.956885 0)
(1.36363 0.964642 0)
(3 1.20698e-15 0)
(3 -5.02828e-14 0)
(3 -1.99808e-14 0)
(3 1.7353e-14 0)
(3 2.69709e-14 0)
(3 -1.43264e-14 0)
(3 2.96156e-16 0)
(3 -4.95217e-15 0)
(3 -2.45913e-15 0)
(3 6.54537e-14 0)
(3 1.06752e-13 0)
(3 1.49123e-13 0)
(3 1.04728e-13 0)
(3 8.40965e-14 0)
(3 5.11104e-14 0)
(3 3.53093e-14 0)
(3 3.23424e-14 0)
(3 2.35296e-14 0)
(3 2.73777e-14 0)
(3 8.5185e-14 0)
(3 7.44666e-14 0)
(3 7.53786e-14 0)
(3 1.38561e-14 0)
(3 4.71689e-15 0)
(3 -7.07593e-15 0)
(3 1.43495e-14 0)
(3 -7.13789e-07 0)
(3.05723 0.0134774 0)
(1.40225 0.574862 0)
(0.992189 0.623621 0)
(0.964146 0.620587 0)
(0.938648 0.623167 0)
(0.922926 0.626537 0)
(0.912497 0.636272 0)
(0.90455 0.647281 0)
(0.901122 0.661778 0)
(0.900257 0.67807 0)
(0.902371 0.696475 0)
(0.906534 0.715324 0)
(0.912925 0.734394 0)
(0.924735 0.756309 0)
(0.945706 0.782096 0)
(0.978145 0.811428 0)
(1.02452 0.843266 0)
(1.08714 0.876616 0)
(1.16977 0.908292 0)
(1.26209 0.92811 0)
(1.36845 0.935129 0)
(3 -3.42326e-15 0)
(3 5.85519e-15 0)
(3 -1.22465e-14 0)
(3 -3.9564e-14 0)
(3 -1.69837e-14 0)
(3 -2.73863e-14 0)
(3 -7.65962e-15 0)
(3 3.3931e-14 0)
(3 6.18433e-14 0)
(3 1.11299e-13 0)
(3 1.00452e-13 0)
(3 1.26281e-13 0)
(3 1.60702e-13 0)
(3 6.62258e-14 0)
(3 2.78201e-14 0)
(3 1.43397e-14 0)
(3 4.55172e-14 0)
(3 1.15328e-13 0)
(3 9.52018e-14 0)
(3 5.03236e-14 0)
(3 3.58403e-14 0)
(3 2.37976e-14 0)
(3 1.89556e-14 0)
(3 2.7787e-14 0)
(3 -4.15129e-15 0)
(3 3.12615e-14 0)
(3 -7.23072e-08 0)
(3.00192 2.32336e-07 0)
(1.86199 0.566599 0)
(0.999658 0.661293 0)
(0.965695 0.63878 0)
(0.958066 0.643822 0)
(0.948764 0.645659 0)
(0.93904 0.652937 0)
(0.931534 0.661639 0)
(0.927995 0.674197 0)
(0.928427 0.689467 0)
(0.932823 0.707378 0)
(0.940607 0.726914 0)
(0.951546 0.746507 0)
(0.965141 0.766138 0)
(0.986658 0.788449 0)
(1.01885 0.812481 0)
(1.06239 0.8379 0)
(1.11943 0.86513 0)
(1.19383 0.889614 0)
(1.27647 0.904501 0)
(1.37332 0.911983 0)
(3 -7.14599e-15 0)
(3 -5.6374e-15 0)
(3 -2.86698e-14 0)
(3 -1.04722e-13 0)
(3 -1.28414e-13 0)
(3 -5.55933e-14 0)
(3 7.76095e-15 0)
(3 7.57293e-14 0)
(3 1.47705e-13 0)
(3 1.59094e-13 0)
(3 1.44644e-13 0)
(3 6.69031e-14 0)
(3 5.54961e-14 0)
(3 2.76821e-14 0)
(3 -2.78942e-18 0)
(3 -2.05306e-15 0)
(3 -1.75876e-15 0)
(3 -2.93487e-15 0)
(3 -7.00318e-16 0)
(3 4.81083e-14 0)
(3 1.14237e-13 0)
(3 1.02155e-13 0)
(3 3.29195e-14 0)
(3 -2.03464e-14 0)
(3 -2.26256e-14 0)
(3 3.08379e-14 0)
(3 -2.28799e-09 0)
(3 -1.78736e-07 0)
(2.73367 0.332141 0)
(1.1499 0.674561 0)
(1.00101 0.638609 0)
(0.989871 0.650279 0)
(0.979147 0.659596 0)
(0.968643 0.668785 0)
(0.960452 0.677035 0)
(0.956035 0.687753 0)
(0.956099 0.701015 0)
(0.961488 0.717329 0)
(0.970594 0.735632 0)
(0.985397 0.75557 0)
(1.00199 0.774309 0)
(1.0254 0.792677 0)
(1.05722 0.81252 0)
(1.09756 0.832393 0)
(1.14933 0.85307 0)
(1.2143 0.870699 0)
(1.28647 0.881428 0)
(1.37333 0.888588 0)
(3 7.10306e-15 0)
(3 -9.651e-16 0)
(3 -3.78421e-14 0)
(3 -5.78023e-14 0)
(3 -1.19619e-14 0)
(3 7.7369e-14 0)
(3 8.30486e-14 0)
(3 9.44295e-14 0)
(3 8.07911e-14 0)
(3 8.1188e-14 0)
(3 5.95737e-14 0)
(3 6.29173e-14 0)
(3 1.63999e-14 0)
(3 -3.20393e-14 0)
(3 -5.0784e-14 0)
(3 -6.18022e-14 0)
(3 -1.05781e-13 0)
(3 -9.47399e-14 0)
(3 -3.90965e-14 0)
(3 3.51547e-14 0)
(3 4.81392e-14 0)
(3 8.52451e-14 0)
(3 7.50178e-14 0)
(3 3.92878e-15 0)
(3 -3.34862e-14 0)
(3 -1.07788e-14 0)
(3 -5.39041e-12 0)
(3 -2.36598e-07 0)
(3.07012 0.0249037 0)
(1.44092 0.641551 0)
(1.0471 0.682432 0)
(1.01574 0.679535 0)
(1.00063 0.683592 0)
(0.990626 0.690142 0)
(0.984526 0.695273 0)
(0.981943 0.70332 0)
(0.983033 0.713086 0)
(0.988928 0.726677 0)
(0.998697 0.742896 0)
(1.01482 0.761201 0)
(1.03436 0.779886 0)
(1.06029 0.798096 0)
(1.09238 0.815838 0)
(1.13071 0.832327 0)
(1.17934 0.848323 0)
(1.23653 0.860807 0)
(1.30109 0.868477 0)
(1.37821 0.874136 0)
(3 -2.84795e-15 0)
(3 3.3349e-14 0)
(3 4.05108e-14 0)
(3 4.58809e-14 0)
(3 3.84785e-14 0)
(3 7.32712e-14 0)
(3 8.94157e-14 0)
(3 6.51236e-14 0)
(3 7.12546e-14 0)
(3 4.55555e-14 0)
(3 -2.64027e-14 0)
(3 -3.03297e-15 0)
(3 -1.74377e-14 0)
(3 -1.68561e-14 0)
(3 -4.3502e-14 0)
(3 -3.17664e-14 0)
(3 -5.48417e-14 0)
(3 -5.62933e-14 0)
(3 -6.19963e-14 0)
(3 -3.2631e-14 0)
(3 -4.54257e-14 0)
(3 2.11596e-15 0)
(3 5.36918e-14 0)
(3 1.0079e-14 0)
(3 -2.62237e-14 0)
(3 -3.97404e-14 0)
(3 -4.59763e-14 0)
(3 -5.06924e-08 0)
(3.00359 7.99e-05 0)
(1.99668 0.610414 0)
(1.07317 0.728074 0)
(1.0357 0.699453 0)
(1.03116 0.698612 0)
(1.02237 0.704467 0)
(1.01505 0.708989 0)
(1.01215 0.716455 0)
(1.01293 0.724715 0)
(1.01798 0.736346 0)
(1.02716 0.749137 0)
(1.0423 0.765828 0)
(1.06329 0.782264 0)
(1.09021 0.798766 0)
(1.12216 0.814442 0)
(1.15953 0.828407 0)
(1.20562 0.840884 0)
(1.25674 0.850027 0)
(1.31579 0.85551 0)
(1.38354 0.858924 0)
(3 -1.4736e-14 0)
(3 -9.58701e-15 0)
(3 1.93289e-14 0)
(3 1.73795e-14 0)
(3 -2.80567e-15 0)
(3 -5.79961e-14 0)
(3 -9.59552e-14 0)
(3 -1.12943e-13 0)
(3 -7.8176e-14 0)
(3 -3.33334e-14 0)
(3 1.63276e-14 0)
(3 -7.57182e-15 0)
(3 2.43075e-15 0)
(3 6.81736e-14 0)
(3 8.52653e-14 0)
(3 6.35266e-14 0)
(3 2.4052e-14 0)
(3 -3.78161e-14 0)
(3 -7.97817e-14 0)
(3 -6.70733e-14 0)
(3 -5.12583e-14 0)
(3 -4.60775e-14 0)
(3 1.55246e-14 0)
(3 1.0307e-13 0)
(3 9.70648e-14 0)
(3 3.19889e-14 0)