/*--------------------------------*- C++ -*----------------------------------*\
  =========                 |
  \\      /  F ield         | OpenFOAM: The Open Source CFD Toolbox
   \\    /   O peration     | Website:  https://openfoam.org
    \\  /    A nd           | Version:  10
     \\/     M anipulation  |
\*---------------------------------------------------------------------------*/
FoamFile
{
    format      ascii;
    class       volScalarField;
    location    "6";
    object      p;
}
// * * * * * * * * * * * * * * * * * * * * * * * * * * * * * * * * * * * * * //

dimensions      [1 -1 -2 0 0 0 0];

internalField   nonuniform List<scalar> 
16128
(
1
1
1
1
1
1
1
1
1
1
1
1
1
1
1
1
1
1
1
1
1
1
1
1
4.92081
10.2624
10.5305
10.6162
10.7321
10.8379
10.942
11.0415
11.137
11.2284
11.315
11.3958
11.4731
11.5492
11.6219
11.6864
11.7431
11.7969
11.8516
11.9031
11.948
11.9789
11.9966
12.0153
1
1
1
1
1
1
1
1
1
1
1
1
1
1
1
1
1
1
1
1
1
1
1
1
4.84323
10.2255
10.5242
10.6117
10.7275
10.8332
10.937
11.0363
11.1313
11.222
11.3079
11.3886
11.466
11.5413
11.6121
11.6754
11.7327
11.7874
11.8415
11.8902
11.9319
11.9606
11.9778
12.0029
1
1
1
1
1
1
1
1
1
1
1
1
1
1
1
1
1
1
1
1
1
1
1
1
4.67295
10.1822
10.5085
10.5985
10.7149
10.8212
10.9255
11.025
11.1197
11.2098
11.2955
11.3768
11.4544
11.5283
11.5971
11.6602
11.719
11.7742
11.8253
11.8689
11.9058
11.9327
11.95
11.9842
1
1
1
1
1
1
1
1
1
1
1
1
1
1
1
1
1
1
1
1
1
1
1
1
4.42558
10.1124
10.4901
10.5822
10.6987
10.8048
10.9085
11.0074
11.1012
11.1902
11.2752
11.3565
11.4339
11.5065
11.574
11.6371
11.6973
11.7524
11.8007
11.8393
11.8709
11.8962
11.9144
11.9517
1
1
1
1
1
1
1
1
1
1
1
1
1
1
1
1
1
1
1
1
1
1
1
1
4.10665
10.0072
10.4681
10.562
10.6782
10.7838
10.8863
10.9841
11.0766
11.1642
11.2478
11.328
11.4044
11.4757
11.5416
11.6036
11.6636
11.7187
11.7666
11.8039
11.8318
11.8528
11.8592
11.9112
1
1
1
1
1
1
1
1
1
1
1
1
1
1
1
1
1
1
1
1
1
1
1
1
3.71738
9.85421
10.4442
10.5396
10.6562
10.7612
10.8629
10.9596
11.0509
11.1371
11.219
11.2973
11.372
11.4416
11.5056
11.5654
11.6226
11.6746
11.7202
11.7576
11.7868
11.811
11.7899
11.8496
1
1
1
1
1
1
1
1
1
1
1
1
1
1
1
1
1
1
1
1
1
1
1
1
3.27466
9.63024
10.418
10.5129
10.6288
10.732
10.8318
10.9267
11.0162
11.1004
11.18
11.2557
11.3281
11.396
11.4586
11.5161
11.5698
11.6185
11.6635
11.7019
11.7288
11.7493
11.7143
11.7863
1
1
1
1
1
1
1
1
1
1
1
1
1
1
1
1
1
1
1
1
1
1
1
1
2.79322
9.31295
10.3994
10.4872
10.6001
10.6989
10.7942
10.8848
10.9709
11.052
11.1291
11.2019
11.2718
11.3379
11.3993
11.4547
11.5048
11.5499
11.5934
11.6326
11.6578
11.6761
11.6366
11.6921
1
1
1
1
1
1
1
1
1
1
1
1
1
1
1
1
1
1
1
1
1
1
1
1
2.30259
8.88464
10.409
10.4652
10.5738
10.6675
10.7599
10.8469
10.9293
11.0064
11.0795
11.1478
11.2127
11.2744
11.332
11.3835
11.4293
11.47
11.5081
11.5411
11.5586
11.5819
11.578
11.5764
1
1
1
1
1
1
1
1
1
1
1
1
1
1
1
1
1
1
1
1
1
1
1
1
1.8042
8.31158
10.4202
10.4381
10.5435
10.629
10.717
10.8006
10.8804
10.9544
11.024
11.0881
11.1478
11.2033
11.2551
11.3011
11.3418
11.3782
11.4116
11.4399
11.4518
11.4596
11.4325
11.4746
1
1
1
1
1
1
1
1
1
1
1
1
1
1
1
1
1
1
1
1
1
1
1
1
1.34027
7.66243
10.4668
10.3879
10.4858
10.569
10.6597
10.7435
10.8209
10.8924
10.9591
11.0199
11.0748
11.1241
11.1691
11.2082
11.2415
11.2699
11.2932
11.3122
11.3193
11.3218
11.2776
11.329
1
1
1
1
1
1
1
1
1
1
1
1
1
1
1
1
1
1
1
1
1
1
1
1
1.02084
6.87295
10.3186
10.3135
10.4133
10.4975
10.5851
10.6692
10.7494
10.8206
10.8841
10.9413
10.9916
11.0346
11.0719
11.1024
11.1256
11.1445
11.158
11.1694
11.168
11.1531
11.087
11.132
1
1
1
1
1
1
1
1
1
1
1
1
1
1
1
1
1
1
1
1
1
1
1
1
1.00011
5.83801
10.099
10.2301
10.3413
10.4393
10.5263
10.6053
10.6705
10.7355
10.7964
10.8498
10.8956
10.9326
10.9618
10.9828
10.9951
11.0017
10.9986
10.9892
10.9608
10.923
10.8366
10.897
1
1
1
1
1
1
1
1
1
1
1
1
1
1
1
1
1
1
1
1
1
1
1
1
0.999999
4.78274
9.82181
10.1438
10.2579
10.3607
10.4421
10.5142
10.5813
10.6414
10.6934
10.7417
10.7827
10.8137
10.8353
10.8464
10.8442
10.8345
10.8104
10.7801
10.7316
10.6704
10.5432
10.5203
1
1
1
1
1
1
1
1
1
1
1
1
1
1
1
1
1
1
1
1
1
1
1
1
1
3.68808
9.39416
10.0992
10.2272
10.3162
10.3861
10.4433
10.4933
10.5388
10.5846
10.6243
10.6568
10.6808
10.6942
10.6919
10.6746
10.6466
10.597
10.5325
10.4257
10.2735
10.0591
9.99512
1
1
1
1
1
1
1
1
1
1
1
1
1
1
1
1
1
1
1
1
1
1
1
1
1
2.59672
8.72332
10.0973
10.172
10.2473
10.3153
10.3694
10.4126
10.4477
10.4772
10.5038
10.5238
10.5372
10.5369
10.5206
10.4858
10.4331
10.3474
10.2349
10.0664
9.8696
9.55252
9.49975
1
1
1
1
1
1
1
1
1
1
1
1
1
1
1
1
1
1
1
1
1
1
1
1
1
1.57731
7.92357
10.1806
10.1184
10.1881
10.2467
10.2901
10.3247
10.352
10.3719
10.3866
10.392
10.3916
10.3729
10.3399
10.2821
10.2007
10.0765
9.91968
9.66355
9.2963
8.38603
6.34105
1
1
1
1
1
1
1
1
1
1
1
1
1
1
1
1
1
1
1
1
1
1
1
1
1
1.04363
6.74903
10.1107
10.0326
10.085
10.1463
10.1932
10.2272
10.2498
10.2614
10.2645
10.2566
10.2388
10.2024
10.1508
10.0676
9.95579
9.78891
9.56571
9.20973
8.59076
7.61623
5.35873
1
1
1
1
1
1
1
1
1
1
1
1
1
1
1
1
1
1
1
1
1
1
1
1
1
1.00009
5.16998
9.63919
9.86604
9.97563
10.038
10.0867
10.123
10.1417
10.1472
10.1407
10.1196
10.0857
10.0315
9.96009
9.8502
9.70699
9.49891
9.21048
8.78325
8.10472
7.00544
5.06199
1
1
1
1
1
1
1
1
1
1
1
1
1
1
1
1
1
1
1
1
1
1
1
1
1
0.999998
3.62827
9.18183
9.85495
9.92741
9.97567
10.0004
10.0225
10.031
10.0289
10.0137
9.97973
9.93072
9.85828
9.76556
9.63269
9.46039
9.21692
8.88327
8.40236
7.72327
6.58867
5.07248
1
1
1
1
1
1
1
1
1
1
1
1
1
1
1
1
1
1
1
1
1
1
1
1
1
1
2.16529
8.36867
9.86767
9.85615
9.89319
9.91807
9.9342
9.9298
9.91551
9.88757
9.84042
9.77733
9.68737
9.574
9.42204
9.22426
8.95428
8.5913
8.09312
7.41993
6.36349
5.17554
1
1
1
1
1
1
1
1
1
1
1
1
1
1
1
1
1
1
1
1
1
1
1
1
1
1
1.14473
7.10195
9.91922
9.82216
9.80765
9.82471
9.83034
9.81697
9.79348
9.75588
9.69952
9.62513
9.52088
9.38996
9.22091
9.00122
8.71609
8.33841
7.8415
7.18671
6.27064
5.29565
1
1
1
1
1
1
1
1
1
1
1
1
1
1
1
1
1
1
1
1
1
1
1
1
1
1
1.00179
5.38939
9.40227
9.62675
9.68537
9.71155
9.71398
9.69843
9.6678
9.622
9.55651
9.47167
9.35703
9.21294
9.03038
8.79754
8.504
8.12406
7.63848
7.02022
6.2381
5.43099
1
1
1
1
1
1
1
1
1
1
1
1
1
1
1
1
1
1
1
1
1
1
1
1
1
1
0.999977
3.4155
8.84849
9.56853
9.6192
9.63542
9.62414
9.59919
9.55833
9.50236
9.42564
9.32899
9.20482
9.04977
8.85571
8.61468
8.3178
7.94408
7.47947
6.90787
6.22865
5.54253
1
1
1
1
1
1
1
1
1
1
1
1
1
1
1
1
1
1
1
1
1
1
1
1
1
1
0.999994
1.71777
7.98787
9.63302
9.55707
9.54326
9.51927
9.48682
9.43939
9.37717
9.29305
9.18763
9.0551
8.89266
8.69251
8.44901
8.15411
7.79123
7.35268
6.83041
6.23268
5.64101
1
1
1
1
1
1
1
1
1
1
1
1
1
1
1
1
1
1
1
1
1
1
1
1
1
1
0.999999
1.05195
6.35691
9.38123
9.38149
9.40639
9.39072
9.36664
9.32077
9.25638
9.16811
9.05697
8.91802
8.74981
8.54585
8.30238
8.0118
7.65966
7.24782
6.77519
6.2418
5.72358
1
1
1
1
1
1
1
1
1
1
1
1
1
1
1
1
1
1
1
1
1
1
1
1
1
1
1
1.00006
4.08786
8.86214
9.31112
9.34151
9.3143
9.27822
9.22256
9.1491
9.05299
8.93434
8.79014
8.61774
8.41187
8.17333
7.88671
7.54589
7.16247
6.73071
6.25743
5.79196
1
1
1
1
1
1
1
1
1
1
1
1
1
1
1
1
1
1
1
1
1
1
1
1
1
1
1
0.999999
1.99917
8.10712
9.3391
9.26233
9.21466
9.17169
9.11474
9.038
8.9383
8.81668
8.66838
8.49742
8.28969
8.057
7.77267
7.44897
7.0939
6.69143
6.27197
5.84252
1
1
1
1
1
1
1
1
1
1
1
1
1
1
1
1
1
1
1
1
1
1
1
1
1
1
1
1
1.08979
6.35279
9.13105
9.13644
9.10577
9.06814
9.01174
8.93278
8.83036
8.70715
8.55896
8.38501
8.18595
7.95049
7.6764
7.37262
7.04076
6.66617
6.28764
5.88557
1
1
1
1
1
1
1
1
1
1
1
1
1
1
1
1
1
1
1
1
1
1
1
1
1
1
1
1
1.0004
3.79315
8.59146
9.05539
9.02901
9.00054
8.94183
8.85137
8.73853
8.60835
8.45714
8.28209
8.08858
7.85311
7.59208
7.30753
6.99313
6.64754
6.29763
5.92039
1
1
1
1
1
1
1
1
1
1
1
1
1
1
1
1
1
1
1
1
1
1
1
1
1
1
1
1
0.999996
1.57855
7.67077
9.18499
9.00389
8.92249
8.84874
8.75029
8.63667
8.50957
8.36179
8.1872
7.99849
7.77231
7.52369
7.25463
6.95537
6.63664
6.30687
5.95724
1
1
1
1
1
1
1
1
1
1
1
1
1
1
1
1
1
1
1
1
1
1
1
1
1
1
1
1
0.999999
1.02951
5.69441
8.7539
8.7903
8.81208
8.74407
8.64601
8.53784
8.41647
8.27201
8.10385
7.91401
7.69963
7.46311
7.20575
6.92178
6.62417
6.31121
5.98857
1
1
1
1
1
1
1
1
1
1
1
1
1
1
1
1
1
1
1
1
1
1
1
1
1
1
1
1
1
0.999938
2.92735
8.09392
8.78515
8.75971
8.67149
8.57671
8.47193
8.34958
8.20294
8.03459
7.84498
7.6343
7.40785
7.16171
6.89419
6.61263
6.31739
6.0178
1
1
1
1
1
1
1
1
1
1
1
1
1
1
1
1
1
1
1
1
1
1
1
1
1
1
1
1
1
0.999981
1.26449
6.63879
8.82417
8.67814
8.58498
8.4954
8.39438
8.27323
8.12795
7.9633
7.78001
7.57674
7.35829
7.12151
6.8672
6.59836
6.31944
6.03891
1
1
1
1
1
1
1
1
1
1
1
1
1
1
1
1
1
1
1
1
1
1
1
1
1
1
1
1
1
0.999997
1.00554
4.04161
8.23979
8.51159
8.48444
8.42714
8.3354
8.21479
8.06967
7.90698
7.72699
7.52857
7.31495
7.0846
6.84104
6.58554
6.32147
6.05786
1
1
1
1
1
1
1
1
1
1
1
1
1
1
1
1
1
1
1
1
1
1
1
1
1
1
1
1
1
1
0.999982
1.57788
7.12935
8.64243
8.4907
8.39537
8.2871
8.15657
8.0095
7.84903
7.67325
7.48067
7.27372
7.05161
6.81919
6.57589
6.32352
6.07346
1
1
1
1
1
1
1
1
1
1
1
1
1
1
1
1
1
1
1
1
1
1
1
1
1
1
1
1
1
1
0.999995
1.02753
4.80643
8.24203
8.3382
8.29925
8.2091
8.08875
7.94944
7.79502
7.62406
7.43692
7.23622
7.0215
6.79853
6.56553
6.32391
6.08547
1
1
1
1
1
1
1
1
1
1
1
1
1
1
1
1
1
1
1
1
1
1
1
1
1
1
1
1
1
1
0.999999
1.00002
1.88956
7.35819
8.44537
8.30011
8.1802
8.05071
7.90755
7.75091
7.57936
7.39505
7.1994
6.99197
6.77874
6.55735
6.32745
6.09865
1
1
1
1
1
1
1
1
1
1
1
1
1
1
1
1
1
1
1
1
1
1
1
1
1
1
1
1
1
1
1
1
1.06158
5.23409
8.16288
8.18919
8.10755
7.98954
7.85153
7.698
7.52983
7.35123
7.1626
6.9643
6.76071
6.55037
6.33175
6.10991
1
1
1
1
1
1
1
1
1
1
1
1
1
1
1
1
1
1
1
1
1
1
1
1
1
1
1
1
1
1
1
1
1.00024
2.12928
7.34534
8.2291
8.08455
7.95423
7.81245
7.65852
7.49231
7.31801
7.13596
6.94567
6.74911
6.5466
6.33756
6.12353
1
1
1
1
1
1
1
1
1
1
1
1
1
1
1
1
1
1
1
1
1
1
1
1
1
1
1
1
1
1
1
1
1
1.09433
5.33084
8.04696
8.01184
7.89448
7.75995
7.61029
7.44961
7.28139
7.10569
6.92264
6.73429
6.54017
6.33977
6.1372
1
1
1
1
1
1
1
1
1
1
1
1
1
1
1
1
1
1
1
1
1
1
1
1
1
1
1
1
1
1
1
1
1
1.00067
2.21034
7.18397
8.01897
7.86018
7.72556
7.57594
7.4183
7.25482
7.08524
6.90883
6.72782
6.5414
6.34737
6.15263
1
1
1
1
1
1
1
1
1
1
1
1
1
1
1
1
1
1
1
1
1
1
1
1
1
1
1
1
1
1
1
1
1
1
1.10576
5.14156
7.8521
7.80723
7.67675
7.53348
7.38151
7.2249
7.06321
6.89409
6.71873
6.53971
6.3537
6.16273
1
1
1
1
1
1
1
1
1
1
1
1
1
1
1
1
1
1
1
1
1
1
1
1
1
1
1
1
1
1
1
1
1
1
1.00095
2.12314
6.86496
7.79884
7.63845
7.50394
7.35746
7.2068
7.05074
6.88708
6.71602
6.54197
6.36373
6.17882
1
1
1
1
1
1
1
1
1
1
1
1
1
1
1
1
1
1
1
1
1
1
1
1
1
1
1
1
1
1
1
1
1
1
1
1.09063
4.6193
7.58799
7.5988
7.46815
7.33056
7.1867
7.03601
6.87767
6.71273
6.54268
6.37152
6.1965
1
1
1
1
1
1
1
1
1
1
1
1
1
1
1
1
1
1
1
1
1
1
1
1
1
1
1
1
1
1
1
1
1
1
1
1.00087
1.86285
6.36684
7.5927
7.44692
7.32459
7.17994
7.02865
6.8718
6.71308
6.54878
6.38574
6.21702
1
1
1
1
1
1
1
1
1
1
1
1
1
1
1
1
1
1
1
1
1
1
1
1
1
1
1
1
1
1
1
1
1
1
1
1
1.055
3.72971
7.22774
7.43359
7.30232
7.15962
7.0138
6.86382
6.71323
6.55954
6.40099
6.22932
1
1
1
1
1
1
1
1
1
1
1
1
1
1
1
1
1
1
1
1
1
1
1
1
1
1
1
1
1
1
1
1
1
1
1
1
1.0005
1.50151
5.68637
7.47586
7.29096
7.15064
7.01197
6.86943
6.72724
6.57556
6.41371
6.22848
1
1
1
1
1
1
1
1
1
1
1
1
1
1
1
1
1
1
1
1
1
1
1
1
1
1
1
1
1
1
1
1
1
1
1
1
1
1.02016
2.77234
6.7044
7.25257
7.13503
7.0092
6.87503
6.72889
6.57554
6.39298
6.24829
1
1
1
1
1
1
1
1
1
1
1
1
1
1
1
1
1
1
1
1
1
1
1
1
1
1
1
1
1
1
1
1
1
1
1
1
1
1.00015
1.21658
4.64411
7.21713
7.16738
7.03712
6.89255
6.73993
6.5676
6.42332
6.47573
1
1
1
1
1
1
1
1
1
1
1
1
1
1
1
1
1
1
1
1
1
1
1
1
1
1
1
1
1
1
1
1
1
1
1
1
1
1
1.00461
1.95213
6.01599
7.15179
7.00975
6.86078
6.71081
6.5698
6.71252
7.41641
1
1
1
1
1
1
1
1
1
1
1
1
1
1
1
1
1
1
1
1
1
1
1
1
1
1
1
1
1
1
1
1
1
1
1
1
1
1
1.00002
1.06683
3.33436
6.70291
6.9805
6.85393
6.7479
7.00135
7.95365
8.8823
1
1
1
1
1
1
1
1
1
1
1
1
1
1
1
1
1
1
1
1
1
1
1
1
1
1
1
1
1
1
1
1
1
1
1
1
1
1
1
1.00084
1.37174
4.93847
6.82497
6.93502
7.34257
8.53257
9.43337
9.63122
1
1
1
1
1
1
1
1
1
1
1
1
1
1
1
1
1
1
1
1
1
1
1
1
1
1
1
1
1
1
1
1
1
1
1
1
1
1
1
1
1.01245
2.19019
5.48941
7.69553
9.07931
9.99512
10.0846
9.83016
1
1
1
1
1
1
1
1
1
1
1
1
1
1
1
1
1
1
1
1
1
1
1
1
1
1
1
1
1
1
1
1
1
1
1
1
1
1
1
1
1.0001
1.10576
3.41511
9.22473
10.5313
10.5048
10.16
9.83076
1
1
1
1
1
1
1
1
1
1
1
1
1
1
1
1
1
1
1
1
1
1
1
1
1
1
1
1
1
1
1
1
1
1
1
1
1
1
1
1
1
1.00195
2.20255
10.0652
11.2539
10.6563
10.1585
9.84367
1
1
1
1
1
1
1
1
1
1
1
1
1
1
1
1
1
1
1
1
1
1
1
1
1
1
1
1
1
1
1
1
1
1
1
1
1
1
1
1
1
1.00001
2.27104
9.53986
10.6667
10.2107
10.0057
9.83206
1
1
1
1
1
1
1
1
1
1
1
1
1
1
1
1
1
1
1
1
1
1
1
1
1
1
1
1
1
1
1
1
1
1
1
1
1
1
1
1
1
1
2.05725
8.79364
10.4918
10.2688
10.1786
10.0401
1
1
1
1
1
1
1
1
1
1
1
1
1
1
1
1
1
1
1
1
1
1
1
1
1
1
1
1
1
1
1
1
1
1
1
1
1
1
1
1
1
1
1.64066
8.11087
10.3533
10.2209
10.1622
10.0427
1
1
1
1
1
1
1
1
1
1
1
1
1
1
1
1
1
1
1
1
1
1
1
1
1
1
1
1
1
1
1
1
1
1
1
1
1
1
1
1
1
1
1.25284
7.43678
10.3621
10.2305
10.1719
10.0581
1
1
1
1
1
1
1
1
1
1
1
1
1
1
1
1
1
1
1
1
1
1
1
1
1
1
1
1
1
1
1
1
1
1
1
1
1
1
1
1
1
1
1.0127
6.67252
10.2571
10.2184
10.1505
10.0646
1
1
1
1
1
1
1
1
1
1
1
1
1
1
1
1
1
1
1
1
1
1
1
1
1
1
1
1
1
1
1
1
1
1
1
1
1
1
1
1
1
1
1.00006
5.82865
10.1163
10.213
10.1326
10.0655
1
1
1
1
1
1
1
1
1
1
1
1
1
1
1
1
1
1
1
1
1
1
1
1
1
1
1
1
1
1
1
1
1
1
1
1
1
1
1
1
1
1
1
5.02422
9.94807
10.2128
10.1244
10.0635
1
1
1
1
1
1
1
1
1
1
1
1
1
1
1
1
1
1
1
1
1
1
1
1
1
1
1
1
1
1
1
1
1
1
1
1
1
1
1
1
1
1
1
4.24912
9.77711
10.2454
10.1421
10.0796
1
1
1
1
1
1
1
1
1
1
1
1
1
1
1
1
1
1
1
1
1
1
1
1
1
1
1
1
1
1
1
1
1
1
1
1
1
1
1
1
1
1
1
3.53645
9.54856
10.2958
10.1676
10.1011
1
1
1
1
1
1
1
1
1
1
1
1
1
1
1
1
1
1
1
1
1
1
1
1
1
1
1
1
1
1
1
1
1
1
1
1
1
1
1
1
1
1
1
2.91393
9.26056
10.3555
10.1967
10.1235
1
1
1
1
1
1
1
1
1
1
1
1
1
1
1
1
1
1
1
1
1
1
1
1
1
1
1
1
1
1
1
1
1
1
1
1
1
1
1
1
1
1
1
2.37189
8.9535
10.4085
10.2273
10.1478
1
1
1
1
1
1
1
1
1
1
1
1
1
1
1
1
1
1
1
1
1
1
1
1
1
1
1
1
1
1
1
1
1
1
1
1
1
1
1
1
1
1
1
1.93483
8.61531
10.435
10.2504
10.1661
1
1
1
1
1
1
1
1
1
1
1
1
1
1
1
1
1
1
1
1
1
1
1
1
1
1
1
1
1
1
1
1
1
1
1
1
1
1
1
1
1
1
1
1.63956
8.23373
10.4489
10.2693
10.1826
1
1
1
1
1
1
1
1
1
1
1
1
1
1
1
1
1
1
1
1
1
1
1
1
1
1
1
1
1
1
1
1
1
1
1
1
1
1
1
1
1
1
1
1.43344
7.83159
10.4376
10.2803
10.1954
1
1
1
1
1
1
1
1
1
1
1
1
1
1
1
1
1
1
1
1
1
1
1
1
1
1
1
1
1
1
1
1
1
1
1
1
1
1
1
1
1
1
1
1.28686
7.4644
10.4064
10.2861
10.204
1
1
1
1
1
1
1
1
1
1
1
1
1
1
1
1
1
1
1
1
1
1
1
1
1
1
1
1
1
1
1
1
1
1
1
1
1
1
1
1
1
1
1
1.1402
7.08019
10.3925
10.307
10.2231
1
1
1
1
1
1
1
1
1
1
1
1
1
1
1
1
1
1
1
1
1
1
1
1
1
1
1
1
1
1
1
1
1
1
1
1
1
1
1
1
1
1
1
1.01763
6.79422
10.3758
10.3296
10.2328
1
1
1
1
1
1
1
1
1
1
1
1
1
1
1
1
1
1
1
1
1
1
1
1
1
1
1
1
1
1
1
1
1
1
1
1
1
1
1
1
1
1
1
1.00016
6.43875
10.3508
10.3497
10.2367
1
1
1
1
1
1
1
1
1
1
1
1
1
1
1
1
1
1
1
1
1
1
1
1
1
1
1
1
1
1
1
1
1
1
1
1
1
1
1
1
1
1
1
1
6.11669
10.3323
10.3691
10.2448
1
1
1
1
1
1
1
1
1
1
1
1
1
1
1
1
1
1
1
1
1
1
1
1
1
1
1
1
1
1
1
1
1
1
1
1
1
1
1
1
1
1
1
1
5.84721
10.3153
10.383
10.2522
1
1
1
1
1
1
1
1
1
1
1
1
1
1
1
1
1
1
1
1
1
1
1
1
1
1
1
1
1
1
1
1
1
1
1
1
1
1
1
1
1
1
1
1
5.63363
10.2991
10.3937
10.2588
1
1
1
1
1
1
1
1
1
1
1
1
1
1
1
1
1
1
1
1
1
1
1
1
1
1
1
1
1
1
1
1
1
1
1
1
1
1
1
1
1
1
1
1
5.47289
10.2857
10.4018
10.2645
1
1
1
1
1
1
1
1
1
1
1
1
1
1
1
1
1
1
1
1
1
1
1
1
1
1
1
1
1
1
1
1
1
1
1
1
1
1
1
1
1
1
1
1
5.36695
10.2734
10.4052
10.2675
1
1
1
1
1
1
1
1
1
1
1
1
1
1
1
1
1
1
1
1
1
1
1
1
1
1
1
1
1
1
1
1
1
1
1
1
1
1
1
1
1
1
1
1
5.32068
10.2586
10.4039
10.2698
1.15422
0.149008
0.0670697
0.0574102
0.0419814
0.0482677
0.0767452
0.124432
0.188151
0.279898
0.355147
0.415497
0.484185
0.58082
0.676302
0.71263
0.742795
0.795413
0.865621
0.973427
1.06172
1.0823
1.08343
1.05709
1.01624
1.00299
1.00235
1.06802
1.17205
1.21415
1.2438
1.23839
1.16837
1.14117
1.14861
1.19983
1.27944
1.31458
1.31647
1.52179
3.76565
4.9162
5.22034
5.39899
5.47138
5.49048
5.48357
5.52111
5.56573
5.5931
5.58696
5.57426
5.57639
5.60175
5.63162
5.63656
5.60808
5.57433
5.55251
5.5487
5.55097
5.54568
5.52681
5.50129
5.48061
5.47683
5.49232
5.51496
5.52793
5.5198
5.48729
5.4434
5.40409
5.37691
5.36144
5.35368
5.34838
5.33891
5.31785
5.28352
5.2424
5.20215
5.16777
5.14071
5.1191
5.09851
5.07386
5.04311
5.00863
4.97416
4.94142
4.91006
4.87924
4.84887
4.81974
4.79255
4.76692
4.74109
4.7142
4.68693
4.65999
4.63376
4.6074
4.578
4.54307
4.50365
4.46308
4.42546
4.39444
4.37157
4.35249
4.32822
4.29673
4.26159
4.22422
4.18536
4.14769
4.11508
4.09057
4.07342
4.05695
4.03382
4.00555
3.976
3.94509
3.91243
3.87879
3.84487
3.81092
3.77725
3.74519
3.71578
3.68805
3.6599
3.63051
3.60057
3.57066
3.54134
3.51277
3.48568
3.46169
3.44028
3.41658
3.38922
3.36047
3.32866
3.29289
3.25523
3.21835
3.18434
3.15398
3.12661
3.09957
3.07068
3.04063
3.0122
2.98827
2.96812
2.94751
2.92286
2.89032
2.85162
2.81674
2.78793
2.76382
2.7447
2.73423
2.72507
2.70876
2.68629
2.65687
2.62209
2.58654
2.5567
2.53406
2.52198
2.51733
2.50435
2.48509
2.46139
2.43435
2.40946
2.38864
2.37499
2.36756
2.35609
2.33915
2.31901
2.29412
2.26585
2.24331
2.21902
2.06917
0.828232
0.462417
0.319862
0.232592
0.196154
0.159412
0.135903
0.148084
0.177996
0.217423
0.260703
0.297276
0.34854
0.440963
0.5403
0.572738
0.603478
0.67296
0.763339
0.852375
0.927532
0.958542
0.979631
0.996327
1.01875
1.06338
1.11283
1.13641
1.13958
1.13133
1.12803
1.14345
1.18229
1.22423
1.24874
1.25447
1.25334
1.23357
1.26606
2.96412
4.98356
5.31881
5.43729
5.51758
5.53597
5.50052
5.50973
5.54755
5.6013
5.61903
5.60739
5.59159
5.5885
5.6014
5.61478
5.61164
5.5897
5.56392
5.54384
5.53325
5.52827
5.52447
5.51883
5.50982
5.49873
5.48982
5.48657
5.48804
5.48876
5.48235
5.46163
5.43014
5.39847
5.37352
5.35686
5.34545
5.33209
5.30964
5.2767
5.23761
5.19869
5.16511
5.13791
5.11371
5.08912
5.06369
5.03767
5.01017
4.98098
4.95021
4.91739
4.88301
4.84824
4.81435
4.78356
4.75702
4.73378
4.71164
4.68942
4.66621
4.63953
4.60867
4.57409
4.53726
4.49959
4.46242
4.42791
4.39873
4.37626
4.35595
4.32886
4.29433
4.25615
4.21703
4.18035
4.14657
4.11632
4.09294
4.07612
4.05902
4.03474
4.00365
3.96996
3.93429
3.90096
3.87018
3.84082
3.8117
3.78278
3.75276
3.72106
3.6882
3.65474
3.62143
3.59016
3.56193
3.53565
3.51074
3.48774
3.46469
3.43984
3.41313
3.38299
3.34948
3.31526
3.28242
3.25146
3.22198
3.19259
3.16223
3.13028
3.09643
3.06145
3.0299
3.00615
2.98553
2.96504
2.94305
2.9165
2.87902
2.83885
2.81142
2.79084
2.77209
2.75416
2.73555
2.71496
2.68774
2.6551
2.62545
2.60223
2.58379
2.57094
2.55681
2.53728
2.51487
2.4916
2.46838
2.44853
2.43138
2.41651
2.40077
2.3818
2.36014
2.3375
2.31579
2.2966
2.28047
2.2668
2.25761
2.23278
2.90427
1.82278
1.13543
0.729762
0.520454
0.445136
0.406552
0.347879
0.279893
0.270978
0.293023
0.312975
0.313021
0.308726
0.322737
0.370259
0.405086
0.444112
0.499507
0.583271
0.664473
0.764898
0.848794
0.904409
0.955328
1.00547
1.06324
1.10946
1.11935
1.11631
1.12241
1.15163
1.19844
1.2247
1.22781
1.22112
1.20492
1.19993
1.21329
1.24565
1.95635
4.9019
5.79225
5.67046
5.62936
5.60081
5.5592
5.50973
5.52604
5.58151
5.63454
5.64152
5.62525
5.60566
5.59044
5.58348
5.58778
5.59036
5.57784
5.55401
5.52958
5.51049
5.5053
5.51385
5.52709
5.52879
5.511
5.48473
5.46146
5.4503
5.45259
5.45562
5.445
5.4216
5.39556
5.37117
5.34742
5.32173
5.29293
5.26195
5.2303
5.19903
5.16982
5.14303
5.11533
5.08544
5.05687
5.03334
5.01393
4.99147
4.9608
4.92237
4.87979
4.83816
4.79991
4.76614
4.73984
4.72357
4.71392
4.70098
4.68036
4.65001
4.61097
4.56945
4.52898
4.49159
4.45714
4.42676
4.40243
4.38339
4.35851
4.32332
4.28638
4.24736
4.20901
4.17564
4.14583
4.11944
4.10021
4.0841
4.05978
4.03133
3.99941
3.96133
3.92197
3.88978
3.86393
3.83968
3.81539
3.79026
3.76215
3.72863
3.68941
3.64836
3.61074
3.57928
3.55349
3.53132
3.51054
3.48906
3.46557
3.43943
3.40895
3.37312
3.33588
3.30287
3.27531
3.25105
3.22661
3.1993
3.16746
3.13059
3.09257
3.05662
3.02619
3.0035
2.98369
2.96436
2.94301
2.91446
2.874
2.83987
2.81903
2.80056
2.78114
2.75937
2.73315
2.70228
2.66993
2.64386
2.62519
2.61044
2.60177
2.59171
2.57478
2.5502
2.51421
2.4838
2.46514
2.44993
2.43707
2.42373
2.40699
2.3804
2.34659
2.32273
2.30773
2.29571
2.28729
2.28062
2.27117
2.24236
3.47647
2.49377
1.85182
1.38037
0.936859
0.697455
0.67635
0.632042
0.531577
0.463618
0.450316
0.434533
0.39814
0.381014
0.387794
0.41425
0.428662
0.428327
0.432455
0.442415
0.460633
0.509644
0.618339
0.732099
0.834955
0.927016
0.990056
1.03263
1.0509
1.05949
1.08776
1.14911
1.19124
1.19806
1.1941
1.18083
1.18001
1.19316
1.23515
1.27037
1.46006
4.33348
6.18505
5.90694
5.77957
5.74475
5.68684
5.58765
5.5439
5.57793
5.63586
5.65952
5.65601
5.64141
5.6203
5.59949
5.58704
5.58659
5.58753
5.57592
5.55313
5.52895
5.51144
5.50757
5.51695
5.52792
5.52197
5.49393
5.46203
5.44128
5.43854
5.44791
5.45174
5.43387
5.40123
5.36379
5.32701
5.29488
5.27094
5.255
5.2398
5.21713
5.1843
5.14613
5.1072
5.06961
5.03686
5.0154
5.00523
4.9885
4.95701
4.92046
4.87911
4.83659
4.80104
4.76886
4.744
4.73113
4.72584
4.70921
4.67848
4.64324
4.60515
4.56292
4.5207
4.48568
4.45496
4.42811
4.40634
4.38389
4.35193
4.3178
4.2825
4.24455
4.20744
4.17595
4.14838
4.12422
4.10401
4.07995
4.05331
4.02467
3.99048
3.95066
3.91427
3.88736
3.8642
3.84163
3.81924
3.7959
3.76821
3.73068
3.68371
3.63788
3.60169
3.57486
3.55338
3.53382
3.51389
3.49201
3.46683
3.4356
3.39816
3.36065
3.3292
3.30407
3.28187
3.25932
3.23365
3.20154
3.16196
3.12189
3.08872
3.06102
3.03634
3.01273
2.98937
2.96562
2.93808
2.90204
2.86535
2.8436
2.82649
2.80831
2.7877
2.76116
2.724
2.68564
2.66073
2.64443
2.63094
2.62069
2.61054
2.59531
2.57695
2.55052
2.51601
2.48641
2.46647
2.45123
2.43694
2.42183
2.40237
2.37124
2.33628
2.31732
2.30597
2.2966
2.28974
2.28015
2.26864
2.24273
3.95608
3.00442
2.38193
1.93932
1.48602
1.12692
0.969545
0.884083
0.807995
0.735461
0.679315
0.633738
0.564167
0.506938
0.501959
0.509965
0.5089
0.490246
0.485096
0.489256
0.491543
0.487465
0.495801
0.522028
0.574678
0.659671
0.741913
0.817164
0.890529
0.955557
1.01806
1.10095
1.1553
1.16808
1.1638
1.15795
1.16888
1.19826
1.25419
1.31543
1.41189
3.38018
6.27996
6.28134
5.95824
5.90174
5.8229
5.69327
5.61637
5.61803
5.64391
5.65734
5.65348
5.63967
5.62496
5.60667
5.58885
5.58274
5.58903
5.58895
5.57123
5.54683
5.52321
5.50337
5.49709
5.50633
5.51304
5.49915
5.47816
5.46098
5.45146
5.44614
5.43665
5.41156
5.37794
5.3437
5.31221
5.28579
5.27039
5.26627
5.25428
5.22614
5.19022
5.14328
5.09704
5.06242
5.03487
5.02402
5.02253
5.00371
4.97224
4.93187
4.88127
4.83122
4.79129
4.75993
4.73477
4.72129
4.71174
4.69027
4.66194
4.63289
4.59926
4.55958
4.51893
4.48449
4.45594
4.4312
4.40795
4.37881
4.34694
4.31296
4.27569
4.23659
4.2001
4.1702
4.14546
4.12383
4.09972
4.07323
4.04514
4.01405
3.97881
3.9422
3.91113
3.88572
3.86215
3.8391
3.81594
3.79152
3.76091
3.71863
3.67104
3.63062
3.60027
3.57553
3.55319
3.53163
3.50971
3.48615
3.45795
3.42254
3.38485
3.35371
3.32866
3.30485
3.28031
3.25425
3.22427
3.18642
3.14387
3.11051
3.08739
3.06624
3.04388
3.01919
2.99161
2.96072
2.924
2.88406
2.85972
2.84407
2.82812
2.81081
2.79038
2.76094
2.719
2.68229
2.66309
2.64912
2.63602
2.62304
2.60786
2.59104
2.57073
2.54537
2.51942
2.49615
2.47308
2.45006
2.43064
2.41347
2.39398
2.36734
2.33883
2.31922
2.3062
2.29512
2.28508
2.27461
2.26406
2.24363
4.32184
3.46471
2.83883
2.3809
1.9358
1.6056
1.39854
1.18368
1.05679
0.988933
0.901167
0.835761
0.779366
0.695895
0.620963
0.606867
0.614599
0.605538
0.570254
0.566586
0.564371
0.542224
0.53287
0.539319
0.540027
0.544746
0.559693
0.587727
0.646059
0.729648
0.826462
0.929286
1.00687
1.06525
1.09368
1.12078
1.14612
1.20624
1.29968
1.46608
1.63565
2.39089
5.75521
6.57757
6.17304
5.99925
5.89062
5.79086
5.72728
5.70106
5.6784
5.66418
5.65911
5.65318
5.65177
5.64533
5.62482
5.60737
5.60185
5.59456
5.57614
5.55622
5.53689
5.5214
5.51635
5.5274
5.53701
5.52596
5.50417
5.46881
5.43778
5.41467
5.3981
5.38216
5.35705
5.32937
5.30387
5.28387
5.27517
5.27034
5.24916
5.22008
5.18357
5.13514
5.09337
5.06568
5.0488
5.042
5.02467
4.99306
4.94977
4.8934
4.84042
4.80207
4.77453
4.75418
4.74139
4.73173
4.71529
4.69173
4.66506
4.63475
4.59879
4.56065
4.524
4.4905
4.46068
4.43216
4.40196
4.36951
4.33479
4.2989
4.26366
4.23178
4.2041
4.17953
4.15532
4.1286
4.0984
4.06498
4.03135
3.99943
3.9693
3.94232
3.91802
3.89411
3.86916
3.84217
3.81112
3.77536
3.73608
3.69664
3.66246
3.63547
3.61163
3.58768
3.56261
3.53585
3.50693
3.47605
3.44344
3.41103
3.3834
3.36044
3.33786
3.31342
3.28558
3.25237
3.21247
3.16995
3.13645
3.11511
3.0959
3.07566
3.05385
3.02893
2.99812
2.95823
2.91268
2.8794
2.86269
2.84728
2.83074
2.81244
2.78969
2.75823
2.72094
2.69385
2.6765
2.66062
2.64438
2.62683
2.60676
2.58359
2.55949
2.53744
2.51874
2.50098
2.48141
2.45776
2.43038
2.40531
2.38418
2.36281
2.34377
2.32766
2.31157
2.29581
2.28346
2.27323
2.26523
2.24776
4.61727
3.85135
3.27069
2.80358
2.35152
2.01458
1.77534
1.53264
1.35948
1.26909
1.14292
0.999013
0.943923
0.891386
0.808638
0.749628
0.746018
0.746477
0.716861
0.677109
0.657728
0.625878
0.590697
0.584476
0.578217
0.575556
0.581328
0.58912
0.588068
0.59649
0.623047
0.666442
0.724969
0.800674
0.890766
0.985425
1.08448
1.20863
1.40991
1.73619
1.96929
2.15758
3.90326
6.18791
6.36576
6.24906
6.03884
5.83578
5.74455
5.69847
5.66719
5.66758
5.68162
5.69255
5.6888
5.66782
5.63251
5.61455
5.61062
5.60611
5.59442
5.57801
5.55241
5.53246
5.52452
5.52567
5.52365
5.50852
5.48158
5.44734
5.42287
5.41029
5.40458
5.3888
5.36518
5.3406
5.31836
5.30129
5.28972
5.26997
5.2411
5.20812
5.1692
5.12714
5.0957
5.07183
5.04914
5.01998
4.98588
4.94331
4.8974
4.85614
4.82658
4.80563
4.79444
4.78785
4.77388
4.74918
4.7177
4.68239
4.64736
4.61239
4.57916
4.54878
4.51895
4.488
4.45541
4.4206
4.38491
4.35032
4.31707
4.28667
4.26
4.23667
4.21387
4.18786
4.15692
4.12096
4.08328
4.04728
4.01496
3.98715
3.96385
3.94342
3.9227
3.89878
3.87043
3.83631
3.79549
3.74999
3.70803
3.67745
3.65533
3.63606
3.61654
3.59433
3.56772
3.5363
3.5
3.4618
3.42749
3.40134
3.37977
3.3586
3.33705
3.31385
3.28616
3.248
3.19836
3.15272
3.1249
3.10547
3.08706
3.06836
3.04962
3.02873
3.00088
2.95918
2.90797
2.8739
2.8557
2.83965
2.82301
2.80536
2.78405
2.75504
2.72509
2.70302
2.68452
2.66666
2.64872
2.62983
2.60719
2.57606
2.54483
2.52446
2.50941
2.49563
2.48238
2.46674
2.44038
2.40085
2.36847
2.35279
2.34204
2.33131
2.31937
2.30335
2.2836
2.26694
2.25824
2.24009
4.84242
4.15671
3.63241
3.17243
2.71537
2.40222
2.14766
1.8488
1.62143
1.52148
1.40837
1.24431
1.10311
1.04679
0.986981
0.907271
0.871217
0.86915
0.85697
0.815895
0.768361
0.727909
0.690236
0.668757
0.652261
0.637975
0.638257
0.634931
0.621294
0.611985
0.617401
0.617575
0.618926
0.628923
0.667664
0.751277
0.909518
1.15266
1.50462
1.80265
2.05222
2.13719
2.46228
4.54435
6.26401
6.48754
6.28786
5.92914
5.78355
5.72553
5.70124
5.70703
5.71759
5.70018
5.66647
5.63788
5.62284
5.6189
5.62384
5.61908
5.60457
5.58021
5.55273
5.53759
5.5265
5.51797
5.50718
5.49053
5.46779
5.44726
5.43532
5.42429
5.40413
5.37845
5.35321
5.3312
5.31112
5.29428
5.27657
5.25061
5.2216
5.18824
5.15231
5.12529
5.10574
5.08294
5.05171
5.01388
4.97089
4.92562
4.88902
4.86475
4.84972
4.84266
4.82968
4.80403
4.77201
4.73533
4.6962
4.65593
4.62074
4.59203
4.56611
4.54268
4.51811
4.48852
4.45362
4.41256
4.37283
4.34023
4.31322
4.29015
4.27076
4.24837
4.22081
4.18685
4.14553
4.10412
4.06795
4.03707
4.01137
3.9901
3.9718
3.95175
3.92841
3.89914
3.86074
3.8172
3.77523
3.73494
3.70322
3.68041
3.66234
3.64556
3.62644
3.60045
3.56572
3.52587
3.48803
3.45403
3.42566
3.4023
3.38121
3.36052
3.33904
3.31572
3.28226
3.23857
3.19368
3.15677
3.12724
3.10436
3.08744
3.07279
3.05354
3.02955
2.99831
2.95969
2.92016
2.88457
2.85705
2.83985
2.82722
2.81126
2.78742
2.75779
2.73266
2.71222
2.69248
2.6724
2.65167
2.62984
2.602
2.56804
2.53872
2.52095
2.50919
2.49984
2.48951
2.47224
2.44159
2.39836
2.36719
2.35332
2.34318
2.33384
2.32392
2.31008
2.28996
2.26919
2.25553
2.23528
5.02776
4.41319
3.92744
3.48522
3.04694
2.71288
2.44802
2.1688
1.92712
1.74442
1.59873
1.46526
1.32459
1.22239
1.16714
1.10982
1.0261
0.968712
0.961825
0.940949
0.891724
0.824739
0.793052
0.779204
0.761363
0.733328
0.722459
0.715298
0.694908
0.652992
0.639926
0.636754
0.631431
0.63413
0.643667
0.682984
0.790378
1.0435
1.34887
1.51583
1.69583
1.83843
1.93258
2.56747
5.06284
6.56189
6.41728
5.9736
5.8149
5.79894
5.79124
5.78244
5.75474
5.68727
5.63478
5.61992
5.62007
5.63492
5.63716
5.62365
5.60238
5.57477
5.55522
5.54078
5.52491
5.5068
5.48587
5.47162
5.46348
5.45877
5.44859
5.42866
5.4001
5.36783
5.34284
5.3216
5.30287
5.28704
5.26458
5.23503
5.20165
5.1672
5.14016
5.11869
5.10356
5.08109
5.05115
5.01445
4.96858
4.92938
4.90327
4.88222
4.86705
4.84979
4.82392
4.7944
4.76004
4.71623
4.66969
4.63303
4.60471
4.57917
4.55957
4.54429
4.52101
4.48947
4.44556
4.40129
4.36783
4.34091
4.31877
4.30119
4.27859
4.25025
4.21466
4.17101
4.12598
4.08883
4.0602
4.03703
4.01861
4.00276
3.98153
3.95469
3.91866
3.87823
3.83738
3.79875
3.76238
3.73576
3.71478
3.69514
3.67278
3.64679
3.61275
3.57901
3.54514
3.51098
3.48047
3.45475
3.43106
3.40704
3.38292
3.36013
3.33463
3.30035
3.26238
3.22466
3.19561
3.1708
3.14411
3.11356
3.08032
3.05064
3.0278
3.00342
2.977
2.95221
2.93012
2.906
2.87584
2.84384
2.81586
2.78989
2.766
2.74758
2.73143
2.71564
2.69763
2.67606
2.65259
2.62169
2.58823
2.56146
2.54243
2.52557
2.50784
2.48938
2.47147
2.45297
2.42836
2.40162
2.37949
2.35974
2.34214
2.32878
2.31779
2.30569
2.2901
2.27351
2.25715
2.2343
5.16391
4.62155
4.16973
3.7277
3.3322
3.01224
2.70329
2.40914
2.19997
1.99862
1.80101
1.66365
1.5508
1.41131
1.32205
1.28463
1.22964
1.13853
1.05719
1.03012
0.996908
0.931417
0.87753
0.871359
0.861695
0.832534
0.811103
0.802913
0.783544
0.740389
0.698322
0.682483
0.675166
0.683302
0.730818
0.859698
1.06508
1.29045
1.34011
1.33588
1.36926
1.45084
1.54659
1.64359
2.58877
5.45452
6.27665
6.06829
5.91939
5.85437
5.83041
5.80889
5.77018
5.67923
5.6264
5.61051
5.62253
5.65209
5.65045
5.62746
5.59248
5.56647
5.55412
5.54713
5.5297
5.50659
5.47965
5.46336
5.45364
5.45342
5.4464
5.42613
5.39471
5.35763
5.33083
5.30976
5.29426
5.27829
5.25152
5.21923
5.18213
5.14917
5.12363
5.10526
5.09434
5.07526
5.04655
5.01251
4.96916
4.9322
4.90547
4.88288
4.86409
4.84186
4.81337
4.78093
4.74009
4.69279
4.6543
4.62438
4.59889
4.58006
4.56575
4.54247
4.51307
4.47595
4.43182
4.39496
4.36745
4.34485
4.32517