/*--------------------------------*- C++ -*----------------------------------*\
  =========                 |
  \\      /  F ield         | OpenFOAM: The Open Source CFD Toolbox
   \\    /   O peration     | Website:  https://openfoam.org
    \\  /    A nd           | Version:  10
     \\/     M anipulation  |
\*---------------------------------------------------------------------------*/
FoamFile
{
    format      ascii;
    class       volScalarField;
    location    "6";
    object      T;
}
// * * * * * * * * * * * * * * * * * * * * * * * * * * * * * * * * * * * * * //

dimensions      [0 0 0 1 0 0 0];

internalField   nonuniform List<scalar> 
16128
(
1
1
1
1
1
1
1
1
1
1
1
1
1
1
1
1
1
1
1
1
1
1
1
1
2.06437
2.68151
2.70474
2.71166
2.72034
2.7279
2.73508
2.7418
2.74828
2.75467
2.76092
2.76685
2.77244
2.77773
2.78261
2.78688
2.79068
2.79434
2.79807
2.80158
2.80466
2.80687
2.80821
2.80952
1
1
1
1
1
1
1
1
1
1
1
1
1
1
1
1
1
1
1
1
1
1
1
1
2.05385
2.67918
2.70443
2.71141
2.72005
2.72758
2.73473
2.74143
2.74788
2.75422
2.76043
2.76635
2.77194
2.77718
2.78193
2.78612
2.78996
2.79369
2.79738
2.80069
2.80355
2.80563
2.80696
2.80871
1
1
1
1
1
1
1
1
1
1
1
1
1
1
1
1
1
1
1
1
1
1
1
1
2.02753
2.67562
2.70331
2.71044
2.71909
2.72666
2.73385
2.74059
2.74705
2.75336
2.75956
2.76551
2.77111
2.77625
2.78088
2.78507
2.78903
2.79279
2.79628
2.79922
2.80176
2.80373
2.80513
2.80753
1
1
1
1
1
1
1
1
1
1
1
1
1
1
1
1
1
1
1
1
1
1
1
1
1.98764
2.66922
2.70141
2.70873
2.71742
2.72506
2.73231
2.73912
2.74561
2.7519
2.75807
2.76402
2.7696
2.77467
2.77923
2.78346
2.78753
2.7913
2.7946
2.79722
2.79942
2.80131
2.8028
2.80542
1
1
1
1
1
1
1
1
1
1
1
1
1
1
1
1
1
1
1
1
1
1
1
1
1.93366
2.65932
2.69838
2.70589
2.7147
2.72248
2.7299
2.73689
2.74349
2.74982
2.75594
2.76183
2.76735
2.77236
2.77687
2.78109
2.78519
2.78899
2.79227
2.79486
2.79689
2.7985
2.79914
2.80271
1
1
1
1
1
1
1
1
1
1
1
1
1
1
1
1
1
1
1
1
1
1
1
1
1.86181
2.64378
2.69416
2.70204
2.71107
2.7191
2.7268
2.7341
2.74096
2.74741
2.75352
2.75932
2.76476
2.7697
2.77417
2.77832
2.78231
2.78593
2.78909
2.79175
2.79397
2.79583
2.79453
2.79856
1
1
1
1
1
1
1
1
1
1
1
1
1
1
1
1
1
1
1
1
1
1
1
1
1.77041
2.62004
2.68908
2.6973
2.70645
2.7146
2.72256
2.73019
2.73735
2.74398
2.75011
2.75581
2.76114
2.76606
2.77056
2.7747
2.77856
2.78203
2.78518
2.78796
2.79008
2.79172
2.78947
2.79434
1
1
1
1
1
1
1
1
1
1
1
1
1
1
1
1
1
1
1
1
1
1
1
1
1.65998
2.58823
2.68473
2.69222
2.70118
2.70917
2.71714
2.7249
2.7323
2.73911
2.74534
2.75101
2.75631
2.76127
2.76588
2.77008
2.77386
2.77719
2.78032
2.7832
2.78525
2.78678
2.78423
2.788
1
1
1
1
1
1
1
1
1
1
1
1
1
1
1
1
1
1
1
1
1
1
1
1
1.52793
2.54338
2.68135
2.68662
2.69544
2.70317
2.71112
2.719
2.72661
2.73363
2.73998
2.74562
2.75082
2.75572
2.76035
2.76456
2.76828
2.77147
2.77434
2.77689
2.77849
2.78037
2.78027
2.78014
1
1
1
1
1
1
1
1
1
1
1
1
1
1
1
1
1
1
1
1
1
1
1
1
1.36057
2.47322
2.67605
2.67945
2.68858
2.69583
2.70364
2.71161
2.7195
2.72683
2.73344
2.7392
2.74439
2.7492
2.75379
2.75797
2.76164
2.76477
2.76749
2.76987
2.77119
2.77203
2.77027
2.77319
1
1
1
1
1
1
1
1
1
1
1
1
1
1
1
1
1
1
1
1
1
1
1
1
1.16616
2.39173
2.67636
2.67194
2.68002
2.68714
2.69511
2.70314
2.7111
2.71864
2.72552
2.73153
2.73682
2.74162
2.74615
2.75028
2.75383
2.75672
2.75897
2.76088
2.762
2.76261
2.75972
2.76326
1
1
1
1
1
1
1
1
1
1
1
1
1
1
1
1
1
1
1
1
1
1
1
1
1.0091
2.31297
2.67105
2.66952
2.67598
2.68155
2.68802
2.69506
2.70253
2.70979
2.71656
2.72266
2.72803
2.73281
2.73725
2.74127
2.74462
2.74725
2.74912
2.75066
2.75116
2.75082
2.74669
2.74974
1
1
1
1
1
1
1
1
1
1
1
1
1
1
1
1
1
1
1
1
1
1
1
1
1.00004
2.1988
2.66857
2.67052
2.67564
2.68096
2.68576
2.69062
2.69543
2.70114
2.70716
2.71287
2.71807
2.72271
2.72698
2.73087
2.73404
2.73625
2.73715
2.73737
2.73623
2.73455
2.72906
2.73316
1
1
1
1
1
1
1
1
1
1
1
1
1
1
1
1
1
1
1
1
1
1
1
1
1
2.04838
2.65241
2.66923
2.67429
2.67923
2.68285
2.68619
2.68986
2.69385
2.69807
2.70265
2.70714
2.71133
2.71534
2.71886
2.7214
2.72292
2.72265
2.72177
2.71953
2.71653
2.70747
2.70443
1
1
1
1
1
1
1
1
1
1
1
1
1
1
1
1
1
1
1
1
1
1
1
1
1
1.85088
2.60254
2.66129
2.6709
2.67741
2.68157
2.68407
2.68594
2.68784
2.6904
2.69323
2.69619
2.69942
2.70273
2.70513
2.70671
2.70735
2.70596
2.70301
2.69682
2.68721
2.67114
2.66423
1
1
1
1
1
1
1
1
1
1
1
1
1
1
1
1
1
1
1
1
1
1
1
1
1
1.5914
2.50278
2.63909
2.65661
2.66797
2.67539
2.67961
2.68192
2.68323
2.68412
2.68509
2.68617
2.68772
2.68927
2.69014
2.69014
2.68934
2.68592
2.67986
2.66911
2.65618
2.63665
2.6407
1
1
1
1
1
1
1
1
1
1
1
1
1
1
1
1
1
1
1
1
1
1
1
1
1
1.24787
2.37623
2.62196
2.63443
2.64967
2.66144
2.6693
2.67418
2.67683
2.67776
2.67774
2.67738
2.67709
2.67604
2.67485
2.67266
2.66949
2.66338
2.65432
2.63707
2.61067
2.54515
2.39996
1
1
1
1
1
1
1
1
1
1
1
1
1
1
1
1
1
1
1
1
1
1
1
1
1
1.01786
2.27145
2.62366
2.62044
2.62835
2.64037
2.65174
2.66051
2.66623
2.66894
2.66927
2.66835
2.66648
2.66337
2.65978
2.65475
2.64856
2.63884
2.62467
2.59949
2.55203
2.47605
2.27113
1
1
1
1
1
1
1
1
1
1
1
1
1
1
1
1
1
1
1
1
1
1
1
1
1
1.00005
2.09554
2.60581
2.60854
2.61436
2.62244
2.63258
2.64276
2.65077
2.65619
2.65839
2.65776
2.65551
2.65116
2.64544
2.63732
2.62759
2.61373
2.59385
2.56236
2.50857
2.41333
2.20885
1
1
1
1
1
1
1
1
1
1
1
1
1
1
1
1
1
1
1
1
1
1
1
1
1
1
1.82944
2.56088
2.60948
2.61177
2.61503
2.61958
2.62628
2.63323
2.63979
2.64399
2.64441
2.64276
2.63818
2.63106
2.62056
2.60739
2.58936
2.56462
2.52751
2.47179
2.36672
2.1982
1
1
1
1
1
1
1
1
1
1
1
1
1
1
1
1
1
1
1
1
1
1
1
1
1
1
1.4501
2.43953
2.60284
2.60482
2.60806
2.61069
2.61442
2.61805
2.62277
2.62702
2.62848
2.62754
2.6235
2.61606
2.6044
2.58857
2.56706
2.53823
2.49786
2.4404
2.33917
2.20678
1
1
1
1
1
1
1
1
1
1
1
1
1
1
1
1
1
1
1
1
1
1
1
1
1
1
1.05795
2.29165
2.60069
2.5977
2.59939
2.60205
2.60401
2.6049
2.60674
2.60918
2.61056
2.61001
2.60667
2.59969
2.58796
2.5707
2.54723
2.51562
2.47329
2.41498
2.32547
2.21815
1
1
1
1
1
1
1
1
1
1
1
1
1
1
1
1
1
1
1
1
1
1
1
1
1
1
1.00072
2.10858
2.56348
2.57828
2.58661
2.5914
2.59335
2.59319
2.59282
2.59275
2.59241
2.59124
2.58788
2.58138
2.57027
2.5532
2.52934
2.49678
2.45374
2.39652
2.31859
2.23063
1
1
1
1
1
1
1
1
1
1
1
1
1
1
1
1
1
1
1
1
1
1
1
1
1
1
0.999994
1.76679
2.49483
2.56077
2.5747
2.58084
2.58303
2.58292
2.58166
2.5796
2.57684
2.57363
2.56906
2.56219
2.55144
2.53524
2.5123
2.4806
2.43874
2.38443
2.31535
2.24064
1
1
1
1
1
1
1
1
1
1
1
1
1
1
1
1
1
1
1
1
1
1
1
1
1
1
0.999998
1.28609
2.36025
2.55273
2.55704
2.56418
2.56853
2.57013
2.56925
2.5668
2.56267
2.55746
2.55098
2.54286
2.53182
2.51642
2.495
2.46535
2.42626
2.37633
2.31542
2.25068
1
1
1
1
1
1
1
1
1
1
1
1
1
1
1
1
1
1
1
1
1
1
1
1
1
1
1
1.02093
2.21127
2.53336
2.53598
2.54376
2.54933
2.5539
2.55475
2.55331
2.54934
2.54324
2.53516
2.52535
2.51318
2.49775
2.47743
2.44989
2.41433
2.36986
2.3158
2.25949
1
1
1
1
1
1
1
1
1
1
1
1
1
1
1
1
1
1
1
1
1
1
1
1
1
1
1
1.00005
1.89007
2.48515
2.52325
2.53234
2.53479
2.53817
2.53966
2.53881
2.53552
2.5295
2.52082
2.50978
2.49631
2.48041
2.46019
2.43414
2.4022
2.36292
2.31591
2.26631
1
1
1
1
1
1
1
1
1
1
1
1
1
1
1
1
1
1
1
1
1
1
1
1
1
1
1
1
1.3771
2.36658
2.51709
2.51659
2.51842
2.52108
2.52288
2.52243
2.51998
2.51486
2.50656
2.49562
2.48131
2.46489
2.44397
2.41907
2.39009
2.35462
2.31444
2.27001
1
1
1
1
1
1
1
1
1
1
1
1
1
1
1
1
1
1
1
1
1
1
1
1
1
1
1
1
1.03567
2.19773
2.49843
2.50061
2.50205
2.50448
2.50612
2.50566
2.50352
2.4992
2.49195
2.48151
2.46805
2.45091
2.43003
2.40611
2.37892
2.34617
2.31126
2.27114
1
1
1
1
1
1
1
1
1
1
1
1
1
1
1
1
1
1
1
1
1
1
1
1
1
1
1
1
1.00019
1.82031
2.43819
2.48445
2.48781
2.49116
2.49201
2.49066
2.4877
2.48318
2.47643
2.46683
2.45455
2.43767
2.41767
2.39488
2.36867
2.33847
2.30658
2.26988
1
1
1
1
1
1
1
1
1
1
1
1
1
1
1
1
1
1
1
1
1
1
1
1
1
1
1
1
0.999999
1.22505
2.29773
2.48539
2.47624
2.47702
2.47662
2.47439
2.47104
2.46666
2.46042
2.45146
2.44038
2.42499
2.40646
2.38505
2.35991
2.33193
2.30179
2.26816
1
1
1
1
1
1
1
1
1
1
1
1
1
1
1
1
1
1
1
1
1
1
1
1
1
1
1
1
1
1.0117
2.11074
2.45203
2.45464
2.46161
2.45995
2.45747
2.4545
2.45046
2.44443
2.43614
2.42547
2.41179
2.39502
2.37517
2.35166
2.32563
2.29694
2.26603
1
1
1
1
1
1
1
1
1
1
1
1
1
1
1
1
1
1
1
1
1
1
1
1
1
1
1
1
1
1
1.62341
2.36167
2.44482
2.44913
2.44675
2.44416
2.44102
2.43654
2.43006
2.42162
2.41105
2.39809
2.38285
2.36473
2.3433
2.31922
2.29247
2.264
1
1
1
1
1
1
1
1
1
1
1
1
1
1
1
1
1
1
1
1
1
1
1
1
1
1
1
1
1
0.999997
1.10349
2.19747
2.44166
2.43275
2.43144
2.42984
2.42701
2.42234
2.41558
2.40709
2.39683
2.38449
2.37025
2.35351
2.33395
2.31176
2.28718
2.26106
1
1
1
1
1
1
1
1
1
1
1
1
1
1
1
1
1
1
1
1
1
1
1
1
1
1
1
1
1
0.999999
1.00219
1.8465
2.38114
2.40877
2.41317
2.41514
2.41368
2.40947
2.40274
2.39417
2.38386
2.37169
2.35779
2.34178
2.32373
2.30345
2.28103
2.25727
1
1
1
1
1
1
1
1
1
1
1
1
1
1
1
1
1
1
1
1
1
1
1
1
1
1
1
1
1
1
0.999997
1.21945
2.22376
2.41009
2.40202
2.40212
2.40032
2.39597
2.3895
2.38128
2.37122
2.35929
2.34572
2.33033
2.31342
2.29466
2.27395
2.25222
1
1
1
1
1
1
1
1
1
1
1
1
1
1
1
1
1
1
1
1
1
1
1
1
1
1
1
1
1
1
0.999999
1.01071
1.9623
2.37178
2.3821
2.38379
2.38284
2.38005
2.37513
2.36812
2.35882
2.34743
2.33428
2.31937
2.3032
2.28545
2.26605
2.24598
1
1
1
1
1
1
1
1
1
1
1
1
1
1
1
1
1
1
1
1
1
1
1
1
1
1
1
1
1
1
1
1.00001
1.32221
2.23033
2.37972
2.37302
2.37009
2.36635
2.36125
2.35452
2.34581
2.33517
2.32274
2.30855
2.29321
2.2765
2.25828
2.23939
1
1
1
1
1
1
1
1
1
1
1
1
1
1
1
1
1
1
1
1
1
1
1
1
1
1
1
1
1
1
1
1
1.02388
2.01388
2.34911
2.35879
2.35553
2.35128
2.34611
2.33962
2.33154
2.32189
2.31055
2.29756
2.28332
2.26773
2.25064
2.2325
1
1
1
1
1
1
1
1
1
1
1
1
1
1
1
1
1
1
1
1
1
1
1
1
1
1
1
1
1
1
1
1
1.0001
1.39296
2.21755
2.35005
2.34282
2.33833
2.3328
2.32606
2.31809
2.30907
2.29878
2.28696
2.27373
2.25913
2.24313
2.22588
1
1
1
1
1
1
1
1
1
1
1
1
1
1
1
1
1
1
1
1
1
1
1
1
1
1
1
1
1
1
1
1
1
1.03664
2.01543
2.3283
2.32816
2.32364
2.31836
2.31186
2.30423
2.29568
2.28609
2.27525
2.26319
2.2498
2.23497
2.21912
1
1
1
1
1
1
1
1
1
1
1
1
1
1
1
1
1
1
1
1
1
1
1
1
1
1
1
1
1
1
1
1
1
1.00026
1.41289
2.19744
2.3185
2.30973
2.30497
2.29878
2.29151
2.28332
2.27424
2.2641
2.25298
2.24068
2.22688
2.21217
1
1
1
1
1
1
1
1
1
1
1
1
1
1
1
1
1
1
1
1
1
1
1
1
1
1
1
1
1
1
1
1
1
1
1.04103
1.983
2.29884
2.29764
2.29143
2.28506
2.27812
2.27055
2.26218
2.25272
2.24223
2.23085
2.21814
2.20421
1
1
1
1
1
1
1
1
1
1
1
1
1
1
1
1
1
1
1
1
1
1
1
1
1
1
1
1
1
1
1
1
1
1
1.00036
1.38606
2.15945
2.28746
2.27795
2.27249
2.26603
2.25895
2.25106
2.24211
2.23204
2.22121
2.20945
2.19642
1
1
1
1
1
1
1
1
1
1
1
1
1
1
1
1
1
1
1
1
1
1
1
1
1
1
1
1
1
1
1
1
1
1
1
1.03504
1.89786
2.25853
2.26824
2.26104
2.2543
2.2474
2.23984
2.23133
2.22183
2.21141
2.20042
2.18852
1
1
1
1
1
1
1
1
1
1
1
1
1
1
1
1
1
1
1
1
1
1
1
1
1
1
1
1
1
1
1
1
1
1
1
1.00031
1.30626
2.09613
2.25646
2.24853
2.24409
2.23739
2.2297
2.22117
2.21215
2.20224
2.19205
2.18082
1
1
1
1
1
1
1
1
1
1
1
1
1
1
1
1
1
1
1
1
1
1
1
1
1
1
1
1
1
1
1
1
1
1
1
1
1.02107
1.7351
2.19399
2.24103
2.23303
2.22603
2.21888
2.21103
2.20271
2.19376
2.1839
2.17243
1
1
1
1
1
1
1
1
1
1
1
1
1
1
1
1
1
1
1
1
1
1
1
1
1
1
1
1
1
1
1
1
1
1
1
1
1.00017
1.18586
2.00378
2.22907
2.2188
2.21398
2.2085
2.20191
2.19466
2.18602
2.17559
2.16288
1
1
1
1
1
1
1
1
1
1
1
1
1
1
1
1
1
1
1
1
1
1
1
1
1
1
1
1
1
1
1
1
1
1
1
1
1
1.00755
1.53021
2.11142
2.20463
2.19947
2.19582
2.19112
2.18449
2.17625
2.16439
2.15441
1
1
1
1
1
1
1
1
1
1
1
1
1
1
1
1
1
1
1
1
1
1
1
1
1
1
1
1
1
1
1
1
1
1
1
1
1
1.00005
1.08229
1.86115
2.186
2.18908
2.18502
2.17986
2.17334
2.16352
2.1591
2.16783
1
1
1
1
1
1
1
1
1
1
1
1
1
1
1
1
1
1
1
1
1
1
1
1
1
1
1
1
1
1
1
1
1
1
1
1
1
1
1.00165
1.3224
2.02497
2.17522
2.16822
2.16309
2.15698
2.15312
2.17356
2.24439
1
1
1
1
1
1
1
1
1
1
1
1
1
1
1
1
1
1
1
1
1
1
1
1
1
1
1
1
1
1
1
1
1
1
1
1
1
1
1.00001
1.02524
1.63986
2.10045
2.15865
2.15006
2.15067
2.18097
2.27009
2.35129
1
1
1
1
1
1
1
1
1
1
1
1
1
1
1
1
1
1
1
1
1
1
1
1
1
1
1
1
1
1
1
1
1
1
1
1
1
1
1
1.00027
1.13855
1.88716
2.12748
2.14645
2.19099
2.29495
2.36784
2.39202
1
1
1
1
1
1
1
1
1
1
1
1
1
1
1
1
1
1
1
1
1
1
1
1
1
1
1
1
1
1
1
1
1
1
1
1
1
1
1
1
1.0045
1.38214
1.95172
2.18459
2.30454
2.37333
2.39566
2.38284
1
1
1
1
1
1
1
1
1
1
1
1
1
1
1
1
1
1
1
1
1
1
1
1
1
1
1
1
1
1
1
1
1
1
1
1
1
1
1
1
1.00003
1.04071
1.6413
2.3021
2.40331
2.40607
2.39049
2.37324
1
1
1
1
1
1
1
1
1
1
1
1
1
1
1
1
1
1
1
1
1
1
1
1
1
1
1
1
1
1
1
1
1
1
1
1
1
1
1
1
1
1.00065
1.45171
2.54378
2.53071
2.4699
2.41691
2.38606
1
1
1
1
1
1
1
1
1
1
1
1
1
1
1
1
1
1
1
1
1
1
1
1
1
1
1
1
1
1
1
1
1
1
1
1
1
1
1
1
1
1
1.54686
2.64465
2.60327
2.52906
2.47478
2.43261
1
1
1
1
1
1
1
1
1
1
1
1
1
1
1
1
1
1
1
1
1
1
1
1
1
1
1
1
1
1
1
1
1
1
1
1
1
1
1
1
1
1
1.47998
2.61403
2.67065
2.62724
2.57994
2.52895
1
1
1
1
1
1
1
1
1
1
1
1
1
1
1
1
1
1
1
1
1
1
1
1
1
1
1
1
1
1
1
1
1
1
1
1
1
1
1
1
1
1
1.30937
2.50852
2.69399
2.6731
2.646
2.60786
1
1
1
1
1
1
1
1
1
1
1
1
1
1
1
1
1
1
1
1
1
1
1
1
1
1
1
1
1
1
1
1
1
1
1
1
1
1
1
1
1
1
1.12838
2.39181
2.69307
2.68254
2.67329
2.65525
1
1
1
1
1
1
1
1
1
1
1
1
1
1
1
1
1
1
1
1
1
1
1
1
1
1
1
1
1
1
1
1
1
1
1
1
1
1
1
1
1
1
1.00559
2.29382
2.68072
2.68055
2.6778
2.6713
1
1
1
1
1
1
1
1
1
1
1
1
1
1
1
1
1
1
1
1
1
1
1
1
1
1
1
1
1
1
1
1
1
1
1
1
1
1
1
1
1
1
1.00002
2.18851
2.6621
2.68163
2.67693
2.67324
1
1
1
1
1
1
1
1
1
1
1
1
1
1
1
1
1
1
1
1
1
1
1
1
1
1
1
1
1
1
1
1
1
1
1
1
1
1
1
1
1
1
1
2.07444
2.64159
2.67954
2.67398
2.67118
1
1
1
1
1
1
1
1
1
1
1
1
1
1
1
1
1
1
1
1
1
1
1
1
1
1
1
1
1
1
1
1
1
1
1
1
1
1
1
1
1
1
1
1.95006
2.62316
2.67675
2.67008
2.66727
1
1
1
1
1
1
1
1
1
1
1
1
1
1
1
1
1
1
1
1
1
1
1
1
1
1
1
1
1
1
1
1
1
1
1
1
1
1
1
1
1
1
1
1.81961
2.60253
2.67512
2.66613
2.6624
1
1
1
1
1
1
1
1
1
1
1
1
1
1
1
1
1
1
1
1
1
1
1
1
1
1
1
1
1
1
1
1
1
1
1
1
1
1
1
1
1
1
1
1.68665
2.57685
2.67593
2.66426
2.65908
1
1
1
1
1
1
1
1
1
1
1
1
1
1
1
1
1
1
1
1
1
1
1
1
1
1
1
1
1
1
1
1
1
1
1
1
1
1
1
1
1
1
1
1.54604
2.54441
2.67749
2.66409
2.65813
1
1
1
1
1
1
1
1
1
1
1
1
1
1
1
1
1
1
1
1
1
1
1
1
1
1
1
1
1
1
1
1
1
1
1
1
1
1
1
1
1
1
1
1.40932
2.50647
2.67906
2.66527
2.65884
1
1
1
1
1
1
1
1
1
1
1
1
1
1
1
1
1
1
1
1
1
1
1
1
1
1
1
1
1
1
1
1
1
1
1
1
1
1
1
1
1
1
1
1.30355
2.46819
2.68212
2.66858
2.66176
1
1
1
1
1
1
1
1
1
1
1
1
1
1
1
1
1
1
1
1
1
1
1
1
1
1
1
1
1
1
1
1
1
1
1
1
1
1
1
1
1
1
1
1.2183
2.42725
2.68411
2.67238
2.66587
1
1
1
1
1
1
1
1
1
1
1
1
1
1
1
1
1
1
1
1
1
1
1
1
1
1
1
1
1
1
1
1
1
1
1
1
1
1
1
1
1
1
1
1.15104
2.38759
2.68421
2.67539
2.66934
1
1
1
1
1
1
1
1
1
1
1
1
1
1
1
1
1
1
1
1
1
1
1
1
1
1
1
1
1
1
1
1
1
1
1
1
1
1
1
1
1
1
1
1.07767
2.34325
2.6846
2.67818
2.672
1
1
1
1
1
1
1
1
1
1
1
1
1
1
1
1
1
1
1
1
1
1
1
1
1
1
1
1
1
1
1
1
1
1
1
1
1
1
1
1
1
1
1
1.0102
2.30603
2.68261
2.67948
2.67268
1
1
1
1
1
1
1
1
1
1
1
1
1
1
1
1
1
1
1
1
1
1
1
1
1
1
1
1
1
1
1
1
1
1
1
1
1
1
1
1
1
1
1
1.00007
2.26189
2.67828
2.68077
2.6731
1
1
1
1
1
1
1
1
1
1
1
1
1
1
1
1
1
1
1
1
1
1
1
1
1
1
1
1
1
1
1
1
1
1
1
1
1
1
1
1
1
1
1
1
2.22095
2.67465
2.68289
2.67384
1
1
1
1
1
1
1
1
1
1
1
1
1
1
1
1
1
1
1
1
1
1
1
1
1
1
1
1
1
1
1
1
1
1
1
1
1
1
1
1
1
1
1
1
2.18612
2.67276
2.6842
2.67459
1
1
1
1
1
1
1
1
1
1
1
1
1
1
1
1
1
1
1
1
1
1
1
1
1
1
1
1
1
1
1
1
1
1
1
1
1
1
1
1
1
1
1
1
2.15801
2.67191
2.68516
2.67527
1
1
1
1
1
1
1
1
1
1
1
1
1
1
1
1
1
1
1
1
1
1
1
1
1
1
1
1
1
1
1
1
1
1
1
1
1
1
1
1
1
1
1
1
2.13627
2.6716
2.686
2.67592
1
1
1
1
1
1
1
1
1
1
1
1
1
1
1
1
1
1
1
1
1
1
1
1
1
1
1
1
1
1
1
1
1
1
1
1
1
1
1
1
1
1
1
1
2.1221
2.67177
2.68643
2.67632
1
1
1
1
1
1
1
1
1
1
1
1
1
1
1
1
1
1
1
1
1
1
1
1
1
1
1
1
1
1
1
1
1
1
1
1
1
1
1
1
1
1
1
1
2.11667
2.67158
2.6864
2.67655
1.43242
0.643885
0.680653
0.87894
0.788611
0.773091
0.794927
0.847752
0.959128
1.09836
1.20179
1.26935
1.32428
1.36932
1.38755
1.39905
1.43117
1.48152
1.51325
1.53898
1.56161
1.5727
1.57832
1.57319
1.54968
1.53331
1.53082
1.56141
1.60681
1.62254
1.63073
1.62445
1.58868
1.57179
1.5729
1.59496
1.62756
1.63543
1.62953
1.72984
2.37846
2.5904
2.6426
2.67059
2.68411
2.69093
2.69345
2.69996
2.70472
2.70632
2.70284
2.69769
2.69463
2.69441
2.695
2.69152
2.68242
2.67266
2.66464
2.65916
2.65453
2.64889
2.64156
2.63364
2.62677
2.62252
2.62089
2.62058
2.6191
2.61452
2.60679
2.59783
2.58961
2.58314
2.57837
2.57476
2.57146
2.56752
2.56201
2.55467
2.54627
2.5379
2.53031
2.52373
2.51794
2.51232
2.50617
2.49917
2.49164
2.48415
2.47695
2.46997
2.46307
2.45627
2.44971
2.44353
2.43764
2.43185
2.4261
2.42049
2.41515
2.41014
2.40527
2.40003
2.39399
2.38724
2.38024
2.37364
2.36806
2.36376
2.36008
2.35555
2.34987
2.34365
2.3371
2.33031
2.32373
2.31803
2.31377
2.31084
2.30809
2.30424
2.29961
2.2948
2.28974
2.28431
2.27872
2.27309
2.26741
2.26176
2.25637
2.25139
2.24661
2.24162
2.23622
2.23054
2.22478
2.21913
2.21365
2.20842
2.20375
2.19957
2.19496
2.18962
2.18389
2.17747
2.17025
2.16271
2.15528
2.14832
2.14191
2.13594
2.1298
2.1229
2.11537
2.10794
2.10138
2.09553
2.08946
2.08243
2.0737
2.06375
2.05469
2.0471
2.0406
2.0352
2.03165
2.02836
2.0234
2.01697
2.00898
1.99965
1.99025
1.98256
1.97665
1.97338
1.97181
1.96812
1.96293
1.95661
1.94945
1.9431
1.93792
1.9346
1.93263
1.92958
1.92516
1.91991
1.91349
1.90644
1.90104
1.89534
1.74995
1.28198
1.09379
1.02358
0.985322
0.959882
0.884479
0.787493
0.808015
0.875581
0.954554
1.03268
1.08423
1.13083
1.19003
1.23553
1.26294
1.29926
1.3478
1.38847
1.42348
1.45965
1.48699
1.50879
1.5162
1.51966
1.5322
1.55184
1.56472
1.56702
1.56415
1.56101
1.56367
1.57549
1.58859
1.59654
1.59821
1.59703
1.58686
1.60239
2.19461
2.59099
2.65025
2.66765
2.6822
2.68939
2.68706
2.68947
2.69458
2.70044
2.70067
2.69606
2.69019
2.68631
2.68458
2.68293
2.67875
2.67122
2.66301
2.65541
2.64906
2.64331
2.63772
2.6319
2.62576
2.61963
2.61414
2.60982
2.60641
2.60318
2.59916
2.59304
2.58574
2.57862
2.57257
2.5678
2.56386
2.5597
2.55437
2.54765
2.54001
2.53229
2.52519
2.5189
2.51299
2.507
2.50088
2.49469
2.48834
2.48182
2.47511
2.4681
2.46082
2.45345
2.44621
2.43946
2.43339
2.42791
2.42275
2.41778
2.41289
2.40771
2.40208
2.39603
2.38973
2.38333
2.37698
2.37099
2.36578
2.36157
2.35765
2.35262
2.34644
2.33971
2.33284
2.32637
2.3204
2.31507
2.31095
2.30801
2.30507
2.30098
2.29581
2.29022
2.28428
2.27875
2.2737
2.26891
2.26417
2.2595
2.25464
2.24945
2.24394
2.23814
2.2322
2.2265
2.22127
2.21633
2.21159
2.20715
2.20266
2.1978
2.19251
2.18649
2.17983
2.17308
2.16661
2.1605
2.15463
2.14872
2.14251
2.13579
2.12844
2.1206
2.11318
2.1071
2.1015
2.09575
2.08952
2.08219
2.07251
2.06245
2.05521
2.04942
2.04403
2.0389
2.03373
2.02802
2.02061
2.01181
2.00385
1.99743
1.99206
1.98807
1.98396
1.97877
1.97293
1.96673
1.96045
1.95504
1.95029
1.94616
1.942
1.93728
1.93186
1.92598
1.92021
1.91515
1.91095
1.90741
1.90514
1.89936
1.90844
1.67258
1.46298
1.28356
1.16737
1.13354
1.11163
1.06547
0.994035
0.973907
0.992271
1.01264
1.0183
1.02115
1.0366
1.07374
1.1018
1.13407
1.17832
1.23607
1.28197
1.33124
1.37568
1.41128
1.44025
1.46238
1.48271
1.49746
1.50458
1.50676
1.5137
1.52887
1.54473
1.55101
1.55105
1.54683
1.54123
1.54102
1.54959
1.56201
1.84581
2.51585
2.67805
2.66448
2.66481
2.66608
2.66388
2.65739
2.65923
2.66614
2.67199
2.67109
2.66582
2.65981
2.65467
2.65133
2.64951
2.64725
2.64251
2.63574
2.62815
2.62054
2.61426
2.60893
2.60394
2.59797
2.59001
2.58154
2.57444
2.5696
2.56661
2.56378
2.5592
2.55294
2.54678
2.54111
2.53582
2.53062
2.52536
2.52009
2.51479
2.50939
2.50401
2.49873
2.49313
2.48708
2.48111
2.47583
2.47121
2.46622
2.46015
2.45303
2.44527
2.4375
2.43005
2.42308
2.41711
2.41257
2.40911
2.40533
2.40069
2.39487
2.38805
2.38111
2.3745
2.36844
2.36284
2.35778
2.3535
2.3499
2.34526
2.33898
2.33245
2.32563
2.31893
2.31305
2.30778
2.30312
2.29967
2.29677
2.2926
2.28783
2.2825
2.27614
2.26958
2.2643
2.26013
2.25631
2.25259
2.24883
2.24463
2.23949
2.2333
2.22665
2.2205
2.21538
2.21114
2.20734
2.20358
2.19953
2.19495
2.18977
2.18371
2.17662
2.16939
2.1631
2.1579
2.15329
2.1486
2.1433
2.13709
2.12976
2.12206
2.11472
2.1084
2.10343
2.09866
2.09363
2.08794
2.08061
2.07097
2.06266
2.05712
2.05194
2.04646
2.04053
2.03367
2.02559
2.01699
2.00987
2.00444
2.00016
1.9974
1.99411
1.98931
1.98284
1.97377
1.96587
1.96064
1.95632
1.95272
1.94889
1.94426
1.93731
1.92863
1.92231
1.91826
1.91502
1.91279
1.91103
1.90854
1.90164
1.98131
1.81218
1.67449
1.54403
1.38306
1.2706
1.26658
1.24683
1.19042
1.13489
1.1185
1.10529
1.08132
1.07526
1.08109
1.09828
1.10155
1.09835
1.10126
1.11101
1.12782
1.1621
1.22946
1.29059
1.34143
1.38497
1.41101
1.42519
1.433
1.43993
1.45674
1.48371
1.49744
1.49886
1.49722
1.49345
1.49514
1.50361
1.5217
1.5333
1.59826
2.34779
2.65566
2.62899
2.62158
2.62246
2.61787
2.60416
2.5965
2.60023
2.60684
2.60887
2.60692
2.60234
2.59676
2.59139
2.5878
2.58663
2.58571
2.58279
2.57757
2.57061
2.56285
2.55584
2.54948
2.54342
2.5364
2.52729
2.51913
2.51312
2.50998
2.50834
2.50625
2.50113
2.49434
2.48726
2.48059
2.47511
2.47138
2.46926
2.46756
2.46491
2.46062
2.45526
2.4495
2.44367
2.43824
2.43416
2.4316
2.42815
2.42289
2.4172
2.41091
2.40425
2.39821
2.39225
2.38694
2.38307
2.38031
2.37589
2.36986
2.36354
2.35717
2.35057
2.34422
2.33904
2.33446
2.33032
2.32675
2.32287
2.31735
2.31143
2.30534
2.29884
2.29251
2.28711
2.28239
2.27829
2.27489
2.27096
2.2667
2.26218
2.25672
2.25027
2.24432
2.23991
2.23615
2.23262
2.22929
2.22601
2.22221
2.21691
2.21007
2.20341
2.19835
2.19474
2.19183
2.18899
2.1858
2.18198
2.17732
2.17142
2.16433
2.15727
2.15137
2.14662
2.14243
2.13822
2.13347
2.12757
2.12032
2.11309
2.1073
2.10255
2.09829
2.09402
2.08952
2.08468
2.07885
2.07119
2.06333
2.05815
2.05366
2.04887
2.04352
2.03683
2.02764
2.01806
2.01152
2.00703
2.00297
1.99961
1.99645
1.99227
1.9874
1.98071
1.97215
1.96466
1.95931
1.95491
1.95074
1.9464
1.94097
1.93273
1.92365
1.91859
1.9155
1.91283
1.91078
1.90821
1.90526
1.89898
2.04499
1.89582
1.78301
1.68826
1.56796
1.45068
1.39303
1.35794
1.3234
1.28794
1.25796
1.23218
1.19344
1.15643
1.15129
1.15469
1.15265
1.13872
1.13524
1.13763
1.1379
1.13487
1.14084
1.15938
1.19243
1.24262
1.28482
1.31833
1.3489
1.37581
1.40232
1.43436
1.45312
1.4599
1.46028
1.46068
1.46778
1.47883
1.49762
1.518
1.54958
2.10164
2.57407
2.59367
2.56054
2.55676
2.54823
2.5316
2.52042
2.51942
2.52128
2.52228
2.52111
2.5178
2.51365
2.5086
2.50411
2.50243
2.50291
2.50285
2.50038
2.49586
2.48969
2.48239
2.47615
2.47112
2.46644
2.46025
2.45434
2.4502
2.44739
2.44511
2.44214
2.43716
2.43123
2.42524
2.41976
2.41535
2.41302
2.41272
2.41185
2.40926
2.40567
2.40045
2.39506
2.39095
2.38741
2.3857
2.38512
2.38213
2.37783
2.37263
2.3661
2.3595
2.35396
2.34914
2.34465
2.3413
2.33826
2.33344
2.32801
2.32291
2.31759
2.31181
2.30617
2.30154
2.29772
2.29426
2.2908
2.28621
2.28102
2.27543
2.2693
2.26289
2.25692
2.252
2.24798
2.24458
2.24096
2.23714
2.23317
2.22873
2.22352
2.2179
2.21297
2.20881
2.20491
2.20117
2.1976
2.19407
2.18985
2.18398
2.17743
2.17222
2.16868
2.16594
2.1634
2.16071
2.15763
2.15393
2.14912
2.14281
2.13596
2.13023
2.12561
2.12122
2.11674
2.11201
2.10664
2.09994
2.09254
2.08715
2.08389
2.08108
2.07805
2.07446
2.07013
2.06497
2.05852
2.0512
2.04666
2.04358
2.04019
2.03631
2.03157
2.02473
2.01506
2.00652
2.00179
1.99812
1.9946
1.9911
1.9871
1.98281
1.97775
1.97157
1.96522
1.95937
1.9534
1.94724
1.94182
1.93692
1.93144
1.9244
1.9171
1.91188
1.90818
1.905
1.90215
1.89932
1.8966
1.89163
2.09403
1.96803
1.86421
1.7772
1.67689
1.593
1.53621
1.46699
1.41852
1.39143
1.35448
1.32618
1.30162
1.26098
1.21803
1.20831
1.21233
1.20716
1.18671
1.18299
1.17994
1.165
1.15949
1.16309
1.1632
1.166
1.17559
1.19267
1.22643
1.27016
1.316
1.35948
1.38996
1.41302
1.42549
1.43715
1.44701
1.46727
1.49767
1.55225
1.60683
1.81633
2.40396
2.54552
2.5041
2.48673
2.47395
2.46195
2.4546
2.4503
2.44608
2.44368
2.44295
2.44196
2.44086
2.43863
2.43438
2.43113
2.43016
2.4295
2.42813
2.42627
2.42324
2.41937
2.41645
2.41499
2.41332
2.40941
2.40502
2.40002
2.39586
2.3927
2.39017
2.38756
2.38363
2.37927
2.37514
2.37183
2.37027
2.3695
2.36703
2.36399
2.36034
2.35529
2.35104
2.34842
2.34691
2.34638
2.34423
2.34004
2.33453
2.3276
2.32122
2.31685
2.31378
2.31121
2.30914
2.30703
2.30354
2.29896
2.29415
2.28912
2.28362
2.27817
2.27318
2.26874
2.26483
2.26098
2.25664
2.25174
2.24635
2.24067
2.23506
2.22996
2.22555
2.2217
2.21801
2.21413
2.20992
2.20538
2.2009
2.19666
2.19256
2.18872
2.18503
2.18115
2.17693
2.17237
2.16728
2.16158
2.15557
2.14989
2.14539
2.14228
2.13982
2.13736
2.13457
2.13123
2.1272
2.1225
2.1172
2.1117
2.10684
2.10271
2.09863
2.09429
2.08938
2.0835
2.07642
2.06902
2.06357
2.06054
2.05811
2.05572
2.05319
2.05006
2.04569
2.03933
2.03161
2.02611
2.02361
2.02117
2.01835
2.01499
2.01049
2.00392
1.99594
1.98997
1.98599
1.98231
1.97855
1.97449
1.96988
1.9646
1.95908
1.95395
1.94945
1.94502
1.94011
1.93419
1.92727
1.92076
1.91517
1.90961
1.90455
1.90012
1.89573
1.89152
1.88823
1.88557
1.88356
1.87943
2.13111
2.02497
1.93525
1.85401
1.76397
1.69095
1.63378
1.56752
1.51547
1.48793
1.44519
1.3895
1.36605
1.34337
1.30729
1.27965
1.27751
1.27721
1.26154
1.24021
1.22906
1.21112
1.19139
1.18725
1.18322
1.18064
1.18367
1.18798
1.18785
1.19317
1.20874
1.23341
1.26466
1.30145
1.34282
1.38291
1.42149
1.46566
1.53235
1.63114
1.69554
1.74128
2.09877
2.42283
2.47321
2.46167
2.43852
2.4147
2.40384
2.39861
2.39527
2.39558
2.39768
2.39968
2.39953
2.39703
2.39244
2.38996
2.38947
2.38919
2.38874
2.38807
2.3859
2.38347
2.38217
2.38203
2.38129
2.37868
2.37519
2.3714
2.36869
2.36746
2.36716
2.36544
2.36234
2.35887
2.35554
2.35286
2.35093
2.34802
2.34412
2.33988
2.33513
2.33032
2.32704
2.32466
2.32231
2.31893
2.31468
2.30924
2.30349
2.29856
2.29534
2.29326
2.29246
2.29205
2.29028
2.28661
2.28161
2.27583
2.27011
2.26459
2.25957
2.25514
2.25089
2.24649
2.24181
2.23683
2.23161
2.22639
2.22126
2.21651
2.21227
2.2085
2.20486
2.20091
2.19639
2.19125
2.18601
2.18118
2.17702
2.17353
2.17058
2.16781
2.16467
2.16084
2.15605
2.15017
2.14322
2.1356
2.12876
2.12403
2.12088
2.11835
2.11594
2.11335
2.11013
2.10593
2.10061
2.09469
2.08921
2.08494
2.08129
2.07758
2.07372
2.0696
2.06487
2.05835
2.04965
2.0417
2.03721
2.03437
2.03179
2.02938
2.02721
2.02476
2.02105
2.01446
2.00559
1.99986
1.99713
1.99462
1.99179
1.98873
1.98492
1.97933
1.97327
1.96872
1.96482
1.961
1.95715
1.95311
1.94829
1.94161
1.93482
1.93027
1.92674
1.92338
1.92019
1.91659
1.91054
1.90122
1.89334
1.88923
1.88622
1.88317
1.87992
1.87584
1.87101
1.86699
1.86493
1.8607
2.15724
2.06656
1.99028
1.91569
1.83264
1.77215
1.7186
1.64692
1.58666
1.5599
1.52668
1.47435
1.42394
1.40222
1.37911
1.34727
1.33126
1.32947
1.32325
1.3046
1.28269
1.26275
1.24335
1.23188
1.22267
1.21434
1.21426
1.21216
1.20457
1.19882
1.20157
1.2015
1.20239
1.20879
1.23117
1.27548
1.35084
1.44931
1.56898
1.65319
1.71686
1.73659
1.81131
2.18814
2.41693
2.46225
2.44246
2.40447
2.38665
2.37993
2.37991
2.3827
2.38654
2.38559
2.38265
2.3796
2.37815
2.37792
2.37892
2.37872
2.37775
2.3759
2.37367
2.37264
2.37157
2.37056
2.36936
2.36769
2.36545
2.36353
2.36268
2.36174
2.35949
2.35657
2.35362
2.3508
2.34794
2.34527
2.34238
2.33843
2.33426
2.32981
2.32518
2.32178
2.31939
2.31659
2.31267
2.30785
2.30234
2.29653
2.29191
2.28895
2.28734
2.28685
2.28551
2.28241
2.27822
2.27303
2.26734
2.26136
2.25598
2.25155
2.24773
2.24423
2.24053
2.23605
2.23063
2.22424
2.21812
2.21305
2.20878
2.20506
2.20193
2.1984
2.19413
2.18893
2.18277
2.17677
2.1717
2.16759
2.16446
2.16192
2.15964
2.15696
2.15348
2.14867
2.14218
2.1347
2.12741
2.12048
2.11505
2.11112
2.10808
2.10547
2.10255
2.0985
2.0931
2.08697
2.08116
2.07587
2.07138
2.06761
2.06414
2.06066
2.05704
2.05296
2.04705
2.03952
2.03191
2.02567
2.02075
2.01714
2.01473
2.01277
2.00992
2.00619
2.00117
1.99484
1.98818
1.98195
1.97709
1.97413
1.97193
1.96896
1.9643
1.95844
1.95348
1.94944
1.94546
1.94129
1.9369
1.93239
1.92661
1.91946
1.91327
1.90949
1.90696
1.90492
1.90266
1.89887
1.89212
1.88243
1.87513
1.87159
1.86892
1.86644
1.86381
1.86033
1.85551
1.85066
1.84753
1.84279
2.17847
2.09982
2.03228
1.96468
1.89129
1.83148
1.77943
1.7189
1.66294
1.61778
1.57798
1.53908
1.49574
1.462
1.44328
1.4236
1.39225
1.36804
1.36447
1.35576
1.33592
1.30684
1.29132
1.28427
1.27549
1.26174
1.25647
1.25279
1.24207
1.21954
1.21228
1.21054
1.20751
1.20883
1.21404
1.23586
1.29398
1.4113
1.51966
1.56742
1.61788
1.65585
1.67723
1.82957
2.26496
2.46711
2.45465
2.41047
2.39351
2.39341
2.39479
2.39626
2.39515
2.38798
2.38173
2.38024
2.38041
2.38221
2.38245
2.38077
2.37842
2.37558
2.3738
2.37254
2.37089
2.36887
2.36661
2.36534
2.36475
2.36458
2.36389
2.3618
2.35833
2.35447
2.35149
2.34881
2.34621
2.34364
2.33996
2.33528
2.33032
2.3256
2.32204
2.31916
2.31705
2.31396
2.30987
2.30488
2.29873
2.29355
2.29005
2.28724
2.2853
2.28314
2.27982
2.27595
2.27139
2.26542
2.25896
2.25383
2.24983
2.24614
2.2431
2.24063
2.23689
2.23189
2.22502
2.21794
2.21246
2.208
2.20435
2.20138
2.19768
2.19322
2.18777
2.18114
2.17439
2.16898
2.16501
2.16195
2.15968
2.15786
2.15504
2.1511
2.14552
2.13895
2.13217
2.12559
2.1193
2.11451
2.1105
2.10671
2.10258
2.09789
2.09202
2.08621
2.08043
2.07474
2.06986
2.06585
2.06208
2.05813
2.05409
2.05029
2.04597
2.04011
2.0335
2.02692
2.02212
2.0181
2.01365
2.00847
2.00288
1.99793
1.99406
1.98974
1.98495
1.98069
1.97702
1.97277
1.96711
1.96095
1.95556
1.95039
1.94535
1.94144
1.93815
1.93493
1.9312
1.92674
1.92184
1.91528
1.90814
1.90249
1.89856
1.89512
1.89152
1.88779
1.8841
1.88005
1.87457
1.86878
1.86385
1.85927
1.85507
1.85177
1.84905
1.84603
1.84215
1.83819
1.8344
1.82912
2.19424
2.12627
2.06536
2.00069
1.93845
1.88463
1.82774
1.76843
1.72444
1.67865
1.62931
1.593
1.56215
1.52091
1.49235
1.48039
1.46253
1.431
1.40026
1.38968
1.37691
1.35087
1.32759
1.32449
1.32
1.30696
1.29756
1.29378
1.28428
1.26308
1.24197
1.234
1.23013
1.23439
1.25904
1.32116
1.40836
1.49048
1.50445
1.50313
1.51391
1.54004
1.56718
1.5948
1.85926
2.36948
2.46524
2.44525
2.43125
2.4244
2.42085
2.41744
2.41182
2.4001
2.39309
2.39066
2.39158
2.39415
2.39293
2.38863
2.38363
2.3801
2.37823
2.37699
2.37463
2.37197
2.36899
2.36713
2.36588
2.36586
2.36501
2.36267
2.35901
2.35452
2.35113
2.34834
2.34615
2.34374
2.33959
2.33447
2.32882
2.32393
2.32018
2.31747
2.31573
2.31285
2.3087
2.30385
2.29784
2.29275
2.28902
2.28589
2.28327
2.28018
2.27633
2.27202
2.26661
2.2604
2.25534
2.25131
2.24772
2.24493
2.24259
2.23888
2.23417
2.2282
2.22117
2.2151
2.21039
2.20645
2.20302
2.19883
2.19416
2.18897
2.18284
2.17603
2.17015
2.16572
2.16258
2.16083
2.15943
2.15634
2.15194
2.14603
2.13894
2.13173
2.1258
2.12085
2.11682
2.11369
2.11038
2.10571
2.09943
2.09118
2.08309
2.07692
2.07245
2.06866
2.0649
2.06171
2.05873