/*--------------------------------*- C++ -*----------------------------------*\
  =========                 |
  \\      /  F ield         | OpenFOAM: The Open Source CFD Toolbox
   \\    /   O peration     | Website:  https://openfoam.org
    \\  /    A nd           | Version:  10
     \\/     M anipulation  |
\*---------------------------------------------------------------------------*/
FoamFile
{
    format      ascii;
    class       volVectorField;
    location    "6";
    object      U;
}
// * * * * * * * * * * * * * * * * * * * * * * * * * * * * * * * * * * * * * //

dimensions      [0 1 -1 0 0 0 0];

internalField   nonuniform List<vector> 
16128
(
(3 3.42287e-15 0)
(3 4.41653e-15 0)
(3 6.46444e-15 0)
(3 1.48213e-14 0)
(3 -5.99615e-15 0)
(3 -3.99746e-15 0)
(3 2.10916e-14 0)
(3 7.9151e-14 0)
(3 8.75184e-14 0)
(3 4.84988e-14 0)
(3 1.09553e-14 0)
(3 -1.92415e-14 0)
(3 -5.53819e-14 0)
(3 -8.35172e-14 0)
(3 -6.17381e-14 0)
(3 -8.03665e-14 0)
(3 -3.24697e-14 0)
(3 -2.97343e-14 0)
(3 7.2662e-15 0)
(3 -4.32849e-15 0)
(3 -2.3287e-14 0)
(3 -3.5275e-14 0)
(3 -6.23716e-14 0)
(3 -1.5772e-14 0)
(1.45366 0.00830464 0)
(0.769696 0.00887219 0)
(0.723515 0.01111 0)
(0.697159 0.0120299 0)
(0.667414 0.0125305 0)
(0.63804 0.0130394 0)
(0.60789 0.0134854 0)
(0.57743 0.0137547 0)
(0.546969 0.0138157 0)
(0.516823 0.0137596 0)
(0.487094 0.0137991 0)
(0.45738 0.0141487 0)
(0.42694 0.0146857 0)
(0.395493 0.015113 0)
(0.363469 0.0154096 0)
(0.331265 0.0157953 0)
(0.298629 0.0163073 0)
(0.264821 0.0169114 0)
(0.229262 0.0175633 0)
(0.191865 0.0183598 0)
(0.153141 0.0190885 0)
(0.112674 0.0205715 0)
(0.0687217 0.0221568 0)
(0.0237194 0.0226068 0)
(3 8.93691e-15 0)
(3 -1.57282e-15 0)
(3 -2.40362e-14 0)
(3 -3.00752e-14 0)
(3 -5.71866e-14 0)
(3 -6.25238e-14 0)
(3 -2.77364e-14 0)
(3 9.92164e-14 0)
(3 1.12357e-13 0)
(3 4.06734e-14 0)
(3 -3.82968e-14 0)
(3 -7.46587e-14 0)
(3 -1.85803e-14 0)
(3 4.39335e-15 0)
(3 4.60969e-14 0)
(3 1.82851e-14 0)
(3 -1.49468e-15 0)
(3 -2.42694e-14 0)
(3 6.25893e-15 0)
(3 -5.1834e-14 0)
(3 -9.44314e-14 0)
(3 -8.28852e-14 0)
(3 -7.75297e-14 0)
(3 1.7847e-14 0)
(1.46866 0.0384524 0)
(0.765595 0.0358059 0)
(0.715991 0.0328597 0)
(0.689345 0.0346745 0)
(0.659609 0.0361061 0)
(0.630288 0.0377206 0)
(0.60019 0.0392014 0)
(0.569728 0.0401321 0)
(0.539215 0.0403895 0)
(0.509011 0.0402473 0)
(0.479228 0.0403965 0)
(0.449461 0.0415089 0)
(0.419004 0.043196 0)
(0.387641 0.0445854 0)
(0.355842 0.0456632 0)
(0.323924 0.0470206 0)
(0.291618 0.0486389 0)
(0.258347 0.0504553 0)
(0.223793 0.0524313 0)
(0.187937 0.0550427 0)
(0.15087 0.0576389 0)
(0.111738 0.0628659 0)
(0.0682638 0.0680951 0)
(0.0240393 0.0687191 0)
(3 -1.41556e-14 0)
(3 -5.34957e-15 0)
(3 -1.97998e-14 0)
(3 -7.93787e-14 0)
(3 -4.956e-14 0)
(3 1.28647e-14 0)
(3 2.42917e-14 0)
(3 2.84096e-14 0)
(3 3.48016e-14 0)
(3 2.78083e-14 0)
(3 -8.01591e-14 0)
(3 -1.24184e-13 0)
(3 -8.93316e-14 0)
(3 -3.74041e-14 0)
(3 -1.33621e-14 0)
(3 3.35056e-14 0)
(3 1.64157e-14 0)
(3 -2.24503e-14 0)
(3 2.3843e-14 0)
(3 -5.41097e-14 0)
(3 -1.30336e-13 0)
(3 -1.56687e-13 0)
(3 -1.33541e-13 0)
(3 -9.00115e-14 0)
(1.51664 0.067813 0)
(0.772132 0.0624778 0)
(0.718022 0.0569318 0)
(0.689822 0.0592595 0)
(0.659105 0.0613694 0)
(0.629109 0.0638368 0)
(0.598541 0.0661906 0)
(0.567653 0.0677343 0)
(0.536688 0.0682173 0)
(0.505969 0.0679773 0)
(0.475576 0.0681017 0)
(0.445155 0.0697877 0)
(0.414116 0.0724982 0)
(0.382269 0.0747687 0)
(0.349973 0.0764105 0)
(0.317385 0.0783158 0)
(0.284305 0.0805598 0)
(0.250544 0.0832007 0)
(0.216191 0.0861152 0)
(0.181354 0.0901808 0)
(0.145646 0.0943428 0)
(0.108287 0.103544 0)
(0.0661074 0.112352 0)
(0.0239009 0.113005 0)
(3 -2.38413e-14 0)
(3 -2.81668e-15 0)
(3 -8.25432e-15 0)
(3 7.12598e-15 0)
(3 3.06598e-14 0)
(3 8.71171e-14 0)
(3 1.28377e-13 0)
(3 6.3306e-14 0)
(3 8.73349e-15 0)
(3 1.46886e-15 0)
(3 -5.34861e-14 0)
(3 -6.87982e-14 0)
(3 -8.94089e-14 0)
(3 -8.05045e-14 0)
(3 -5.92804e-14 0)
(3 -4.99448e-14 0)
(3 1.58886e-14 0)
(3 2.04017e-14 0)
(3 -2.99054e-14 0)
(3 -7.1943e-14 0)
(3 -7.33262e-14 0)
(3 -6.87238e-14 0)
(3 -1.01805e-13 0)
(3 -1.35045e-13 0)
(1.5894 0.0942662 0)
(0.780356 0.0890587 0)
(0.721093 0.0818993 0)
(0.692256 0.0839991 0)
(0.661507 0.086481 0)
(0.631771 0.089621 0)
(0.601621 0.092826 0)
(0.571084 0.0951209 0)
(0.540281 0.0960765 0)
(0.509486 0.0959788 0)
(0.478773 0.0962382 0)
(0.44789 0.0986448 0)
(0.416371 0.102591 0)
(0.383969 0.105999 0)
(0.350908 0.108417 0)
(0.31722 0.11103 0)
(0.282767 0.114005 0)
(0.247661 0.117421 0)
(0.212298 0.120787 0)
(0.176971 0.125586 0)
(0.14089 0.130403 0)
(0.10409 0.143183 0)
(0.0629539 0.155173 0)
(0.022861 0.155823 0)
(3 1.02219e-14 0)
(3 5.55793e-14 0)
(3 3.32001e-14 0)
(3 5.17623e-14 0)
(3 9.43214e-14 0)
(3 7.13702e-14 0)
(3 8.15078e-14 0)
(3 5.29182e-14 0)
(3 3.02937e-14 0)
(3 7.10199e-15 0)
(3 6.18406e-15 0)
(3 -3.54959e-14 0)
(3 -5.4195e-14 0)
(3 -6.80334e-14 0)
(3 -6.46362e-14 0)
(3 -7.06858e-14 0)
(3 -1.6154e-14 0)
(3 2.41683e-14 0)
(3 5.67847e-15 0)
(3 -2.49399e-14 0)
(3 -1.03073e-13 0)
(3 -1.33427e-13 0)
(3 -1.21935e-13 0)
(3 -1.819e-13 0)
(1.68918 0.120666 0)
(0.790688 0.116175 0)
(0.723232 0.108385 0)
(0.693309 0.109272 0)
(0.662291 0.111664 0)
(0.632695 0.115154 0)
(0.602977 0.119079 0)
(0.572923 0.122182 0)
(0.542502 0.123792 0)
(0.511938 0.124011 0)
(0.481351 0.124415 0)
(0.450642 0.127449 0)
(0.419467 0.132596 0)
(0.387435 0.137238 0)
(0.354627 0.140599 0)
(0.320978 0.144129 0)
(0.286236 0.148123 0)
(0.250445 0.15273 0)
(0.213873 0.156887 0)
(0.176939 0.162706 0)
(0.138719 0.167591 0)
(0.101551 0.182597 0)
(0.0618432 0.195613 0)
(0.0295813 0.197926 0)
(3 -4.34381e-15 0)
(3 1.28618e-14 0)
(3 2.37941e-14 0)
(3 2.45812e-14 0)
(3 3.42597e-14 0)
(3 -1.45997e-14 0)
(3 -7.33332e-14 0)
(3 -9.09304e-14 0)
(3 -7.7825e-14 0)
(3 -5.62083e-14 0)
(3 1.09756e-14 0)
(3 5.09115e-15 0)
(3 -4.73844e-14 0)
(3 -1.31402e-13 0)
(3 -1.33116e-13 0)
(3 -1.42984e-14 0)
(3 -1.66428e-14 0)
(3 -2.39556e-14 0)
(3 -1.95452e-14 0)
(3 3.59552e-15 0)
(3 -5.28624e-14 0)
(3 -3.95038e-14 0)
(3 -2.13144e-14 0)
(3 -7.26685e-14 0)
(1.82471 0.145274 0)
(0.806766 0.143898 0)
(0.727513 0.136566 0)
(0.696401 0.135215 0)
(0.664926 0.137143 0)
(0.635209 0.140745 0)
(0.605615 0.145273 0)
(0.575755 0.149231 0)
(0.545458 0.151687 0)
(0.514866 0.15246 0)
(0.484147 0.153058 0)
(0.453361 0.156585 0)
(0.422286 0.162829 0)
(0.390343 0.168756 0)
(0.357484 0.173198 0)
(0.323694 0.177794 0)
(0.288745 0.182959 0)
(0.252701 0.189039 0)
(0.215588 0.194314 0)
(0.177852 0.20173 0)
(0.13781 0.206733 0)
(0.099735 0.2233 0)
(0.059175 0.233966 0)
(0.0396629 0.239237 0)
(3 3.06122e-15 0)
(3 -1.2242e-14 0)
(3 2.9674e-15 0)
(3 1.95795e-14 0)
(3 3.48455e-14 0)
(3 3.10479e-14 0)
(3 -5.9927e-14 0)
(3 -9.29497e-14 0)
(3 -6.97527e-14 0)
(3 -3.77153e-14 0)
(3 4.96254e-16 0)
(3 -3.66914e-14 0)
(3 -9.39111e-14 0)
(3 -8.76196e-14 0)
(3 -5.49981e-14 0)
(3 -5.44312e-14 0)
(3 -1.0266e-13 0)
(3 -8.44654e-14 0)
(3 -1.12761e-13 0)
(3 -1.25936e-13 0)
(3 -8.3777e-14 0)
(3 -3.62265e-14 0)
(3 1.178e-14 0)
(3 -1.26991e-14 0)
(1.99581 0.164357 0)
(0.829218 0.171954 0)
(0.733364 0.165581 0)
(0.701995 0.161141 0)
(0.67074 0.162262 0)
(0.641681 0.165721 0)
(0.613032 0.170629 0)
(0.584223 0.175333 0)
(0.554834 0.178692 0)
(0.524826 0.180241 0)
(0.494369 0.181146 0)
(0.463703 0.1851 0)
(0.432745 0.192418 0)
(0.400712 0.199832 0)
(0.367438 0.20569 0)
(0.333092 0.211684 0)
(0.297524 0.218247 0)
(0.260776 0.225978 0)
(0.22249 0.232398 0)
(0.183632 0.241655 0)
(0.14224 0.247207 0)
(0.103886 0.265472 0)
(0.0616773 0.273183 0)
(0.0422126 0.281443 0)
(3 5.40752e-15 0)
(3 1.45646e-14 0)
(3 5.07371e-14 0)
(3 1.65113e-14 0)
(3 1.14216e-14 0)
(3 9.32345e-16 0)
(3 -3.07873e-14 0)
(3 -1.47198e-14 0)
(3 -1.08223e-14 0)
(3 -2.91413e-14 0)
(3 -5.05603e-14 0)
(3 -6.66282e-14 0)
(3 -3.84974e-14 0)
(3 -1.59033e-14 0)
(3 1.06454e-15 0)
(3 -1.16104e-13 0)
(3 -1.73848e-13 0)
(3 -1.69502e-13 0)
(3 -1.56675e-13 0)
(3 -1.36715e-13 0)
(3 -1.19541e-13 0)
(3 -1.29201e-13 0)
(3 -6.98113e-14 0)
(3 -9.53426e-14 0)
(2.1982 0.177762 0)
(0.853289 0.204407 0)
(0.732485 0.19597 0)
(0.701219 0.18781 0)
(0.669765 0.18793 0)
(0.640868 0.190971 0)
(0.612627 0.196006 0)
(0.584512 0.201402 0)
(0.555997 0.205796 0)
(0.526903 0.208408 0)
(0.497349 0.209798 0)
(0.467742 0.214094 0)
(0.438161 0.222393 0)
(0.407481 0.231379 0)
(0.375161 0.238859 0)
(0.341449 0.246507 0)
(0.306174 0.254664 0)
(0.269418 0.264206 0)
(0.230378 0.271791 0)
(0.190736 0.283077 0)
(0.147995 0.289501 0)
(0.108907 0.309661 0)
(0.063992 0.315818 0)
(0.0414453 0.325003 0)
(3 -6.06487e-15 0)
(3 -2.38591e-14 0)
(3 -4.71143e-14 0)
(3 -6.55881e-14 0)
(3 -8.63012e-14 0)
(3 -9.10248e-14 0)
(3 -9.01013e-14 0)
(3 -2.95629e-14 0)
(3 4.2254e-14 0)
(3 6.60935e-14 0)
(3 5.25152e-14 0)
(3 6.72609e-14 0)
(3 7.12329e-14 0)
(3 -7.27951e-14 0)
(3 -1.47559e-13 0)
(3 -1.7346e-13 0)
(3 -1.43742e-13 0)
(3 -1.28032e-13 0)
(3 -7.84725e-14 0)
(3 -2.98376e-14 0)
(3 -4.84945e-14 0)
(3 -4.27413e-14 0)
(3 -2.03559e-14 0)
(3 -5.8813e-14 0)
(2.4358 0.188848 0)
(0.892286 0.244359 0)
(0.743257 0.225695 0)
(0.714999 0.216439 0)
(0.682338 0.215689 0)
(0.652001 0.218129 0)
(0.622139 0.222917 0)
(0.592767 0.228423 0)
(0.563379 0.233216 0)
(0.533677 0.236485 0)
(0.5037 0.238058 0)
(0.474024 0.24218 0)
(0.445077 0.251026 0)
(0.415576 0.26155 0)
(0.384397 0.270936 0)
(0.351729 0.280719 0)
(0.317155 0.290974 0)
(0.280805 0.302798 0)
(0.241421 0.311811 0)
(0.201762 0.325133 0)
(0.158279 0.332484 0)
(0.11846 0.355093 0)
(0.0686668 0.364978 0)
(0.0337909 0.368918 0)
(3 -1.24756e-15 0)
(3 -4.99055e-14 0)
(3 -7.51709e-14 0)
(3 -6.36839e-14 0)
(3 -4.02157e-14 0)
(3 -4.66087e-14 0)
(3 -1.06281e-14 0)
(3 1.08603e-14 0)
(3 2.73781e-14 0)
(3 2.6775e-14 0)
(3 5.41908e-15 0)
(3 4.08775e-14 0)
(3 1.85737e-14 0)
(3 -2.22915e-14 0)
(3 -2.644e-14 0)
(3 -3.3839e-14 0)
(3 -6.78502e-14 0)
(3 -6.67803e-14 0)
(3 -4.05351e-14 0)
(3 -2.44184e-14 0)
(3 -7.30769e-15 0)
(3 1.13377e-14 0)
(3 2.60704e-14 0)
(3 6.6566e-15 0)
(2.70596 0.184806 0)
(0.965772 0.27972 0)
(0.777424 0.241114 0)
(0.750839 0.239453 0)
(0.714944 0.241459 0)
(0.681487 0.244896 0)
(0.647988 0.250147 0)
(0.615114 0.256249 0)
(0.582523 0.261867 0)
(0.550034 0.266092 0)
(0.517581 0.267957 0)
(0.485837 0.271462 0)
(0.455628 0.28011 0)
(0.425967 0.291641 0)
(0.395164 0.302674 0)
(0.363256 0.314621 0)
(0.329344 0.327301 0)
(0.293453 0.342171 0)
(0.253288 0.353736 0)
(0.212214 0.369665 0)
(0.166006 0.378651 0)
(0.122602 0.403142 0)
(0.0748771 0.418454 0)
(0.0367698 0.419319 0)
(3 -1.76635e-15 0)
(3 -8.30706e-15 0)
(3 -1.41914e-14 0)
(3 8.71208e-15 0)
(3 -1.81085e-14 0)
(3 -2.32899e-14 0)
(3 -1.49031e-14 0)
(3 -2.34619e-14 0)
(3 -7.40036e-14 0)
(3 -7.71771e-14 0)
(3 -6.42408e-14 0)
(3 -4.72092e-14 0)
(3 6.25307e-15 0)
(3 4.90127e-14 0)
(3 1.52798e-13 0)
(3 1.38323e-13 0)
(3 5.32396e-14 0)
(3 -4.29859e-14 0)
(3 -3.36749e-14 0)
(3 -5.55347e-14 0)
(3 -5.15823e-14 0)
(3 -4.445e-14 0)
(3 -5.87593e-14 0)
(3 -5.39311e-14 0)
(2.95547 0.0764339 0)
(1.06279 0.29225 0)
(0.806682 0.257028 0)
(0.789783 0.263044 0)
(0.753764 0.268322 0)
(0.718549 0.273773 0)
(0.682239 0.280319 0)
(0.646539 0.287187 0)
(0.611241 0.293212 0)
(0.575945 0.298158 0)
(0.540457 0.300461 0)
(0.505625 0.303136 0)
(0.472693 0.310854 0)
(0.441413 0.322664 0)
(0.409798 0.334721 0)
(0.37779 0.348506 0)
(0.344105 0.363625 0)
(0.309079 0.381994 0)
(0.269263 0.396984 0)
(0.228214 0.416204 0)
(0.180096 0.428663 0)
(0.132149 0.456081 0)
(0.0794018 0.470838 0)
(0.0518886 0.475172 0)
(3 7.85309e-15 0)
(3 2.4952e-14 0)
(3 1.73531e-14 0)
(3 6.32043e-14 0)
(3 4.56906e-14 0)
(3 2.80953e-14 0)
(3 8.89796e-15 0)
(3 6.3778e-15 0)
(3 -1.53127e-14 0)
(3 2.14352e-14 0)
(3 8.14877e-14 0)
(3 3.24883e-14 0)
(3 3.69323e-14 0)
(3 4.52517e-14 0)
(3 7.24168e-14 0)
(3 1.06842e-13 0)
(3 9.73449e-14 0)
(3 1.07845e-13 0)
(3 6.42679e-14 0)
(3 -4.15728e-14 0)
(3 -6.8982e-14 0)
(3 -9.19855e-14 0)
(3 -1.24937e-13 0)
(3 -1.05891e-13 0)
(3.01723 0.00690977 0)
(1.15123 0.287763 0)
(0.807838 0.270839 0)
(0.798081 0.293073 0)
(0.769258 0.300752 0)
(0.740577 0.305351 0)
(0.709687 0.310818 0)
(0.677191 0.317967 0)
(0.643065 0.325725 0)
(0.607632 0.332362 0)
(0.570792 0.335798 0)
(0.533464 0.338067 0)
(0.497405 0.344438 0)
(0.463484 0.355886 0)
(0.429961 0.368261 0)
(0.396985 0.383278 0)
(0.362976 0.400203 0)
(0.328665 0.421875 0)
(0.288871 0.441095 0)
(0.246895 0.465266 0)
(0.195845 0.48398 0)
(0.145227 0.517056 0)
(0.0854803 0.530791 0)
(0.0555924 0.53838 0)
(3 -3.717e-15 0)
(3 3.47631e-16 0)
(3 -1.1095e-14 0)
(3 -2.6009e-14 0)
(3 -9.86818e-15 0)
(3 1.50067e-14 0)
(3 2.53133e-14 0)
(3 3.99306e-14 0)
(3 2.83542e-14 0)
(3 1.59594e-14 0)
(3 1.16235e-14 0)
(3 2.13346e-14 0)
(3 1.51197e-14 0)
(3 -4.75113e-15 0)
(3 6.2085e-14 0)
(3 1.46266e-13 0)
(3 1.24123e-13 0)
(3 6.11712e-14 0)
(3 9.44456e-15 0)
(3 3.95452e-14 0)
(3 5.92425e-14 0)
(3 4.05279e-14 0)
(3 7.3944e-15 0)
(3 -5.14469e-14 0)
(3.00056 1.62299e-05 0)
(1.28366 0.307031 0)
(0.797556 0.278203 0)
(0.780604 0.308279 0)
(0.758424 0.324868 0)
(0.736109 0.332364 0)
(0.714539 0.339005 0)
(0.692595 0.346732 0)
(0.667728 0.355377 0)
(0.638051 0.364528 0)
(0.603964 0.371169 0)
(0.566943 0.375032 0)
(0.529186 0.380881 0)
(0.492793 0.392003 0)
(0.456897 0.404159 0)
(0.422265 0.419694 0)
(0.386894 0.437868 0)
(0.352582 0.462776 0)
(0.313216 0.487044 0)
(0.272056 0.516944 0)
(0.221959 0.542034 0)
(0.171711 0.582221 0)
(0.103847 0.59878 0)
(0.0701285 0.611579 0)
(3 1.33126e-14 0)
(3 3.45435e-14 0)
(3 1.54442e-14 0)
(3 -2.61456e-14 0)
(3 -1.9358e-14 0)
(3 -2.4249e-14 0)
(3 -2.17682e-14 0)
(3 -4.70825e-14 0)
(3 -6.02837e-14 0)
(3 -8.03481e-14 0)
(3 -1.17544e-14 0)
(3 3.05459e-14 0)
(3 6.34924e-14 0)
(3 7.69107e-14 0)
(3 9.43065e-14 0)
(3 4.37377e-14 0)
(3 6.17137e-14 0)
(3 9.10647e-15 0)
(3 -4.38971e-14 0)
(3 4.66122e-14 0)
(3 5.39476e-14 0)
(3 7.23304e-14 0)
(3 5.61663e-14 0)
(3 -1.34475e-14 0)
(3 -5.88671e-08 0)
(1.50321 0.336269 0)
(0.808205 0.309764 0)
(0.752149 0.31809 0)
(0.735655 0.331792 0)
(0.718676 0.341578 0)
(0.703841 0.352702 0)
(0.687996 0.364915 0)
(0.67246 0.37908 0)
(0.653777 0.392534 0)
(0.628939 0.403606 0)
(0.597899 0.411394 0)
(0.562891 0.418702 0)
(0.526991 0.43048 0)
(0.490053 0.442537 0)
(0.453828 0.458587 0)
(0.417332 0.477167 0)
(0.383283 0.504382 0)
(0.34492 0.532993 0)
(0.305078 0.569296 0)
(0.252282 0.605279 0)
(0.196798 0.660441 0)
(0.116764 0.68755 0)
(0.0717577 0.708242 0)
(3 2.21625e-15 0)
(3 1.93691e-14 0)
(3 1.51021e-14 0)
(3 4.96825e-14 0)
(3 3.53819e-14 0)
(3 -1.57163e-15 0)
(3 -2.1369e-14 0)
(3 -5.78981e-14 0)
(3 -5.36157e-14 0)
(3 -4.09317e-14 0)
(3 -2.114e-14 0)
(3 2.04913e-14 0)
(3 4.05785e-14 0)
(3 3.14882e-14 0)
(3 -6.21895e-14 0)
(3 -1.0612e-13 0)
(3 -3.72651e-14 0)
(3 2.38544e-14 0)
(3 -3.18255e-14 0)
(3 -6.195e-14 0)
(3 -9.02511e-14 0)
(3 -1.0795e-13 0)
(3 -1.02543e-13 0)
(3 -3.68218e-14 0)
(3 -7.4726e-08 0)
(1.83849 0.375108 0)
(0.836442 0.369648 0)
(0.744808 0.348778 0)
(0.725463 0.348956 0)
(0.71061 0.356091 0)
(0.696204 0.365161 0)
(0.682277 0.377045 0)
(0.668767 0.392177 0)
(0.656112 0.410379 0)
(0.640951 0.428094 0)
(0.619292 0.442314 0)
(0.591556 0.453954 0)
(0.560772 0.468585 0)
(0.52581 0.482594 0)
(0.490686 0.499794 0)
(0.453938 0.518348 0)
(0.419953 0.547226 0)
(0.382668 0.580766 0)
(0.34521 0.626166 0)
(0.296446 0.674885 0)
(0.250485 0.744028 0)
(0.167743 0.788397 0)
(0.111208 0.822533 0)
(3 -1.74564e-14 0)
(3 -3.39592e-14 0)
(3 -3.86151e-14 0)
(3 -5.86483e-14 0)
(3 -6.4896e-14 0)
(3 -3.61593e-14 0)
(3 -1.01167e-14 0)
(3 3.47734e-14 0)
(3 6.61187e-14 0)
(3 4.586e-14 0)
(3 -6.49353e-14 0)
(3 -3.28884e-14 0)
(3 -5.64831e-14 0)
(3 -6.48941e-14 0)
(3 -7.69499e-14 0)
(3 -4.2271e-14 0)
(3 1.54436e-14 0)
(3 1.794e-14 0)
(3 1.91803e-14 0)
(3 6.77449e-16 0)
(3 -3.43926e-14 0)
(3 -2.74678e-14 0)
(3 7.0439e-15 0)
(3 -1.70923e-14 0)
(3 -1.59191e-08 0)
(2.32752 0.374727 0)
(0.910459 0.438202 0)
(0.786792 0.376304 0)
(0.754598 0.373239 0)
(0.726866 0.376351 0)
(0.70446 0.383536 0)
(0.686495 0.394252 0)
(0.671015 0.407708 0)
(0.658156 0.424958 0)
(0.646337 0.444966 0)
(0.632708 0.465035 0)
(0.613124 0.482726 0)
(0.590033 0.50193 0)
(0.56161 0.520375 0)
(0.530805 0.54067 0)
(0.495938 0.56036 0)
(0.463726 0.591035 0)
(0.429426 0.628284 0)
(0.399943 0.679818 0)
(0.357127 0.737106 0)
(0.31635 0.835418 0)
(0.207211 0.944971 0)
(0.16188 1.03905 0)
(3 -5.36319e-15 0)
(3 -7.68184e-15 0)
(3 -3.39311e-15 0)
(3 -5.61242e-14 0)
(3 -2.54695e-14 0)
(3 3.32376e-14 0)
(3 9.97267e-14 0)
(3 1.2382e-13 0)
(3 9.75808e-14 0)
(3 7.99079e-14 0)
(3 -1.8926e-14 0)
(3 -6.11935e-14 0)
(3 -6.64662e-14 0)
(3 -3.17471e-14 0)
(3 -1.17614e-14 0)
(3 3.09531e-14 0)
(3 1.11318e-13 0)
(3 1.09796e-13 0)
(3 9.1205e-14 0)
(3 4.19514e-14 0)
(3 -3.79092e-15 0)
(3 1.55406e-14 0)
(3 1.1661e-13 0)
(3 1.40962e-13 0)
(3 -1.64367e-09 0)
(2.91798 0.184811 0)
(1.07955 0.463117 0)
(0.86238 0.398833 0)
(0.825817 0.395449 0)
(0.77913 0.400513 0)
(0.740072 0.405387 0)
(0.710258 0.413542 0)
(0.686989 0.42527 0)
(0.66921 0.441175 0)
(0.655558 0.460799 0)
(0.644011 0.482762 0)
(0.630296 0.505131 0)
(0.613823 0.529255 0)
(0.593879 0.553522 0)
(0.570337 0.579179 0)
(0.5409 0.602054 0)
(0.513581 0.63481 0)
(0.483533 0.673348 0)
(0.462608 0.731072 0)
(0.427252 0.809915 0)
(0.410814 0.944792 0)
(0.395479 1.09524 0)
(0.541067 1.34246 0)
(3 1.13883e-15 0)
(3 -1.51294e-14 0)
(3 2.06976e-15 0)
(3 8.28799e-15 0)
(3 3.92488e-14 0)
(3 6.28982e-14 0)
(3 5.69046e-14 0)
(3 3.5276e-14 0)
(3 -9.06405e-15 0)
(3 -5.04316e-14 0)
(3 3.29704e-14 0)
(3 7.05239e-15 0)
(3 1.82354e-14 0)
(3 1.25467e-14 0)
(3 -2.9866e-14 0)
(3 -8.71033e-16 0)
(3 4.0926e-14 0)
(3 7.01044e-14 0)
(3 1.05541e-13 0)
(3 4.80686e-14 0)
(3 1.18678e-14 0)
(3 2.30144e-14 0)
(3 1.21087e-14 0)
(3 5.18573e-14 0)
(3 -6.67974e-11 0)
(3.04548 0.0110025 0)
(1.26822 0.426459 0)
(0.882264 0.43039 0)
(0.857542 0.44839 0)
(0.821878 0.446062 0)
(0.783122 0.442692 0)
(0.746748 0.444093 0)
(0.715671 0.44967 0)
(0.69097 0.460693 0)
(0.672914 0.477501 0)
(0.659614 0.498969 0)
(0.647944 0.523097 0)
(0.636758 0.550382 0)
(0.623568 0.579395 0)
(0.609187 0.610956 0)
(0.587699 0.639197 0)
(0.568182 0.675213 0)
(0.544933 0.715531 0)
(0.533402 0.777704 0)
(0.523972 0.869035 0)
(0.53827 1.00873 0)
(0.625351 1.15972 0)
(0.939102 1.35208 0)
(3 -2.53273e-15 0)
(3 -2.35184e-14 0)
(3 -3.65081e-14 0)
(3 -2.82244e-15 0)
(3 1.69666e-14 0)
(3 -2.9414e-14 0)
(3 -5.09818e-14 0)
(3 -6.4982e-14 0)
(3 -1.03443e-13 0)
(3 -1.17092e-13 0)
(3 -6.45265e-14 0)
(3 -3.26035e-14 0)
(3 -4.06279e-14 0)
(3 -2.99839e-14 0)
(3 -4.71258e-14 0)
(3 -9.51039e-14 0)
(3 -1.27863e-13 0)
(3 -7.24044e-14 0)
(3 -3.04012e-14 0)
(3 2.39736e-14 0)
(3 8.71671e-14 0)
(3 6.46808e-14 0)
(3 7.3025e-14 0)
(3 2.94608e-14 0)
(3 -1.40332e-12 0)
(3.00158 -7.87308e-06 0)
(1.49501 0.424724 0)
(0.865198 0.460324 0)
(0.843899 0.470392 0)
(0.822866 0.474226 0)
(0.801171 0.475415 0)
(0.775162 0.477389 0)
(0.746543 0.480649 0)
(0.719627 0.486988 0)
(0.696981 0.49889 0)
(0.680812 0.517427 0)
(0.668007 0.540488 0)
(0.659786 0.568692 0)
(0.650771 0.600495 0)
(0.645175 0.63651 0)
(0.633304 0.67103 0)
(0.623986 0.711095 0)
(0.611251 0.753967 0)
(0.610652 0.815953 0)
(0.625495 0.905791 0)
(0.673444 1.02789 0)
(0.824411 1.1654 0)
(1.14718 1.28649 0)
(3 -2.02695e-15 0)
(3 4.92372e-15 0)
(3 -3.04204e-14 0)
(3 -2.77196e-14 0)
(3 -6.02451e-14 0)
(3 -1.00251e-13 0)
(3 -1.23096e-13 0)
(3 -1.04968e-13 0)
(3 -8.15941e-14 0)
(3 -5.75894e-14 0)
(3 -5.49936e-14 0)
(3 -1.62103e-14 0)
(3 -2.24737e-14 0)
(3 -4.27231e-14 0)
(3 -1.29585e-14 0)
(3 -2.73059e-14 0)
(3 -7.4579e-14 0)
(3 -6.61005e-14 0)
(3 -7.27492e-14 0)
(3 -1.04893e-14 0)
(3 6.4672e-14 0)
(3 1.11372e-13 0)
(3 1.11141e-13 0)
(3 6.19377e-14 0)
(3 2.97566e-14 0)
(3 -1.73724e-07 0)
(1.93827 0.452683 0)
(0.894979 0.491722 0)
(0.830956 0.477011 0)
(0.825373 0.487381 0)
(0.812025 0.495604 0)
(0.795335 0.50264 0)
(0.774174 0.508487 0)
(0.751177 0.514738 0)
(0.727961 0.522841 0)
(0.709611 0.537838 0)
(0.694157 0.557733 0)
(0.68635 0.584463 0)
(0.679552 0.616365 0)
(0.679756 0.654398 0)
(0.677066 0.694298 0)
(0.678922 0.738191 0)
(0.678966 0.784048 0)
(0.690858 0.842766 0)
(0.721581 0.924312 0)
(0.798433 1.02952 0)
(0.970632 1.13833 0)
(1.24792 1.21052 0)
(3 2.28453e-15 0)
(3 1.93963e-14 0)
(3 2.52659e-14 0)
(3 1.77781e-15 0)
(3 -3.8962e-14 0)
(3 -4.59001e-14 0)
(3 -4.99184e-14 0)
(3 -2.7285e-14 0)
(3 -1.34049e-14 0)
(3 3.18204e-14 0)
(3 2.54924e-14 0)
(3 4.99864e-14 0)
(3 8.40672e-14 0)
(3 6.82726e-14 0)
(3 6.76295e-14 0)
(3 1.21939e-14 0)
(3 -1.42323e-14 0)
(3 -1.61683e-14 0)
(3 -3.17618e-14 0)
(3 -1.16298e-14 0)
(3 -3.98066e-14 0)
(3 2.26009e-14 0)
(3 -1.33335e-14 0)
(3 -4.44775e-14 0)
(3 1.46706e-14 0)
(3 -2.18289e-07 0)
(2.61682 0.355052 0)
(1.01659 0.546598 0)
(0.874119 0.484902 0)
(0.854815 0.494802 0)
(0.836721 0.509189 0)
(0.819846 0.521502 0)
(0.801384 0.531921 0)
(0.782657 0.541655 0)
(0.761767 0.549775 0)
(0.743182 0.562923 0)
(0.726241 0.578892 0)
(0.716644 0.602529 0)
(0.710824 0.632085 0)
(0.713871 0.668855 0)
(0.718214 0.710829 0)
(0.729971 0.757384 0)
(0.743409 0.80615 0)
(0.767948 0.861349 0)
(0.811216 0.931672 0)
(0.90379 1.01806 0)
(1.06887 1.09689 0)
(1.30677 1.1431 0)
(3 -5.6293e-15 0)
(3 -6.7272e-15 0)
(3 2.36992e-14 0)
(3 3.87672e-14 0)
(3 4.47408e-14 0)
(3 9.12058e-14 0)
(3 9.26443e-14 0)
(3 3.91759e-14 0)
(3 2.91713e-14 0)
(3 7.08113e-14 0)
(3 3.75108e-14 0)
(3 2.91279e-14 0)
(3 2.64523e-14 0)
(3 2.63738e-14 0)
(3 -1.75195e-14 0)
(3 -1.50889e-14 0)
(3 -4.79739e-15 0)
(3 -2.8165e-14 0)
(3 -3.10967e-14 0)
(3 -2.85236e-14 0)
(3 -7.64466e-15 0)
(3 -5.66062e-17 0)
(3 4.6898e-14 0)
(3 1.76697e-14 0)
(3 2.24938e-14 0)
(3 -4.59626e-08 0)
(3.08156 0.0471797 0)
(1.27152 0.525713 0)
(0.929794 0.514524 0)
(0.897089 0.524178 0)
(0.87173 0.531182 0)
(0.850397 0.539966 0)
(0.832228 0.550559 0)
(0.816254 0.562575 0)
(0.798272 0.572636 0)
(0.781403 0.586272 0)
(0.764776 0.600142 0)
(0.753124 0.620475 0)
(0.746702 0.646541 0)
(0.749842 0.680088 0)
(0.758133 0.720431 0)
(0.776266 0.76681 0)
(0.80089 0.817078 0)
(0.836677 0.870319 0)
(0.891116 0.930518 0)
(0.988274 0.998249 0)
(1.13477 1.05276 0)
(1.32942 1.08068 0)
(3 -3.08719e-15 0)
(3 -1.20386e-14 0)
(3 1.61631e-15 0)
(3 2.67857e-14 0)
(3 8.79108e-14 0)
(3 1.00227e-13 0)
(3 1.05043e-13 0)
(3 2.64232e-14 0)
(3 -1.39244e-14 0)
(3 -2.59708e-14 0)
(3 -2.40758e-14 0)
(3 -6.84517e-14 0)
(3 -8.92412e-14 0)
(3 -7.70125e-14 0)
(3 -5.21391e-14 0)
(3 1.21349e-14 0)
(3 1.90722e-14 0)
(3 -2.55018e-14 0)
(3 -3.62938e-14 0)
(3 -3.06353e-14 0)
(3 5.56556e-14 0)
(3 5.43682e-14 0)
(3 7.93003e-14 0)
(3 8.25141e-14 0)
(3 9.15213e-14 0)
(3 -4.68786e-09 0)
(3.00904 0.000120212 0)
(1.50252 0.508114 0)
(0.918409 0.571634 0)
(0.892418 0.556776 0)
(0.876771 0.558121 0)
(0.861934 0.564099 0)
(0.848786 0.573647 0)
(0.837748 0.586187 0)
(0.825322 0.597656 0)
(0.813833 0.612005 0)
(0.801405 0.625519 0)
(0.791449 0.643007 0)
(0.785318 0.664662 0)
(0.787979 0.693604 0)
(0.798362 0.729499 0)
(0.819585 0.771826 0)
(0.850916 0.819722 0)
(0.895388 0.871026 0)
(0.959015 0.925164 0)
(1.05631 0.97798 0)
(1.18334 1.01607 0)
(1.34567 1.03344 0)
(3 -5.99167e-15 0)
(3 -1.39647e-14 0)
(3 9.71456e-16 0)
(3 4.82529e-14 0)
(3 1.21871e-13 0)
(3 1.05874e-13 0)
(3 5.02813e-14 0)
(3 2.84261e-14 0)
(3 1.76897e-14 0)
(3 -6.25867e-15 0)
(3 -4.72789e-14 0)
(3 -7.958e-14 0)
(3 -6.52984e-14 0)
(3 -2.26181e-14 0)
(3 5.96747e-14 0)
(3 6.59387e-14 0)
(3 1.34416e-14 0)
(3 -3.2049e-14 0)
(3 -4.88579e-14 0)
(3 -3.24274e-14 0)
(3 1.54234e-14 0)
(3 4.5909e-14 0)
(3 1.68079e-14 0)
(3 1.40094e-14 0)
(3 5.2815e-14 0)
(3 -1.49504e-10 0)
(3.00006 -2.37114e-06 0)
(2.07372 0.511641 0)
(0.96688 0.603261 0)
(0.904984 0.56695 0)
(0.895482 0.572567 0)
(0.883314 0.579887 0)
(0.871761 0.58881 0)
(0.862419 0.601567 0)
(0.853114 0.614407 0)
(0.845785 0.62993 0)
(0.837997 0.644984 0)
(0.831634 0.662341 0)
(0.827116 0.681205 0)
(0.829173 0.705958 0)
(0.839953 0.737073 0)
(0.861717 0.773979 0)
(0.895085 0.816503 0)
(0.943332 0.862878 0)
(1.01131 0.911699 0)
(1.10641 0.954646 0)
(1.21782 0.982999 0)
(1.3569 0.994525 0)
(3 4.65453e-16 0)
(3 2.13927e-14 0)
(3 7.14216e-14 0)
(3 8.07659e-14 0)
(3 7.55747e-14 0)
(3 2.46298e-14 0)
(3 2.48918e-14 0)
(3 1.02529e-14 0)
(3 4.2478e-14 0)
(3 2.6691e-14 0)
(3 -1.00198e-14 0)
(3 2.4458e-14 0)
(3 3.66864e-14 0)
(3 7.26734e-14 0)
(3 3.14465e-14 0)
(3 -1.22144e-14 0)
(3 -2.77002e-14 0)
(3 -4.71666e-14 0)
(3 -2.02653e-14 0)
(3 -1.43597e-14 0)
(3 -4.72368e-14 0)
(3 -2.6525e-14 0)
(3 -2.89547e-14 0)
(3 -7.03554e-14 0)
(3 -7.63845e-14 0)
(3 -4.17611e-13 0)
(3.00001 -3.10663e-06 0)
(2.8872 0.239732 0)
(1.15869 0.615228 0)
(0.96283 0.573083 0)
(0.939288 0.580538 0)
(0.919029 0.593861 0)
(0.902424 0.604209 0)
(0.890618 0.617362 0)
(0.880769 0.63062 0)
(0.875063 0.64666 0)
(0.870789 0.663094 0)
(0.868833 0.68132 0)
(0.868122 0.699591 0)
(0.871334 0.720733 0)
(0.882339 0.747067 0)
(0.903835 0.778374 0)
(0.937342 0.814295 0)
(0.986059 0.853787 0)
(1.05355 0.895792 0)
(1.14427 0.932247 0)
(1.24538 0.955588 0)
(1.36886 0.965651 0)
(3 2.2913e-15 0)
(3 1.20192e-14 0)
(3 2.84622e-14 0)
(3 4.84073e-14 0)
(3 1.59537e-14 0)
(3 2.32758e-14 0)
(3 3.78388e-14 0)
(3 2.61081e-14 0)
(3 1.61131e-15 0)
(3 -2.73189e-14 0)
(3 6.75793e-14 0)
(3 7.97773e-14 0)
(3 9.60188e-14 0)
(3 4.65225e-14 0)
(3 -3.95305e-15 0)
(3 -2.97252e-14 0)
(3 -4.1302e-14 0)
(3 -1.12048e-15 0)
(3 2.13995e-14 0)
(3 4.82694e-14 0)
(3 -4.13276e-15 0)
(3 -1.02165e-13 0)
(3 -1.25453e-13 0)
(3 -1.35917e-13 0)
(3 -1.28774e-13 0)
(3 -1.51618e-13 0)
(3 -6.57501e-07 0)
(3.05488 0.0120441 0)
(1.40547 0.572858 0)
(0.99159 0.624869 0)
(0.963046 0.620736 0)
(0.939206 0.624008 0)
(0.924111 0.627797 0)
(0.913648 0.637465 0)
(0.905276 0.648167 0)
(0.901306 0.662281 0)
(0.900129 0.678061 0)
(0.902228 0.696083 0)
(0.906451 0.714784 0)
(0.912929 0.734012 0)
(0.924771 0.756113 0)
(0.945682 0.782091 0)
(0.978214 0.811451 0)
(1.02475 0.843439 0)
(1.08744 0.877341 0)
(1.16888 0.907535 0)
(1.2609 0.927073 0)
(1.37189 0.936734 0)
(3 1.47848e-14 0)
(3 -1.82767e-15 0)
(3 -1.87368e-14 0)
(3 -5.1812e-14 0)
(3 -8.49018e-14 0)
(3 -4.85699e-14 0)
(3 -3.50972e-14 0)
(3 -2.61166e-14 0)
(3 -6.23445e-14 0)
(3 -6.08102e-14 0)
(3 -2.62407e-14 0)
(3 -1.92897e-14 0)
(3 -4.67049e-15 0)
(3 -2.05744e-14 0)
(3 4.08051e-14 0)
(3 5.36432e-14 0)
(3 1.22133e-13 0)
(3 1.17272e-13 0)
(3 9.22354e-14 0)
(3 5.80901e-14 0)
(3 -1.15521e-14 0)
(3 -1.13747e-13 0)
(3 -1.4677e-13 0)
(3 -8.56674e-14 0)
(3 -6.89271e-14 0)
(3 -4.21833e-14 0)
(3 -6.68124e-08 0)
(3.00169 -2.74583e-06 0)
(1.8752 0.565302 0)
(1.00005 0.660789 0)
(0.965021 0.637972 0)
(0.958251 0.643477 0)
(0.949406 0.646134 0)
(0.940186 0.653825 0)
(0.932674 0.662776 0)
(0.928753 0.675277 0)
(0.928749 0.690152 0)
(0.932945 0.707613 0)
(0.940673 0.726716 0)
(0.951543 0.746129 0)
(0.965187 0.766027 0)
(0.986601 0.788514 0)
(1.01877 0.812855 0)
(1.06264 0.838463 0)
(1.12064 0.865379 0)
(1.19221 0.888341 0)
(1.27627 0.904578 0)
(1.37511 0.914038 0)
(3 1.14086e-15 0)
(3 -9.66291e-15 0)
(3 -4.29185e-14 0)
(3 -8.35652e-14 0)
(3 -1.21585e-13 0)
(3 -1.54244e-13 0)
(3 -1.61709e-13 0)
(3 -8.13051e-14 0)
(3 -4.24064e-14 0)
(3 -7.12683e-14 0)
(3 -1.35394e-13 0)
(3 -9.39047e-14 0)
(3 -7.93713e-14 0)
(3 -8.52681e-14 0)
(3 -3.58947e-14 0)
(3 1.12777e-13 0)
(3 2.13302e-13 0)
(3 2.12446e-13 0)
(3 1.18518e-13 0)
(3 5.69059e-14 0)
(3 1.42529e-15 0)
(3 -5.02025e-14 0)
(3 -9.00528e-14 0)
(3 -9.23854e-14 0)
(3 -9.28448e-14 0)
(3 -1.82473e-14 0)
(3 -2.12535e-09 0)
(3 -1.46824e-07 0)
(2.74974 0.323965 0)
(1.15395 0.673626 0)
(1.00157 0.63735 0)
(0.990666 0.648924 0)
(0.980262 0.659212 0)
(0.970119 0.668875 0)
(0.96208 0.677633 0)
(0.957465 0.688727 0)
(0.957165 0.701887 0)
(0.962168 0.717905 0)
(0.971057 0.735758 0)
(0.985648 0.755297 0)
(1.00213 0.773672 0)
(1.02545 0.792321 0)
(1.05707 0.812466 0)
(1.09771 0.832734 0)
(1.15034 0.853088 0)
(1.2124 0.869094 0)
(1.28797 0.882586 0)
(1.37317 0.890772 0)
(3 -1.50656e-14 0)
(3 -2.83182e-14 0)
(3 -6.74131e-14 0)
(3 -5.12228e-14 0)
(3 -3.38789e-14 0)
(3 -4.81984e-14 0)
(3 -5.33038e-14 0)
(3 -4.3661e-14 0)
(3 -1.96322e-14 0)
(3 -1.1201e-14 0)
(3 -7.3259e-15 0)
(3 -3.53946e-14 0)
(3 -4.3641e-14 0)
(3 -2.02856e-15 0)
(3 4.29129e-14 0)
(3 7.16343e-14 0)
(3 9.85557e-14 0)
(3 1.30866e-13 0)
(3 1.59665e-13 0)
(3 6.44181e-14 0)
(3 -1.04043e-15 0)
(3 -5.50401e-14 0)
(3 -1.11803e-13 0)
(3 -1.48374e-13 0)
(3 -1.61326e-13 0)
(3 -5.63803e-14 0)
(3 -5.03357e-12 0)
(3 -1.90191e-07 0)
(3.06879 0.0231747 0)
(1.44344 0.639572 0)
(1.04666 0.682585 0)
(1.01393 0.679544 0)
(0.99975 0.68359 0)
(0.990487 0.690371 0)
(0.985098 0.695913 0)
(0.982932 0.704509 0)
(0.98414 0.714566 0)
(0.989923 0.728123 0)
(0.999529 0.743846 0)
(1.01529 0.761827 0)
(1.0348 0.78 0)
(1.06061 0.797901 0)
(1.09231 0.815647 0)
(1.13122 0.8326 0)
(1.17932 0.848268 0)
(1.2348 0.860121 0)
(1.30305 0.87049 0)
(1.37718 0.87511 0)
(3 1.88418e-14 0)
(3 2.40499e-14 0)
(3 1.13033e-14 0)
(3 1.73828e-15 0)
(3 -3.36103e-14 0)
(3 -4.73658e-14 0)
(3 1.73816e-14 0)
(3 2.39812e-14 0)
(3 4.45217e-14 0)
(3 4.85688e-14 0)
(3 5.21037e-14 0)
(3 7.09621e-14 0)
(3 3.24795e-14 0)
(3 2.79414e-14 0)
(3 5.51276e-14 0)
(3 5.92278e-14 0)
(3 2.62457e-14 0)
(3 1.68546e-14 0)
(3 1.15401e-16 0)
(3 6.89823e-15 0)
(3 -2.5157e-14 0)
(3 -3.72955e-14 0)
(3 -4.38125e-14 0)
(3 1.77448e-14 0)
(3 -3.26079e-15 0)
(3 -6.98461e-14 0)
(3 -6.7811e-14 0)
(3 -4.08263e-08 0)
(3.00332 7.02154e-05 0)
(2.00765 0.608236 0)
(1.07365 0.727883 0)
(1.03509 0.69865 0)
(1.03029 0.697458 0)
(1.02166 0.703507 0)
(1.01491 0.708318 0)
(1.01267 0.716436 0)
(1.01386 0.725412 0)
(1.0191 0.7375 0)
(1.02825 0.750277 0)
(1.04318 0.766832 0)
(1.06397 0.782542 0)
(1.09083 0.79878 0)
(1.12232 0.814147 0)
(1.16045 0.828448 0)
(1.20464 0.840612 0)
(1.25629 0.849695 0)
(1.31703 0.857012 0)
(1.38284 0.858994 0)
(3 -9.13593e-16 0)
(3 1.40068e-14 0)
(3 6.04779e-14 0)
(3 4.98787e-14 0)
(3 -1.2958e-14 0)
(3 -2.98259e-14 0)
(3 -1.87987e-14 0)
(3 1.95589e-14 0)
(3 4.25892e-14 0)
(3 5.07723e-14 0)
(3 2.48491e-14 0)
(3 2.75308e-14 0)
(3 -8.27293e-15 0)
(3 -1.07757e-13 0)
(3 -9.80945e-14 0)
(3 -3.74532e-14 0)
(3 -2.15037e-15 0)
(3 -1.15264e-15 0)
(3 -3.64574e-15 0)
(3 2.21153e-14 0)
(3 2.87723e-14 0)
(3 6.33882e-14 0)
(3 1.10707e-13 0)
(3 1.36668e-13 0)
(3 1.67299e-13 0)