/*--------------------------------*- C++ -*----------------------------------*\
  =========                 |
  \\      /  F ield         | OpenFOAM: The Open Source CFD Toolbox
   \\    /   O peration     | Website:  https://openfoam.org
    \\  /    A nd           | Version:  10
     \\/     M anipulation  |
\*---------------------------------------------------------------------------*/
FoamFile
{
    format      ascii;
    class       volScalarField;
    location    "4";
    object      p;
}
// * * * * * * * * * * * * * * * * * * * * * * * * * * * * * * * * * * * * * //

dimensions      [1 -1 -2 0 0 0 0];

internalField   nonuniform List<scalar> 
16128
(
1
1
1
1
1
1
1
1
1
1
1
1
1
1
1
1
1
1
1
1
1
1
1
1
4.66574
10.2103
10.5309
10.6165
10.7341
10.84
10.9453
11.0466
11.1427
11.233
11.3186
11.4
11.4769
11.5489
11.6175
11.6839
11.7472
11.8026
11.8496
11.8918
11.9347
11.9704
11.9926
12.0133
1
1
1
1
1
1
1
1
1
1
1
1
1
1
1
1
1
1
1
1
1
1
1
1
4.58989
10.1697
10.5249
10.6128
10.7301
10.836
10.9408
11.0415
11.1371
11.2272
11.3123
11.3928
11.4688
11.5408
11.6096
11.6751
11.7359
11.7893
11.8369
11.8808
11.9237
11.9566
11.9753
11.9963
1
1
1
1
1
1
1
1
1
1
1
1
1
1
1
1
1
1
1
1
1
1
1
1
4.42109
10.121
10.5094
10.6003
10.7179
10.8246
10.9295
11.0301
11.1257
11.2159
11.3006
11.3802
11.4559
11.5288
11.5978
11.6613
11.719
11.7711
11.82
11.8646
11.9043
11.9323
11.9449
11.969
1
1
1
1
1
1
1
1
1
1
1
1
1
1
1
1
1
1
1
1
1
1
1
1
4.177
10.0418
10.4924
10.585
10.7022
10.8087
10.9129
11.0126
11.1074
11.1971
11.2809
11.3593
11.4344
11.5075
11.5763
11.638
11.6937
11.7453
11.7948
11.8383
11.8736
11.8974
11.9049
11.94
1
1
1
1
1
1
1
1
1
1
1
1
1
1
1
1
1
1
1
1
1
1
1
1
3.86487
9.9219
10.4727
10.5658
10.6824
10.7884
10.8916
10.9901
11.0838
11.1727
11.2554
11.3324
11.406
11.4781
11.5458
11.6064
11.661
11.712
11.7616
11.8055
11.8392
11.8597
11.8349
11.9036
1
1
1
1
1
1
1
1
1
1
1
1
1
1
1
1
1
1
1
1
1
1
1
1
3.48917
9.74659
10.4512
10.543
10.6589
10.764
10.8659
10.963
11.0552
11.1429
11.2247
11.3005
11.3723
11.4424
11.5085
11.5679
11.6215
11.6709
11.7177
11.7579
11.7862
11.8066
11.7771
11.8438
1
1
1
1
1
1
1
1
1
1
1
1
1
1
1
1
1
1
1
1
1
1
1
1
3.06475
9.49473
10.4275
10.5145
10.6297
10.733
10.8333
10.9287
11.0191
11.1049
11.1852
11.2594
11.3288
11.3959
11.4596
11.5175
11.5701
11.6179
11.662
11.6995
11.7252
11.7472
11.7165
11.7759
1
1
1
1
1
1
1
1
1
1
1
1
1
1
1
1
1
1
1
1
1
1
1
1
2.60518
9.15446
10.4157
10.4894
10.6036
10.7031
10.8
10.8915
10.9779
11.0596
11.1372
11.2089
11.2757
11.3393
11.4
11.4559
11.5072
11.5531
11.5925
11.6234
11.643
11.6728
11.6769
11.663
1
1
1
1
1
1
1
1
1
1
1
1
1
1
1
1
1
1
1
1
1
1
1
1
2.12383
8.6957
10.422
10.4681
10.577
10.6703
10.7642
10.853
10.9361
11.0137
11.0878
11.1565
11.2194
11.2777
11.3332
11.3845
11.4317
11.4735
11.5084
11.5363
11.553
11.5718
11.563
11.5847
1
1
1
1
1
1
1
1
1
1
1
1
1
1
1
1
1
1
1
1
1
1
1
1
1.64929
8.12175
10.4418
10.4351
10.5437
10.6308
10.7213
10.8065
10.8869
10.9614
11.0319
11.0973
11.1565
11.2092
11.2585
11.3034
11.3447
11.3816
11.4128
11.4381
11.4538
11.4657
11.4277
11.4633
1
1
1
1
1
1
1
1
1
1
1
1
1
1
1
1
1
1
1
1
1
1
1
1
1.22256
7.41093
10.4498
10.3979
10.4931
10.5718
10.6597
10.7455
10.825
10.8972
10.9645
11.0268
11.0827
11.1307
11.1737
11.2115
11.2446
11.2732
11.2955
11.312
11.3189
11.3204
11.2727
11.3288
1
1
1
1
1
1
1
1
1
1
1
1
1
1
1
1
1
1
1
1
1
1
1
1
1.00976
6.59385
10.2656
10.2975
10.4061
10.496
10.5854
10.6679
10.7478
10.8223
10.8878
10.9465
10.9984
11.0416
11.0777
11.1073
11.1301
11.1488
11.1616
11.1705
11.1677
11.1531
11.0856
11.1323
1
1
1
1
1
1
1
1
1
1
1
1
1
1
1
1
1
1
1
1
1
1
1
1
1.00003
5.58806
10.0696
10.2225
10.3356
10.433
10.5217
10.6035
10.6761
10.7382
10.7979
10.8515
10.8986
10.937
10.9664
10.9876
10.9993
11.0056
11.0026
10.9918
10.9621
10.9244
10.8368
10.8982
1
1
1
1
1
1
1
1
1
1
1
1
1
1
1
1
1
1
1
1
1
1
1
1
1
4.51435
9.74045
10.1427
10.2656
10.3701
10.4494
10.5177
10.5792
10.6396
10.6929
10.7399
10.7811
10.8141
10.8376
10.8501
10.8476
10.8381
10.8142
10.7838
10.734
10.6712
10.5436
10.523
1
1
1
1
1
1
1
1
1
1
1
1
1
1
1
1
1
1
1
1
1
1
1
1
1
3.44204
9.2905
10.0922
10.2243
10.3245
10.3955
10.4511
10.4995
10.5437
10.5856
10.6241
10.6559
10.6799
10.6945
10.6947
10.6771
10.6496
10.6003
10.5366
10.4287
10.2742
10.0609
10.0035
1
1
1
1
1
1
1
1
1
1
1
1
1
1
1
1
1
1
1
1
1
1
1
1
1
2.33686
8.5358
10.148
10.1991
10.264
10.3212
10.3716
10.4156
10.4522
10.4833
10.5071
10.5245
10.5352
10.5376
10.5209
10.4867
10.435
10.3493
10.2376
10.0683
9.87254
9.56162
9.50344
1
1
1
1
1
1
1
1
1
1
1
1
1
1
1
1
1
1
1
1
1
1
1
1
1
1.37279
7.72672
10.2737
10.1198
10.1726
10.238
10.2883
10.3276
10.3565
10.3778
10.3914
10.3954
10.3914
10.3739
10.3404
10.2831
10.2022
10.0786
9.92219
9.66509
9.29786
8.38343
6.34432
1
1
1
1
1
1
1
1
1
1
1
1
1
1
1
1
1
1
1
1
1
1
1
1
1
1.01712
6.50819
9.99669
9.9803
10.0677
10.1347
10.189
10.2276
10.2526
10.2661
10.2704
10.2612
10.2404
10.2036
10.1522
10.0683
9.95687
9.79121
9.56828
9.21043
8.59252
7.61883
5.36598
1
1
1
1
1
1
1
1
1
1
1
1
1
1
1
1
1
1
1
1
1
1
1
1
1
0.999969
4.92165
9.57775
9.87197
9.9829
10.0392
10.0849
10.1227
10.143
10.1497
10.1457
10.1238
10.088
10.0326
9.9617
9.85164
9.70852
9.50094
9.21325
8.78642
8.11376
7.00518
5.08571
1
1
1
1
1
1
1
1
1
1
1
1
1
1
1
1
1
1
1
1
1
1
1
1
1
0.999991
3.39556
9.05571
9.84845
9.92712
9.97347
9.99725
10.0211
10.031
10.0298
10.0167
9.98334
9.93433
9.86009
9.76732
9.63491
9.46259
9.21812
8.88349
8.40321
7.73342
6.58585
5.07786
1
1
1
1
1
1
1
1
1
1
1
1
1
1
1
1
1
1
1
1
1
1
1
1
1
0.999998
1.9885
8.21948
9.87712
9.85323
9.89099
9.91729
9.93189
9.93014
9.91615
9.88947
9.84341
9.78069
9.68926
9.57614
9.42455
9.22643
8.95741
8.59345
8.09165
7.41807
6.36561
5.18276
1
1
1
1
1
1
1
1
1
1
1
1
1
1
1
1
1
1
1
1
1
1
1
1
1
1
1.1098
6.85453
9.8826
9.79612
9.79504
9.82217
9.82933
9.82087
9.79702
9.75988
9.70319
9.62823
9.52322
9.39251
9.22321
9.00378
8.71899
8.3421
7.84651
7.17511
6.27331
5.31684
1
1
1
1
1
1
1
1
1
1
1
1
1
1
1
1
1
1
1
1
1
1
1
1
1
1
1.00088
5.09467
9.35102
9.62659
9.69737
9.72183
9.72046
9.70733
9.67595
9.6307
9.56422
9.47721
9.36118
9.21628
9.03254
8.79983
8.50618
8.12712
7.65057
7.01258
6.24171
5.44738
1
1
1
1
1
1
1
1
1
1
1
1
1
1
1
1
1
1
1
1
1
1
1
1
1
1
0.999988
3.12039
8.74555
9.59701
9.61824
9.63894
9.63542
9.6113
9.56815
9.51153
9.43378
9.33513
9.20875
9.05245
8.85739
8.61636
8.31898
7.94516
7.49056
6.90536
6.23832
5.55534
1
1
1
1
1
1
1
1
1
1
1
1
1
1
1
1
1
1
1
1
1
1
1
1
1
1
0.999997
1.50573
7.78546
9.71864
9.58723
9.53597
9.52367
9.49468
9.44723
9.38508
9.30065
9.19535
9.06144
8.89679
8.69519
8.45092
8.15575
7.79129
7.35596
6.82765
6.24834
5.64453
1
1
1
1
1
1
1
1
1
1
1
1
1
1
1
1
1
1
1
1
1
1
1
1
1
1
1
1.02596
6.0689
9.29033
9.37768
9.4176
9.41035
9.37621
9.32668
9.2613
9.17268
9.06181
8.92317
8.75357
8.54789
8.30349
8.01399
7.6615
7.24485
6.76633
6.26297
5.71419
1
1
1
1
1
1
1
1
1
1
1
1
1
1
1
1
1
1
1
1
1
1
1
1
1
1
1
0.999915
3.76887
8.79077
9.30131
9.33741
9.32841
9.29121
9.23392
9.15684
9.05808
8.93854
8.79382
8.62166
8.41542
8.17392
7.88828
7.54973
7.1573
6.72257
6.27533
5.7749
1
1
1
1
1
1
1
1
1
1
1
1
1
1
1
1
1
1
1
1
1
1
1
1
1
1
1
0.999976
1.76721
7.96634
9.42275
9.30083
9.22689
9.18123
9.12085
9.04077
8.93931
8.81676
8.66932
8.49724
8.29177
8.0581
7.77371
7.4526
7.08722
6.69345
6.2799
5.82379
1
1
1
1
1
1
1
1
1
1
1
1
1
1
1
1
1
1
1
1
1
1
1
1
1
1
1
0.999996
1.05477
6.1659
9.05953
9.11207
9.10452
9.0753
9.01472
8.93281
8.82872
8.70434
8.5557
8.38405
8.18536
7.95091
7.67572
7.3725
7.03257
6.67467
6.28522
5.87743
1
1
1
1
1
1
1
1
1
1
1
1
1
1
1
1
1
1
1
1
1
1
1
1
1
1
1
1
1.00006
3.54836
8.50788
9.06677
9.03335
8.99982
8.93812
8.84791
8.73537
8.60455
8.45372
8.27977
8.08368
7.85314
7.59225
7.30396
6.98671
6.6552
6.28916
5.91953
1
1
1
1
1
1
1
1
1
1
1
1
1
1
1
1
1
1
1
1
1
1
1
1
1
1
1
1
0.999999
1.43755
7.51557
9.20094
9.00814
8.91285
8.83797
8.74276
8.63114
8.50397
8.35659
8.18574
7.99053
7.76906
7.52266
7.24765
6.95126
6.63875
6.29954
5.95725
1
1
1
1
1
1
1
1
1
1
1
1
1
1
1
1
1
1
1
1
1
1
1
1
1
1
1
1
1
1.01733
5.47995
8.71242
8.77101
8.7924
8.73185
8.63866
8.53288
8.41139
8.26836
8.10235
7.90991
7.69473
7.45867
7.19691
6.91896
6.62137
6.30694
5.98537
1
1
1
1
1
1
1
1
1
1
1
1
1
1
1
1
1
1
1
1
1
1
1
1
1
1
1
1
1
0.999913
2.73891
8.03933
8.77691
8.74696
8.6623
8.56852
8.4639
8.34221
8.19812
8.03153
7.84139
7.63131
7.40233
7.15339
6.89011
6.60705
6.31409
6.01037
1
1
1
1
1
1
1
1
1
1
1
1
1
1
1
1
1
1
1
1
1
1
1
1
1
1
1
1
1
0.999977
1.22199
6.46626
8.7832
8.66585
8.57538
8.48541
8.38552
8.26641
8.12331
7.95896
7.77436
7.57269
7.35277
7.11552
6.86319
6.59426
6.31784
6.0319
1
1
1
1
1
1
1
1
1
1
1
1
1
1
1
1
1
1
1
1
1
1
1
1
1
1
1
1
1
0.999996
1.00375
3.79072
8.16762
8.51068
8.47367
8.41483
8.32393
8.20507
8.06101
7.89821
7.71833
7.52343
7.31111
7.08243
6.83991
6.5841
6.32109
6.05274
1
1
1
1
1
1
1
1
1
1
1
1
1
1
1
1
1
1
1
1
1
1
1
1
1
1
1
1
1
1
0.999988
1.49528
6.95686
8.62481
8.47523
8.38487
8.27736
8.14704
7.99992
7.8389
7.66392
7.47564
7.27033
7.05
6.81851
6.574
6.32317
6.07119
1
1
1
1
1
1
1
1
1
1
1
1
1
1
1
1
1
1
1
1
1
1
1
1
1
1
1
1
1
1
0.999997
1.02011
4.52904
8.17945
8.32413
8.28827
8.19737
8.07503
7.93564
7.78103
7.61256
7.43086
7.23271
7.02045
6.79951
6.56568
6.32535
6.0873
1
1
1
1
1
1
1
1
1
1
1
1
1
1
1
1
1
1
1
1
1
1
1
1
1
1
1
1
1
1
0.999999
1.00001
1.76729
7.17594
8.438
8.28631
8.16639
8.03595
7.89415
7.73923
7.57072
7.39069
7.19691
6.99044
6.77889
6.55678
6.32689
6.10109
1
1
1
1
1
1
1
1
1
1
1
1
1
1
1
1
1
1
1
1
1
1
1
1
1
1
1
1
1
1
1
1
1.04622
4.93035
8.10023
8.16348
8.0817
7.96891
7.83661
7.68737
7.5232
7.3472
7.15915
6.9601
6.75881
6.54894
6.3301
6.11453
1
1
1
1
1
1
1
1
1
1
1
1
1
1
1
1
1
1
1
1
1
1
1
1
1
1
1
1
1
1
1
1
1.00015
1.96016
7.17027
8.23517
8.06622
7.94015
7.80258
7.65276
7.49127
7.3188
7.13678
6.94485
6.74962
6.54745
6.33643
6.12779
1
1
1
1
1
1
1
1
1
1
1
1
1
1
1
1
1
1
1
1
1
1
1
1
1
1
1
1
1
1
1
1
1
1.06913
5.00718
7.96952
7.97718
7.87904
7.75299
7.60876
7.45047
7.28165
7.1051
6.9202
6.73127
6.5389
6.33857
6.13763
1
1
1
1
1
1
1
1
1
1
1
1
1
1
1
1
1
1
1
1
1
1
1
1
1
1
1
1
1
1
1
1
1
1.0004
2.02034
6.97905
7.99964
7.85243
7.7211
7.57537
7.4178
7.25328
7.0836
6.90791
6.72713
6.54331
6.3525
6.15674
1
1
1
1
1
1
1
1
1
1
1
1
1
1
1
1
1
1
1
1
1
1
1
1
1
1
1
1
1
1
1
1
1
1
1.07636
4.75899
7.76654
7.79087
7.66865
7.53204
7.38132
7.22526
7.06383
6.89675
6.72331
6.54446
6.36049
6.17176
1
1
1
1
1
1
1
1
1
1
1
1
1
1
1
1
1
1
1
1
1
1
1
1
1
1
1
1
1
1
1
1
1
1
1.00057
1.91359
6.64216
7.79137
7.63937
7.50751
7.35881
7.20781
7.05258
6.89189
6.7247
6.55086
6.37214
6.19006
1
1
1
1
1
1
1
1
1
1
1
1
1
1
1
1
1
1
1
1
1
1
1
1
1
1
1
1
1
1
1
1
1
1
1
1.06131
4.19342
7.48661
7.59381
7.46663
7.32932
7.18911
7.04289
6.88813
6.72518
6.55605
6.38199
6.20371
1
1
1
1
1
1
1
1
1
1
1
1
1
1
1
1
1
1
1
1
1
1
1
1
1
1
1
1
1
1
1
1
1
1
1
1.0005
1.66908
6.10972
7.59859
7.45464
7.33324
7.19345
7.04424
6.88749
6.72523
6.55989
6.39186
6.21974
1
1
1
1
1
1
1
1
1
1
1
1
1
1
1
1
1
1
1
1
1
1
1
1
1
1
1
1
1
1
1
1
1
1
1
1
1.0341
3.27833
7.06555
7.44254
7.31616
7.17607
7.02744
6.87554
6.7211
6.56252
6.40075
6.23678
1
1
1
1
1
1
1
1
1
1
1
1
1
1
1
1
1
1
1
1
1
1
1
1
1
1
1
1
1
1
1
1
1
1
1
1
1.00027
1.35485
5.37148
7.48219
7.31856
7.17019
7.02313
6.87837
6.73112
6.57656
6.41599
6.25517
1
1
1
1
1
1
1
1
1
1
1
1
1
1
1
1
1
1
1
1
1
1
1
1
1
1
1
1
1
1
1
1
1
1
1
1
1
1.01062
2.45061
6.56142
7.27411
7.13869
7.01162
6.87354
6.72783
6.57773
6.42189
6.26203
1
1
1
1
1
1
1
1
1
1
1
1
1
1
1
1
1
1
1
1
1
1
1
1
1
1
1
1
1
1
1
1
1
1
1
1
1
1.00006
1.14677
4.26634
7.12139
7.16566
7.03905
6.89733
6.74736
6.59536
6.44198
6.2845
1
1
1
1
1
1
1
1
1
1
1
1
1
1
1
1
1
1
1
1
1
1
1
1
1
1
1
1
1
1
1
1
1
1
1
1
1
1
1.00246
1.7392
5.75678
7.1718
7.0233
6.88005
6.73631
6.59062
6.44464
6.29681
1
1
1
1
1
1
1
1
1
1
1
1
1
1
1
1
1
1
1
1
1
1
1
1
1
1
1
1
1
1
1
1
1
1
1
1
1
1
1.00001
1.04163
2.95812
6.56748
7.00972
6.88337
6.7485
6.61022
6.46719
6.32176
1
1
1
1
1
1
1
1
1
1
1
1
1
1
1
1
1
1
1
1
1
1
1
1
1
1
1
1
1
1
1
1
1
1
1
1
1
1
1
1.00044
1.26251
4.55238
6.90206
6.91543
6.78066
6.63933
6.49358
6.34622
1
1
1
1
1
1
1
1
1
1
1
1
1
1
1
1
1
1
1
1
1
1
1
1
1
1
1
1
1
1
1
1
1
1
1
1
1
1
1
1
1.00677
1.91775
5.69753
6.88472
6.78
6.63879
6.49907
6.35556
1
1
1
1
1
1
1
1
1
1
1
1
1
1
1
1
1
1
1
1
1
1
1
1
1
1
1
1
1
1
1
1
1
1
1
1
1
1
1
1
1.00004
1.06272
3.01604
6.3526
6.78796
6.65694
6.51565
6.37791
1
1
1
1
1
1
1
1
1
1
1
1
1
1
1
1
1
1
1
1
1
1
1
1
1
1
1
1
1
1
1
1
1
1
1
1
1
1
1
1
1
1.00083
1.28222
4.3446
6.60665
6.68621
6.55271
6.40818
1
1
1
1
1
1
1
1
1
1
1
1
1
1
1
1
1
1
1
1
1
1
1
1
1
1
1
1
1
1
1
1
1
1
1
1
1
1
1
1
1
1
1.00809
1.82491
5.3282
6.63699
6.57005
6.42889
1
1
1
1
1
1
1
1
1
1
1
1
1
1
1
1
1
1
1
1
1
1
1
1
1
1
1
1
1
1
1
1
1
1
1
1
1
1
1
1
1
1
1.00006
1.0524
2.67877
5.96613
6.56101
6.46095
1
1
1
1
1
1
1
1
1
1
1
1
1
1
1
1
1
1
1
1
1
1
1
1
1
1
1
1
1
1
1
1
1
1
1
1
1
1
1
1
1
1
1
1.00069
1.20189
3.74116
6.24501
6.49069
1
1
1
1
1
1
1
1
1
1
1
1
1
1
1
1
1
1
1
1
1
1
1
1
1
1
1
1
1
1
1
1
1
1
1
1
1
1
1
1
1
1
1
1
1.00497
1.54715
4.65615
6.4057
1
1
1
1
1
1
1
1
1
1
1
1
1
1
1
1
1
1
1
1
1
1
1
1
1
1
1
1
1
1
1
1
1
1
1
1
1
1
1
1
1
1
1
1
1.00003
1.02571
2.11253
5.4735
1
1
1
1
1
1
1
1
1
1
1
1
1
1
1
1
1
1
1
1
1
1
1
1
1
1
1
1
1
1
1
1
1
1
1
1
1
1
1
1
1
1
1
1
1
1.00026
1.09649
2.95009
1
1
1
1
1
1
1
1
1
1
1
1
1
1
1
1
1
1
1
1
1
1
1
1
1
1
1
1
1
1
1
1
1
1
1
1
1
1
1
1
1
1
1
1
1
1
1.00185
1.2617
1
1
1
1
1
1
1
1
1
1
1
1
1
1
1
1
1
1
1
1
1
1
1
1
1
1
1
1
1
1
1
1
1
1
1
1
1
1
1
1
1
1
1
1
1
1
1.00001
1.00904
1
1
1
1
1
1
1
1
1
1
1
1
1
1
1
1
1
1
1
1
1
1
1
1
1
1
1
1
1
1
1
1
1
1
1
1
1
1
1
1
1
1
1
1
1
1
1
1.00014
1
1
1
1
1
1
1
1
1
1
1
1
1
1
1
1
1
1
1
1
1
1
1
1
1
1
1
1
1
1
1
1
1
1
1
1
1
1
1
1
1
1
1
1
1
1
1
1
1
1
1
1
1
1
1
1
1
1
1
1
1
1
1
1
1
1
1
1
1
1
1
1
1
1
1
1
1
1
1
1
1
1
1
1
1
1
1
1
1
1
1
1
1
1
1
1
1
1
1
1
1
1
1
1
1
1
1
1
1
1
1
1
1
1
1
1
1
1
1
1
1
1
1
1
1
1
1
1
1
1
1
1
1
1
1
1
1
1
1
1
1
1
1
1
1
1
1
1
1
1
1
1
1
1
1
1
1
1
1
1
1
1
1
1
1
1
1
1
1
1
1
1
1
1
1
1
1
1
1
1
1
1
1
1
1
1
1
1
1
1
1
1
1
1
1
1
1
1
1
1
1
1
1
1
1
1
1
1
1
1
1
1
1
1
1
1
1
1
1
1
1
1
1
1
1
1
1
1
1
1
1
1
1
1
1
1
1
1
1
1
1
1
1
1
1
1
1
1
1
1
1
1
1
1
1
1
1
1
1
1
1
1
1
1
1
1
1
1
1
1
1
1
1
1
1
1
1
1
1
1
1
1
1
1
1
1
1
1
1
1
1
1
1
1
1
1
1
1
1
1
1
1
1
1
1
1
1
1
1
1
1
1
1
1
1
1
1
1
1
1
1
1
1
1
1
1
1
1
1
1
1
1
1
1
1
1
1
1
1
1
1
1
1
1
1
1
1
1
1
1
1
1
1
1
1
1
1
1
1
1
1
1
1
1
1
1
1
1
1
1
1
1
1
1
1
1
1
1
1
1
1
1
1
1
1
1
1
1
1
1
1
1
1
1
1
1
1
1
1
1
1
1
1
1
1
1
1
1
1
1
1
1
1
1
1
1
1
1
1
1
1
1
1
1
1
1
1
1
1
1
1
1
1
1
1
1
1
1
1
1
1
1
1
1
1
1
1
1
1
1
1
1
1
1
1
1
1
1
1
1
1
1
1
1
1
1
1
1
1
1
1
1
1
1
1
1
1
1
1
1
1
1
1
1
1
1
1
1
1
1
1
1
1
1
1
1
1
1
1
1
1
1
1
1
1
1
1
1
1
1
1
1
1
1
1
1
1
1
1
1
1
1
1
1
1
1
1
1
1
1
1
1
1
1
1
1
1
1
1
1
1
1
1
1
1
1
1
1
1
1
1
1
1
1
1
1
1
1
1
1
1
1
1
1
1
1
1
1
1
1
1
1
1
1
1
1
1
1
1
1
1
1
1
1
1
1
1
1
1
1
1
1
1
1
1
1
1
1
1
1
1
1
1
1
1
1
1
1
1
1
1
1
1
1
1
1
1
1
1
1
1
1
1
1
1
1
1
1
1
1
1
1
1
1
1
1
1
1
1
1
1
1
1
1
1
1
1
1
1
1
1
1
1
1
1
1
1
1
1
1
1
1
1
1
1
1
1
1
1
1
1
1
1
1
1
1
1
1
1
1
1
1
1
1
1
1
1
1
1
1
1
1
1
1
1
1
1
1
1
1
1
1
1
1
1
1
1
1
1
1
1
1
1
1
1
1
1
1
1
1
1.18656
0.198387
0.0613388
0.0200239
0.0156351
0.0351902
0.0892739
0.183365
0.291765
0.345566
0.35619
0.39139
0.466628
0.544111
0.609987
0.68514
0.784161
0.886884
0.953031
0.962871
0.964413
0.96053
0.979506
1.02303
1.05957
1.06863
1.08895
1.09819
1.09793
1.11504
1.15832
1.20704
1.22985
1.24023
1.22369
1.20526
1.20661
1.21383
1.22835
1.24804
1.26045
1.26205
1.26703
1.28515
1.31485
1.33353
1.3429
1.33825
1.31704
1.31041
1.30981
1.31689
1.32691
1.84894
4.26645
5.27391
5.49021
5.62888
5.70408
5.75925
5.79091
5.8316
5.86505
5.87178
5.85263
5.82522
5.80412
5.79622
5.79509
5.78783
5.76449
5.73392
5.71483
5.71725
5.73358
5.74327
5.72922
5.68285
5.61676
5.55154
5.50046
5.46873
5.45097
5.43959
5.42828
5.40929
5.37552
5.32524
5.26641
5.21317
5.17729
5.16362
5.16911
5.17971
5.1806
5.15003
5.08524
5.00327
4.91353
4.84322
4.79464
4.77435
4.76196
4.7357
4.69637
4.6492
4.59927
4.55288
4.51264
4.47752
4.44631
4.41687
4.38798
4.35862
4.32934
4.30298
4.27985
4.25738
4.23172
4.1951
4.14992
4.10144
4.05556
4.01682
3.98852
3.96751
3.94652
3.92361
3.89948
3.87323
3.84275
3.80973
3.77568
3.74096
3.70622
3.67114
3.63558
3.60099
3.57036
3.54734
3.53179
3.52038
3.50813
3.48758
3.45588
3.41591
3.3705
3.32588
3.28785
3.26148
3.25091
3.24723
3.23881
3.22122
3.19451
3.16139
3.12513
3.0893
3.05695
3.03527
3.02774
3.02536
3.02005
3.00873
2.98949
2.96027
2.91468
2.86351
2.81995
2.78696
2.76972
2.77463
2.78168
2.7778
2.7646
2.73809
2.68875
2.63144
2.58268
2.54771
2.52364
2.51323
2.51236
2.50702
2.4958
2.48142
2.46444
2.43906
2.4089
2.3812
2.36147
2.33695
2.0567
0.963254
0.531786
0.328388
0.202154
0.138366
0.123066
0.142169
0.175721
0.202141
0.223709
0.255968
0.310829
0.383284
0.441054
0.492248
0.554005
0.639685
0.752369
0.803028
0.848042
0.897147
0.938028
0.976499
1.00359
1.0372
1.07116
1.10004
1.13035
1.14834
1.15299
1.14623
1.1434
1.15645
1.1803
1.20664
1.22515
1.23608
1.23822
1.24266
1.25507
1.28098
1.30273
1.31412
1.32012
1.32172
1.30968
1.29067
1.28596
1.29526
1.32069
1.34538
1.35437
1.47508
3.49861
5.39818
5.63045
5.68907
5.74429
5.76404
5.77962
5.80659
5.84255
5.85932
5.84455
5.81417
5.78573
5.76909
5.7683
5.77848
5.78542
5.77532
5.75351
5.73376
5.72037
5.70615
5.68268
5.65027
5.61105
5.56609
5.52363
5.49097
5.46717
5.44462
5.4158
5.38019
5.34113
5.30066
5.26055
5.22503
5.20018
5.1836
5.16301
5.13249
5.09556
5.05516
5.01639
4.9737
4.9277
4.88617
4.84756
4.80576
4.75791
4.70723
4.66235
4.62592
4.59616
4.56508
4.52914
4.49028
4.45094
4.41327
4.38083
4.35416
4.3303
4.30548
4.27854
4.24901
4.21607
4.18073
4.1439
4.10528
4.06852
4.03313
4.0004
3.96991
3.94103
3.91284
3.88669
3.86441
3.84055
3.80938
3.77651
3.74212
3.70425
3.66672
3.63417
3.60462
3.57933
3.559
3.53948
3.51696
3.48966
3.45893
3.42508
3.39013
3.35755
3.32912
3.30591
3.28792
3.27265
3.2564
3.23447
3.20806
3.17835
3.14717
3.11775
3.09289
3.07316
3.06011
3.05244
3.04555
3.03096
3.00551
2.97223
2.93048
2.88817
2.85389
2.82944
2.81127
2.8011
2.79763
2.79493
2.77971
2.75187
2.70912
2.65938
2.6196
2.59286
2.57165
2.55096
2.53311
2.51872
2.50769
2.49795
2.48206
2.46098
2.4341
2.40874
2.38847
2.37367
2.3498
2.90234
1.76964
1.07142
0.750607
0.592161
0.492507
0.368268
0.281489
0.285886
0.316677
0.316017
0.297669
0.298795
0.314716
0.336096
0.359521
0.390597
0.439243
0.52504
0.62491
0.701961
0.779155
0.834239
0.884468
0.949458
1.0068
1.05944
1.11759
1.15339
1.15686
1.14836
1.13771
1.14031
1.16229
1.21047
1.24905
1.25493
1.25058
1.24503
1.25492
1.2833
1.30576
1.30836
1.29978
1.28296
1.27316
1.27165
1.28583
1.31918
1.35248
1.36596
1.36884
1.36201
1.37157
2.34404
5.40164
6.17496
5.92837
5.85691
5.81069
5.79101
5.80974
5.8345
5.85553
5.85153
5.81976
5.77865
5.74289
5.7263
5.73765
5.77162
5.80272
5.80488
5.77296
5.72588
5.67704
5.62981
5.59331
5.57369
5.56075
5.54306
5.51816
5.487
5.45029
5.40653
5.35716
5.3106
5.27514
5.2532
5.23813
5.22256
5.19863
5.15377
5.09478
5.03165
4.97869
4.94697
4.93924
4.94507
4.93819
4.90146
4.8428
4.76854
4.70279
4.65239
4.61721
4.60526
4.5891
4.55244
4.51078
4.46282
4.41794
4.38286
4.35431
4.33089
4.30438
4.2722
4.23659
4.2003
4.16632
4.13623
4.10977
4.08282
4.05111
4.01271
3.97161
3.93765
3.90733
3.88097
3.8587
3.83804
3.81011
3.77726
3.74119
3.70148
3.66427
3.63602
3.61372
3.59575
3.57457
3.54839
3.5133
3.46918
3.42828
3.39704
3.37352
3.35459
3.34214
3.33239
3.31539
3.29124
3.25779
3.21835
3.18441
3.15808
3.13717
3.1201
3.10926
3.1021
3.08811
3.06572
3.03046
2.98534
2.94449
2.91292
2.89036
2.87732
2.87726
2.88277
2.87946
2.86269
2.82649
2.77015
2.7154
2.67327
2.64529
2.62789
2.61663
2.61102
2.60104
2.5848
2.56197
2.5332
2.50647
2.48339
2.4605
2.438
2.41881
2.40382
2.39101
2.37909
2.35174
3.45111
2.46581
1.81344
1.24762
0.928841
0.863187
0.759527
0.580544
0.476764
0.47966
0.473814
0.434392
0.395727
0.398098
0.410598
0.409852
0.408846
0.41402
0.428695
0.452683
0.487379
0.548066
0.631541
0.715963
0.829999
0.920087
0.977029
1.03837
1.08016
1.10005
1.09906
1.09882
1.12162
1.16705
1.21838
1.24079
1.24428
1.2417
1.24256
1.25129
1.2662
1.28566
1.28688
1.27948
1.26707
1.26396
1.27683
1.30821
1.33441
1.34386
1.34702
1.3474
1.33756
1.32212
1.56877
5.07963
6.74855
6.25976
6.03959
5.95444
5.8661
5.82465
5.8202
5.83369
5.85345
5.84074
5.79954
5.7544
5.71908
5.70646
5.73034
5.78076
5.82105
5.80388
5.74034
5.66259
5.60092
5.55741
5.54123
5.55579
5.56813
5.54596
5.49491
5.43684
5.37908
5.33063
5.29347
5.27346
5.26787
5.25712
5.22549
5.17666
5.11314
5.04317
4.98591
4.94465
4.92833
4.94512
4.96058
4.94437
4.9025
4.84486
4.76807
4.70209
4.65677
4.62798
4.61755
4.5933
4.5549
4.51578
4.47186
4.42704
4.39073
4.36016
4.32907
4.29466
4.25649
4.2208
4.18967
4.16148
4.13801
4.11579
4.08838
4.05697
4.02018
3.97573
3.93401
3.90456
3.8774
3.85113
3.82576
3.79916
3.76765
3.7347
3.70274
3.67387
3.6494
3.62754
3.60458
3.5779
3.54228
3.49547
3.44613
3.40921
3.38672
3.37024
3.36028
3.35569
3.34345
3.32441
3.29779
3.25706
3.21043
3.1753
3.15526
3.14116
3.13182
3.12573
3.11268
3.09242
3.05549
2.99871
2.94858
2.91795
2.89853
2.8867
2.89417
2.91695
2.92099
2.90715
2.87649
2.80979
2.72475
2.66982
2.6439
2.62949
2.61973
2.62091
2.62779
2.62101
2.60551
2.58474
2.55024
2.5054
2.46963
2.44481
2.42766
2.41541
2.40515
2.39474
2.38304
2.35225
3.91409
3.01247
2.41047
1.85069
1.41313
1.21037
1.10188
0.961231
0.769426
0.657942
0.649083
0.619321
0.552198
0.542947
0.552403
0.542517
0.502671
0.475005
0.475806
0.477524
0.474387
0.4772
0.491894
0.517803
0.574418
0.659208
0.737848
0.830367
0.91137
0.98329
1.0315
1.05818
1.09614
1.14537
1.19499
1.21405
1.21904
1.21811
1.22017
1.22769
1.24008
1.2614
1.27823
1.28171
1.28318
1.29245
1.30604
1.31485
1.31953
1.3184
1.31311
1.3071
1.30838
1.32476
1.42438
4.39295
7.16968
6.7217
6.21944
6.04003
5.91269
5.83273
5.79685
5.78611
5.82198
5.86109
5.83962
5.79785
5.74055
5.70425
5.70318
5.73709
5.7893
5.79046
5.7424
5.66685
5.58798
5.54368
5.52423
5.5458
5.56926
5.53401
5.47998
5.40991
5.33992
5.30014
5.2767
5.27667
5.27681
5.24739
5.20013
5.13521
5.05982
4.99716
4.95895
4.93819
4.94406
4.96125
4.95255
4.91788
4.87287
4.81652
4.75645
4.7088
4.67308
4.6488
4.628
4.59539
4.56113
4.52637
4.48755
4.44536
4.40357
4.36267
4.32197
4.28134
4.24233
4.21017
4.184
4.15987
4.13724
4.11175
4.08428
4.05558
4.02344
3.9842
3.93744
3.89581
3.86517
3.8364
3.8087
3.78398
3.7629
3.74001
3.71644
3.69232
3.66531
3.63455
3.59991
3.56131
3.5196
3.47765
3.43974
3.41137
3.39286
3.38013
3.37331
3.36306
3.34516
3.32181
3.2882
3.24829
3.21165
3.18367
3.16496
3.15205
3.14101
3.12616
3.10586
3.07174
3.01972
2.96943
2.93823
2.92035
2.90853
2.90996
2.93043
2.93714
2.9218
2.89335
2.8458
2.77377
2.7051
2.66384
2.64503
2.63418
2.62822
2.63256
2.63716
2.62633
2.61022
2.58859
2.55101
2.50101
2.46189
2.43961
2.42667
2.4163
2.40625
2.39561
2.38284
2.34973
4.27863
3.49426
2.90066
2.36595
1.94563
1.6149
1.39707
1.28154
1.14121
0.931747
0.814005
0.791279
0.735799
0.680574
0.679983
0.676275
0.63843
0.578993
0.569763
0.567584
0.547936
0.525163
0.52668
0.538727
0.542326
0.547263
0.561667
0.595352
0.651245
0.720136
0.816442
0.915026
1.00811
1.09106
1.13778
1.17656
1.18921
1.18753
1.18606
1.19277
1.20527
1.23289
1.2676
1.29273
1.30617
1.31142
1.31192
1.30908
1.29952
1.28489
1.27792
1.28281
1.31424
1.46071
1.8162
3.48008
6.90722
7.07024
6.42132
6.1008
5.95443
5.87086
5.80775
5.7665
5.77964
5.84206
5.85345
5.8178
5.76467
5.70026
5.68205
5.69314
5.72925
5.75827
5.73816
5.69174
5.61891
5.56032
5.53077
5.52562
5.53018
5.50257
5.45888
5.40589
5.34775
5.30961
5.28922
5.27974
5.25436
5.21186
5.15698
5.09595
5.04674
5.01619
5.00053
5.00213
4.99767
4.96838
4.92639
4.87169
4.81874
4.77907
4.74838
4.72421
4.70641
4.68236
4.64756
4.60868
4.5676
4.52524
4.48334
4.44292
4.403
4.36258
4.32188
4.28239
4.24472
4.2093
4.17912
4.15308
4.12699
4.10066
4.07502
4.0495
4.02191
3.98776
3.94019
3.88649
3.84895
3.82223
3.79752
3.7781
3.76749
3.75455
3.73277
3.70696
3.67227
3.62374
3.57357
3.53262
3.49948
3.47267
3.45163
3.43349
3.41716
3.40114
3.38298
3.36084
3.33234
3.2992
3.26603
3.23799
3.21651
3.19807
3.17944
3.16015
3.14013
3.11735
3.08575
3.04032
2.99221
2.96129
2.9443
2.93187
2.92979
2.94258
2.94418
2.92632
2.89765
2.85525
2.80137
2.75219
2.71607
2.68736
2.66273
2.6472
2.63843
2.63528
2.63389
2.62257
2.60389
2.57869
2.54468
2.50793
2.47364
2.44517
2.4258
2.41206
2.40049
2.38858
2.37632
2.34593
4.57699
3.89675
3.32044
2.76957
2.39059
2.07425
1.72948
1.53068
1.42487
1.24586
1.03288
0.977004
0.947529
0.876401
0.814063
0.808099
0.785658
0.720764
0.667443
0.663256
0.655625
0.623318
0.606918
0.603915
0.600979
0.590854
0.580213
0.572333
0.57063
0.576539
0.600016
0.659229
0.746186
0.860947
0.951324
1.02172
1.09136
1.13887
1.17039
1.17391
1.17475
1.19862
1.24107
1.28033
1.29804
1.30235
1.30303
1.29063
1.27148
1.26901
1.27498
1.3118
1.47459
1.97428
2.46124
2.83444
5.12605
6.68191
6.53438
6.29143
6.09316
5.96272
5.86634
5.80691
5.7762
5.79228
5.80968
5.78875
5.76014
5.71514
5.6786
5.67696
5.68867
5.71435
5.72451
5.70075
5.6543
5.58609
5.53157
5.49789
5.47712
5.46577
5.44223
5.41207
5.37727
5.33247
5.28737
5.24898
5.20701
5.16023
5.11642
5.08576
5.06646
5.06341
5.0644
5.04299
5.00171
4.93818
4.86377
4.80578
4.76971
4.74533
4.73684
4.74196
4.73377
4.70447
4.66047
4.60153
4.54235
4.49463
4.45809
4.42892
4.4023
4.37428
4.34304
4.30613
4.2612
4.2118
4.16892
4.13627
4.10915
4.08428
4.06039
4.03703
4.01249
3.98149
3.9366
3.88332
3.84273
3.8161
3.79395
3.77834
3.77025
3.75619
3.7329
3.70408
3.65857
3.60029
3.55017
3.51687
3.49605
3.48178
3.47262
3.46205
3.44542
3.42162
3.38692
3.34492
3.30558
3.27365
3.25084
3.23529
3.22167
3.20685
3.18862
3.16489
3.13415
3.09724
3.05584
3.01462
2.9894
2.97533
2.96549
2.96486
2.97034
2.96005
2.9372
2.90059
2.85056
2.79918
2.76208
2.74304
2.73157
2.71803
2.70057
2.67854
2.65483
2.63496
2.61678
2.5956
2.57352
2.55238
2.53361
2.51486
2.49279
2.46485
2.43524
2.41334
2.40019
2.3885
2.3747
2.34397
4.80205
4.19467
3.65816
3.1262
2.74018
2.43514
2.09746
1.80634
1.65831
1.50861
1.30583
1.16489
1.14196
1.09925
1.00923
0.941696
0.913852
0.864228
0.783923
0.753547
0.752435
0.733565
0.689465
0.679671
0.683813
0.675144
0.650798
0.629891
0.608113
0.594772
0.597403
0.603464
0.61874
0.649248
0.698099
0.748656
0.821328
0.910818
1.00019
1.10176
1.14579
1.17673
1.2168
1.25701
1.27019
1.27223
1.26625
1.25269
1.24937
1.26603
1.33027
1.52555
1.98862
2.51466
2.86045
2.86096
3.32708
5.35175
6.36197
6.47312
6.316
6.11518
5.95427
5.8335
5.76804
5.7352
5.744
5.76513
5.76273
5.75111
5.71469
5.67298
5.65847
5.65839
5.67888
5.68612
5.65849
5.611
5.54692
5.49317
5.46099
5.44027
5.42859
5.40803
5.37816
5.33657
5.27788
5.21771
5.17141
5.13807
5.11435
5.10372
5.10411
5.09932
5.07404
5.03465
4.97383
4.89423
4.82457
4.7843
4.76039
4.75273
4.76387
4.76444
4.73893
4.69907
4.63395
4.55993
4.50486
4.46909
4.44312
4.42667
4.41647
4.40032
4.37509
4.33577
4.27579
4.2114
4.15987
4.12159
4.09185
4.06718
4.04465
4.02222
3.99866
3.96562
3.92411
3.88418
3.85149
3.82445
3.80255
3.78483
3.76648
3.74433
3.71832
3.68149
3.63353
3.58537
3.55102
3.53032
3.51763
3.51188
3.50337
3.48634
3.45883
3.41317
3.36104
3.31834
3.28583
3.26318
3.2473
3.23449
3.22175
3.20694
3.18894
3.16258
3.12148
3.07131
3.02841
3.00627
2.99395
2.98823
2.99409
3.00025
2.98678
2.96045
2.91843
2.86072
2.80285
2.76382
2.74612
2.73982
2.73745
2.73255
2.72211
2.70493
2.67539
2.6352
2.59985
2.57425
2.55299
2.53534
2.52215
2.51016
2.49736
2.48134
2.45677
2.42501
2.3976
2.37373
2.35467
2.3301
4.99657
4.44431
3.92737
3.43998
3.06079
2.72451
2.39266
2.11801
1.9022
1.73447
1.58625
1.41243
1.31717
1.28269
1.22123
1.11171
1.03088
0.989476
0.9283
0.870616
0.862992
0.854776
0.813475
0.772008
0.76633
0.754576
0.722603
0.690805
0.67375
0.659425
0.645499
0.642809
0.644967
0.650226
0.647885
0.641715
0.647104
0.673099
0.72876
0.836113
0.961504
1.07197
1.17187
1.21076
1.22314
1.22364
1.21265
1.2067
1.2192
1.3082
1.59749
2.02318
2.56953
2.7699
2.89066
2.87346
2.84994
3.47818
5.291
6.26897
6.43926
6.27345
6.0647
5.88392
5.77031
5.72086
5.71209
5.75092
5.77923
5.77887
5.7603
5.70146
5.64595
5.62903
5.63231
5.64912
5.64159
5.60801
5.56245
5.5021
5.45183
5.42014
5.39861
5.38253
5.35731
5.3244
5.27862
5.22386
5.17949
5.15069
5.13156
5.12024
5.10394
5.07535
5.03913
4.99385
4.93929
4.88036
4.83231
4.80019
4.78145
4.77634
4.76743
4.74079
4.70378
4.65183
4.5894
4.53239
4.49382
4.46716
4.45111
4.44661
4.43785
4.41621
4.38469
4.33123
4.2667
4.21177
4.16735
4.12723
4.09058
4.05965
4.0346
4.01187
3.98075
3.94028
3.90757
3.88565
3.86532
3.84357
3.81786
3.78841
3.75699
3.72463
3.68696
3.64556
3.60972
3.58684
3.57084
3.56044
3.55098
3.53557
3.51487
3.48339
3.4371
3.3827
3.33474
3.3023
3.28149
3.26519
3.2509
3.23622
3.22024
3.203
3.18102
3.14577
3.10108
3.05838
3.03461
3.02128
3.01389
3.01581
3.01902
3.00602
2.98195
2.94342
2.88639
2.82081
2.77323
2.75183
2.74346
2.74078
2.74234
2.73813
2.72831
2.71481
2.68878
2.63885
2.58566
2.55399
2.53746
2.52626
2.51838
2.51315
2.50399
2.49215
2.47488
2.44407
2.40081
2.36318
2.34352
2.32292
5.14663
4.64572
4.14762
3.7138
3.34558
2.98903
2.64741
2.40952
2.18184
1.96004
1.82473
1.69133
1.52378
1.43552
1.39214
1.30878
1.16726
1.09554
1.05894
0.999206
0.969021
0.96588
0.944311
0.886379
0.849693
0.829767
0.7972
0.755809
0.742935
0.7382
0.719677
0.706954
0.703021
0.692648
0.67661
0.657489
0.647851
0.647389
0.652662
0.675405
0.728818
0.807571
0.901391
0.982015
1.05078
1.11569
1.15187
1.16663
1.23385
1.597
2.12974
2.5492
2.825
2.8152
2.80081
2.82723
2.83685
2.90859
3.67402
5.33667
6.25645
6.28794
6.1247
5.96174
5.83369
5.76118
5.73762
5.74589
5.77258
5.78424
5.78028
5.74722
5.67968
5.63089
5.61411
5.60426
5.6013
5.5884
5.5543
5.5097
5.44971
5.39966
5.36725
5.34293
5.32696
5.30336
5.27353
5.24052
5.20543
5.1708
5.13773
5.10445
5.07032
5.03456
4.99652
4.95521
4.91699
4.88759
4.86357
4.84057
4.81225
4.77839
4.7433
4.70388
4.65771
4.60505
4.559
4.52904
4.50566
4.49002
4.47803
4.45871
4.43331
4.39941
4.35073
4.29727
4.25267
4.22025
4.19037
4.15643
4.11588
4.0704
4.02498
3.97997
3.94201
3.91549
3.89597
3.88315
3.87333
3.85516
3.83123
3.79789
3.7512
3.70125
3.65837
3.62885
3.61123
3.60096
3.5965
3.58631
3.56804
3.54014
3.4972
3.44783
3.39942
3.35529
3.32456
3.3058
3.29043
3.27623
3.2603
3.24136
3.21889
3.18969
3.15246
3.11447
3.08306
3.06666
3.05648
3.05102
3.04558
3.03438
3.01784
2.98875
2.94966
2.90176
2.84964
2.80571
2.7792
2.76281
2.74997
2.7414
2.73561
2.73352
2.72862
2.71368