/*--------------------------------*- C++ -*----------------------------------*\
  =========                 |
  \\      /  F ield         | OpenFOAM: The Open Source CFD Toolbox
   \\    /   O peration     | Website:  https://openfoam.org
    \\  /    A nd           | Version:  10
     \\/     M anipulation  |
\*---------------------------------------------------------------------------*/
FoamFile
{
    format      ascii;
    class       volScalarField;
    location    "4";
    object      T;
}
// * * * * * * * * * * * * * * * * * * * * * * * * * * * * * * * * * * * * * //

dimensions      [0 0 0 1 0 0 0];

internalField   nonuniform List<scalar> 
16128
(
1
1
1
1
1
1
1
1
1
1
1
1
1
1
1
1
1
1
1
1
1
1
1
1
2.02668
2.67979
2.70373
2.70974
2.71828
2.7264
2.73496
2.74368
2.75209
2.75945
2.76527
2.76953
2.77291
2.77639
2.78087
2.78646
2.79214
2.79649
2.79928
2.80142
2.8041
2.80716
2.80966
2.81154
1
1
1
1
1
1
1
1
1
1
1
1
1
1
1
1
1
1
1
1
1
1
1
1
2.016
2.67733
2.70347
2.70952
2.71797
2.72607
2.73461
2.74332
2.75171
2.75907
2.76484
2.76902
2.77232
2.77581
2.78032
2.78586
2.79137
2.79558
2.79839
2.80063
2.8033
2.8062
2.80854
2.81048
1
1
1
1
1
1
1
1
1
1
1
1
1
1
1
1
1
1
1
1
1
1
1
1
1.9888
2.6737
2.70236
2.7084
2.71676
2.7249
2.73351
2.74234
2.75086
2.75832
2.76407
2.76814
2.77138
2.77491
2.77946
2.78491
2.79022
2.79432
2.7972
2.79945
2.80187
2.80449
2.80659
2.80883
1
1
1
1
1
1
1
1
1
1
1
1
1
1
1
1
1
1
1
1
1
1
1
1
1.94763
2.66715
2.70068
2.70645
2.71456
2.72267
2.7314
2.74047
2.7493
2.757
2.76279
2.76676
2.76987
2.77333
2.77785
2.78323
2.78844
2.7925
2.79543
2.79765
2.79984
2.80218
2.80397
2.80697
1
1
1
1
1
1
1
1
1
1
1
1
1
1
1
1
1
1
1
1
1
1
1
1
1.89201
2.6568
2.69878
2.70358
2.71111
2.7191
2.72804
2.73755
2.74693
2.75511
2.76113
2.76501
2.76789
2.77112
2.7755
2.78081
2.78603
2.79012
2.7931
2.79553
2.79799
2.80008
2.79911
2.80415
1
1
1
1
1
1
1
1
1
1
1
1
1
1
1
1
1
1
1
1
1
1
1
1
1.81853
2.64009
2.69744
2.70022
2.70662
2.71423
2.72334
2.73343
2.74359
2.75253
2.759
2.76292
2.76554
2.76841
2.7725
2.77774
2.78302
2.78715
2.79005
2.79239
2.79467
2.79672
2.79519
2.79994
1
1
1
1
1
1
1
1
1
1
1
1
1
1
1
1
1
1
1
1
1
1
1
1
1.72572
2.61413
2.69627
2.6967
2.70158
2.70838
2.71734
2.72789
2.73892
2.74879
2.75594
2.76004
2.76241
2.76483
2.76853
2.77363
2.77902
2.78328
2.78618
2.78845
2.79057
2.79273
2.79113
2.7954
1
1
1
1
1
1
1
1
1
1
1
1
1
1
1
1
1
1
1
1
1
1
1
1
1.61287
2.57783
2.69447
2.69358
2.69756
2.70308
2.71112
2.72144
2.73292
2.74362
2.75161
2.7561
2.75836
2.76038
2.76363
2.76853
2.77404
2.77849
2.78133
2.78327
2.7849
2.78763
2.78859
2.78786
1
1
1
1
1
1
1
1
1
1
1
1
1
1
1
1
1
1
1
1
1
1
1
1
1.47261
2.52413
2.69027
2.68956
2.69396
2.69849
2.70524
2.71459
2.72591
2.7372
2.74614
2.75133
2.75369
2.75534
2.75805
2.76254
2.76796
2.7725
2.77537
2.77735
2.77897
2.78086
2.78071
2.78242
1
1
1
1
1
1
1
1
1
1
1
1
1
1
1
1
1
1
1
1
1
1
1
1
1.30041
2.44902
2.68303
2.68287
2.68968
2.69393
2.6995
2.70734
2.71776
2.72916
2.73898
2.74518
2.74802
2.74951
2.75174
2.75571
2.76088
2.76545
2.76848
2.77061
2.77234
2.77377
2.77144
2.77401
1
1
1
1
1
1
1
1
1
1
1
1
1
1
1
1
1
1
1
1
1
1
1
1
1.11136
2.3653
2.67829
2.67601
2.68309
2.6878
2.69313
2.69987
2.70892
2.71965
2.72989
2.73719
2.7409
2.74259
2.74451
2.74795
2.75268
2.75706
2.75992
2.76174
2.76297
2.76378
2.76087
2.7648
1
1
1
1
1
1
1
1
1
1
1
1
1
1
1
1
1
1
1
1
1
1
1
1
1.00434
2.28478
2.67075
2.67074
2.6771
2.68265
2.68796
2.69342
2.70067
2.70998
2.71971
2.7276
2.73228
2.73445
2.7362
2.73912
2.74329
2.74736
2.75002
2.75153
2.75196
2.75198
2.7481
2.75128
1
1
1
1
1
1
1
1
1
1
1
1
1
1
1
1
1
1
1
1
1
1
1
1
1.00001
2.16704
2.67064
2.67282
2.67739
2.68215
2.68641
2.69053
2.6953
2.70146
2.70926
2.71673
2.72198
2.72473
2.72652
2.72905
2.73256
2.73602
2.73786
2.73818
2.73702
2.73571
2.73051
2.73474
1
1
1
1
1
1
1
1
1
1
1
1
1
1
1
1
1
1
1
1
1
1
1
1
1
2.00496
2.64688
2.67081
2.6768
2.68192
2.68505
2.68751
2.69017
2.69421
2.69954
2.70545
2.71041
2.71343
2.7154
2.71755
2.71993
2.72239
2.72303
2.72248
2.72031
2.71751
2.70884
2.70614
1
1
1
1
1
1
1
1
1
1
1
1
1
1
1
1
1
1
1
1
1
1
1
1
1
1.79911
2.586
2.65927
2.67221
2.68018
2.68412
2.68613
2.68754
2.6892
2.69188
2.69557
2.69912
2.70161
2.70327
2.7045
2.70549
2.70664
2.70588
2.70354
2.69755
2.68806
2.67252
2.66635
1
1
1
1
1
1
1
1
1
1
1
1
1
1
1
1
1
1
1
1
1
1
1
1
1
1.51459
2.46968
2.64157
2.65885
2.6697
2.67671
2.68097
2.68331
2.68461
2.68583
2.68725
2.68874
2.68992
2.69056
2.69002
2.68931
2.68846
2.68549
2.68007
2.66967
2.65718
2.63854
2.64226
1
1
1
1
1
1
1
1
1
1
1
1
1
1
1
1
1
1
1
1
1
1
1
1
1
1.1633
2.35177
2.63332
2.63313
2.64517
2.659
2.6688
2.67469
2.67765
2.67904
2.6796
2.67959
2.67923
2.6779
2.67559
2.6724
2.66876
2.66282
2.65431
2.63745
2.61145
2.54587
2.40117
1
1
1
1
1
1
1
1
1
1
1
1
1
1
1
1
1
1
1
1
1
1
1
1
1
1.00715
2.25042
2.61715
2.6163
2.62565
2.6379
2.65014
2.65974
2.66596
2.66934
2.67057
2.66995
2.66837
2.6654
2.66126
2.65521
2.64825
2.63837
2.62449
2.5996
2.55261
2.47698
2.27343
1
1
1
1
1
1
1
1
1
1
1
1
1
1
1
1
1
1
1
1
1
1
1
1
1
1
2.06308
2.60296
2.61183
2.61737
2.62359
2.6322
2.64186
2.64971
2.65551
2.65866
2.65847
2.65683
2.65297
2.64728
2.63855
2.628
2.6136
2.5937
2.5625
2.50955
2.41382
2.21226
1
1
1
1
1
1
1
1
1
1
1
1
1
1
1
1
1
1
1
1
1
1
1
1
1
0.999998
1.78054
2.54727
2.6118
2.61426
2.61708
2.62062
2.62635
2.63244
2.63853
2.64318
2.64437
2.64331
2.63943
2.63282
2.62231
2.60857
2.58977
2.56453
2.52742
2.4727
2.36669
2.19884
1
1
1
1
1
1
1
1
1
1
1
1
1
1
1
1
1
1
1
1
1
1
1
1
1
0.999999
1.39084
2.41604
2.60517
2.60644
2.61005
2.61267
2.61556
2.61843
2.62205
2.62587
2.62775
2.62725
2.62393
2.61733
2.60617
2.59023
2.56829
2.53883
2.4978
2.44018
2.33939
2.20804
1
1
1
1
1
1
1
1
1
1
1
1
1
1
1
1
1
1
1
1
1
1
1
1
1
1
1.04392
2.26699
2.5999
2.59749
2.59999
2.60393
2.60593
2.60657
2.60733
2.60878
2.60973
2.60925
2.60634
2.60019
2.58924
2.57242
2.5489
2.51696
2.4743
2.41406
2.32574
2.22068
1
1
1
1
1
1
1
1
1
1
1
1
1
1
1
1
1
1
1
1
1
1
1
1
1
1
1.00036
2.06632
2.55763
2.57825
2.58808
2.59378
2.5957
2.59567
2.59475
2.59377
2.59251
2.5907
2.58723
2.58117
2.57077
2.55444
2.53095
2.49843
2.45594
2.39646
2.31929
2.23264
1
1
1
1
1
1
1
1
1
1
1
1
1
1
1
1
1
1
1
1
1
1
1
1
1
1
0.999997
1.69967
2.47706
2.56116
2.57346
2.58149
2.58534
2.58548
2.584
2.58141
2.57782
2.57371
2.56853
2.56157
2.5512
2.53571
2.51336
2.482
2.44109
2.38531
2.31748
2.24283
1
1
1
1
1
1
1
1
1
1
1
1
1
1
1
1
1
1
1
1
1
1
1
1
1
1
0.999999
1.20598
2.33612
2.56027
2.55825
2.56272
2.56905
2.57178
2.57116
2.56876
2.56424
2.5584
2.55119
2.5425
2.53135
2.51627
2.49541
2.46617
2.42772
2.37732
2.31817
2.252
1
1
1
1
1
1
1
1
1
1
1
1
1
1
1
1
1
1
1
1
1
1
1
1
1
1
1
1.01056
2.18037
2.53209
2.5347
2.54328
2.55005
2.55464
2.55604
2.5548
2.55084
2.54444
2.53587
2.52543
2.51279
2.49727
2.47734
2.45023
2.41469
2.37
2.31907
2.25943
1
1
1
1
1
1
1
1
1
1
1
1
1
1
1
1
1
1
1
1
1
1
1
1
1
1
1
0.999995
1.8305
2.48043
2.51848
2.52978
2.535
2.53881
2.5408
2.54003
2.5368
2.53072
2.52176
2.51035
2.49644
2.48002
2.45985
2.43422
2.40179
2.36253
2.31854
2.26543
1
1
1
1
1
1
1
1
1
1
1
1
1
1
1
1
1
1
1
1
1
1
1
1
1
1
1
0.999996
1.2992
2.35228
2.52252
2.51805
2.5187
2.52123
2.5231
2.52275
2.52049
2.5155
2.50729
2.49609
2.48168
2.46488
2.44374
2.41904
2.38921
2.35468
2.31562
2.26866
1
1
1
1
1
1
1
1
1
1
1
1
1
1
1
1
1
1
1
1
1
1
1
1
1
1
1
0.999999
1.02192
2.1845
2.49897
2.49869
2.50138
2.50433
2.50563
2.50525
2.50329
2.49915
2.49203
2.48181
2.4683
2.4511
2.42994
2.40594
2.3779
2.3469
2.31104
2.27049
1
1
1
1
1
1
1
1
1
1
1
1
1
1
1
1
1
1
1
1
1
1
1
1
1
1
1
1
1.00005
1.77497
2.4354
2.48754
2.48885
2.49105
2.49118
2.48984
2.48698
2.48256
2.47601
2.46665
2.45428
2.43786
2.41785
2.39465
2.36805
2.33918
2.3056
2.26962
1
1
1
1
1
1
1
1
1
1
1
1
1
1
1
1
1
1
1
1
1
1
1
1
1
1
1
1
1
1.1711
2.28886
2.49073
2.47968
2.47803
2.47658
2.4738
2.47019
2.46564
2.45944
2.45088
2.43945
2.42465
2.40647
2.38461
2.35974
2.33233
2.30113
2.26815
1
1
1
1
1
1
1
1
1
1
1
1
1
1
1
1
1
1
1
1
1
1
1
1
1
1
1
1
1
1.00684
2.08575
2.45229
2.4567
2.4636
2.46173
2.45848
2.45468
2.44991
2.44358
2.43532
2.42446
2.41087
2.39441
2.37441
2.35162
2.32568
2.29684
2.26597
1
1
1
1
1
1
1
1
1
1
1
1
1
1
1
1
1
1
1
1
1
1
1
1
1
1
1
1
1
0.999984
1.57633
2.35174
2.44764
2.45137
2.44929
2.44632
2.44237
2.43702
2.42993
2.42104
2.41009
2.39708
2.38175
2.36361
2.34286
2.31889
2.29252
2.26365
1
1
1
1
1
1
1
1
1
1
1
1
1
1
1
1
1
1
1
1
1
1
1
1
1
1
1
1
1
0.999995
1.08685
2.17859
2.44023
2.43432
2.43363
2.43221
2.42927
2.42415
2.41671
2.40738
2.39629
2.38363
2.36904
2.35226
2.3331
2.3112
2.28714
2.26064
1
1
1
1
1
1
1
1
1
1
1
1
1
1
1
1
1
1
1
1
1
1
1
1
1
1
1
1
1
0.999999
1.00149
1.79698
2.36755
2.41082
2.41457
2.41697
2.41581
2.41171
2.40463
2.39532
2.38419
2.37155
2.35718
2.34097
2.32295
2.30276
2.28069
2.25672
1
1
1
1
1
1
1
1
1
1
1
1
1
1
1
1
1
1
1
1
1
1
1
1
1
1
1
1
1
1
0.999998
1.18942
2.20466
2.40891
2.40174
2.40308
2.40179
2.39794
2.39165
2.38314
2.37261
2.36031
2.34609
2.33019
2.31289
2.2938
2.27326
2.25156
1
1
1
1
1
1
1
1
1
1
1
1
1
1
1
1
1
1
1
1
1
1
1
1
1
1
1
1
1
1
0.999999
1.00782
1.91585
2.36166
2.38007
2.38371
2.38319
2.3809
2.37651
2.36974
2.36063
2.34931
2.33574
2.32027
2.30356
2.28519
2.26561
2.24553
1
1
1
1
1
1
1
1
1
1
1
1
1
1
1
1
1
1
1
1
1
1
1
1
1
1
1
1
1
1
1
1.00001
1.28233
2.21114
2.37744
2.37092
2.36903
2.36603
2.36172
2.35567
2.34751
2.33732
2.32483
2.31021
2.29438
2.27694
2.25817
2.23923
1
1
1
1
1
1
1
1
1
1
1
1
1
1
1
1
1
1
1
1
1
1
1
1
1
1
1
1
1
1
1
1
1.01792
1.96884
2.3399
2.35543
2.35215
2.34899
2.34511
2.33978
2.33261
2.32355
2.31243
2.29925
2.28487
2.26885
2.25119
2.23319
1
1
1
1
1
1
1
1
1
1
1
1
1
1
1
1
1
1
1
1
1
1
1
1
1
1
1
1
1
1
1
1
1.00006
1.34223
2.19835
2.34839
2.33942
2.3359
2.33127
2.32563
2.31879
2.31051
2.30062
2.28887
2.27573
2.26095
2.24439
2.22724
1
1
1
1
1
1
1
1
1
1
1
1
1
1
1
1
1
1
1
1
1
1
1
1
1
1
1
1
1
1
1
1
1
1.02682
1.96992
2.31702
2.32513
2.32139
2.31672
2.31097
2.30409
2.29608
2.28695
2.27638
2.26454
2.25141
2.23652
2.22061
1
1
1
1
1
1
1
1
1
1
1
1
1
1
1
1
1
1
1
1
1
1
1
1
1
1
1
1
1
1
1
1
1
1.00015
1.35816
2.17357
2.31541
2.30806
2.30367
2.29772
2.29058
2.28265
2.27401
2.26445
2.25383
2.24215
2.2289
2.21418
1
1
1
1
1
1
1
1
1
1
1
1
1
1
1
1
1
1
1
1
1
1
1
1
1
1
1
1
1
1
1
1
1
1
1.0296
1.92576
2.28427
2.29686
2.29051
2.28425
2.2772
2.26967
2.26149
2.25256
2.24268
2.23177
2.2197
2.20633
1
1
1
1
1
1
1
1
1
1
1
1
1
1
1
1
1
1
1
1
1
1
1
1
1
1
1
1
1
1
1
1
1
1
1.00021
1.32395
2.13064
2.28518
2.27712
2.27218
2.26549
2.25824
2.25035
2.24171
2.2322
2.22173
2.21033
2.198
1
1
1
1
1
1
1
1
1
1
1
1
1
1
1
1
1
1
1
1
1
1
1
1
1
1
1
1
1
1
1
1
1
1
1
1.02365
1.82585
2.23683
2.26901
2.26082
2.25379
2.24708
2.23979
2.23149
2.22214
2.2119
2.20084
2.18894
1
1
1
1
1
1
1
1
1
1
1
1
1
1
1
1
1
1
1
1
1
1
1
1
1
1
1
1
1
1
1
1
1
1
1
1.00017
1.24431
2.06046
2.25477
2.24809
2.24434
2.2383
2.23079
2.22217
2.21267
2.20254
2.19182
2.18037
1
1
1
1
1
1
1
1
1
1
1
1
1
1
1
1
1
1
1
1
1
1
1
1
1
1
1
1
1
1
1
1
1
1
1
1
1.013
1.64285
2.16466
2.23724
2.23107
2.22574
2.21928
2.21167
2.20309
2.19357
2.18331
2.17245
1
1
1
1
1
1
1
1
1
1
1
1
1
1
1
1
1
1
1
1
1
1
1
1
1
1
1
1
1
1
1
1
1
1
1
1
1.00009
1.13353
1.96472
2.22496
2.21679
2.21184
2.20677
2.20102
2.19404
2.18549
2.1756
2.16506
1
1
1
1
1
1
1
1
1
1
1
1
1
1
1
1
1
1
1
1
1
1
1
1
1
1
1
1
1
1
1
1
1
1
1
1
1
1.00393
1.4556
2.09242
2.20212
2.19502
2.19177
2.18757
2.18194
2.17489
2.16628
2.15637
1
1
1
1
1
1
1
1
1
1
1
1
1
1
1
1
1
1
1
1
1
1
1
1
1
1
1
1
1
1
1
1
1
1
1
1
1
1.00002
1.05599
1.80797
2.16745
2.18923
2.18323
2.1773
2.17111
2.16445
2.15696
2.14821
1
1
1
1
1
1
1
1
1
1
1
1
1
1
1
1
1
1
1
1
1
1
1
1
1
1
1
1
1
1
1
1
1
1
1
1
1
1
1.00086
1.26106
1.99238
2.17582
2.16841
2.16303
2.15749
2.15149
2.14508
2.13788
1
1
1
1
1
1
1
1
1
1
1
1
1
1
1
1
1
1
1
1
1
1
1
1
1
1
1
1
1
1
1
1
1
1
1
1
1
1
1
1.01566
1.56272
2.08132
2.15797
2.15102
2.14575
2.14053
2.13461
2.128
1
1
1
1
1
1
1
1
1
1
1
1
1
1
1
1
1
1
1
1
1
1
1
1
1
1
1
1
1
1
1
1
1
1
1
1
1
1
1
1.00014
1.09889
1.83511
2.13103
2.14476
2.13796
2.13142
2.12478
2.11789
1
1
1
1
1
1
1
1
1
1
1
1
1
1
1
1
1
1
1
1
1
1
1
1
1
1
1
1
1
1
1
1
1
1
1
1
1
1
1
1
1.00241
1.31056
1.97065
2.12993
2.12554
2.11926
2.1132
2.10661
1
1
1
1
1
1
1
1
1
1
1
1
1
1
1
1
1
1
1
1
1
1
1
1
1
1
1
1
1
1
1
1
1
1
1
1
1
1
1
1
1.00001
1.02355
1.56723
2.04519
2.11709
2.10903
2.10231
2.09635
1
1
1
1
1
1
1
1
1
1
1
1
1
1
1
1
1
1
1
1
1
1
1
1
1
1
1
1
1
1
1
1
1
1
1
1
1
1
1
1
1
1.00027
1.10548
1.79395
2.07886
2.1058
2.09689
2.08864
1
1
1
1
1
1
1
1
1
1
1
1
1
1
1
1
1
1
1
1
1
1
1
1
1
1
1
1
1
1
1
1
1
1
1
1
1
1
1
1
1
1
1.00285
1.28177
1.91033
2.0888
2.08722
2.08007
1
1
1
1
1
1
1
1
1
1
1
1
1
1
1
1
1
1
1
1
1
1
1
1
1
1
1
1
1
1
1
1
1
1
1
1
1
1
1
1
1
1
1.00002
1.01949
1.48889
1.98595
2.0762
2.07118
1
1
1
1
1
1
1
1
1
1
1
1
1
1
1
1
1
1
1
1
1
1
1
1
1
1
1
1
1
1
1
1
1
1
1
1
1
1
1
1
1
1
1
1.00022
1.07542
1.68785
2.02157
2.0666
1
1
1
1
1
1
1
1
1
1
1
1
1
1
1
1
1
1
1
1
1
1
1
1
1
1
1
1
1
1
1
1
1
1
1
1
1
1
1
1
1
1
1
1
1.0017
1.1945
1.81623
2.04605
1
1
1
1
1
1
1
1
1
1
1
1
1
1
1
1
1
1
1
1
1
1
1
1
1
1
1
1
1
1
1
1
1
1
1
1
1
1
1
1
1
1
1
1
1.00001
1.00932
1.35352
1.91945
1
1
1
1
1
1
1
1
1
1
1
1
1
1
1
1
1
1
1
1
1
1
1
1
1
1
1
1
1
1
1
1
1
1
1
1
1
1
1
1
1
1
1
1
1
1.00008
1.0356
1.54416
1
1
1
1
1
1
1
1
1
1
1
1
1
1
1
1
1
1
1
1
1
1
1
1
1
1
1
1
1
1
1
1
1
1
1
1
1
1
1
1
1
1
1
1
1
1
1.00059
1.09812
1
1
1
1
1
1
1
1
1
1
1
1
1
1
1
1
1
1
1
1
1
1
1
1
1
1
1
1
1
1
1
1
1
1
1
1
1
1
1
1
1
1
1
1
1
1
1
1.00307
1
1
1
1
1
1
1
1
1
1
1
1
1
1
1
1
1
1
1
1
1
1
1
1
1
1
1
1
1
1
1
1
1
1
1
1
1
1
1
1
1
1
1
1
1
1
1
1.00004
1
1
1
1
1
1
1
1
1
1
1
1
1
1
1
1
1
1
1
1
1
1
1
1
1
1
1
1
1
1
1
1
1
1
1
1
1
1
1
1
1
1
1
1
1
1
1
1
1
1
1
1
1
1
1
1
1
1
1
1
1
1
1
1
1
1
1
1
1
1
1
1
1
1
1
1
1
1
1
1
1
1
1
1
1
1
1
1
1
1
1
1
1
1
1
1
1
1
1
1
1
1
1
1
1
1
1
1
1
1
1
1
1
1
1
1
1
1
1
1
1
1
1
1
1
1
1
1
1
1
1
1
1
1
1
1
1
1
1
1
1
1
1
1
1
1
1
1
1
1
1
1
1
1
1
1
1
1
1
1
1
1
1
1
1
1
1
1
1
1
1
1
1
1
1
1
1
1
1
1
1
1
1
1
1
1
1
1
1
1
1
1
1
1
1
1
1
1
1
1
1
1
1
1
1
1
1
1
1
1
1
1
1
1
1
1
1
1
1
1
1
1
1
1
1
1
1
1
1
1
1
1
1
1
1
1
1
1
1
1
1
1
1
1
1
1
1
1
1
1
1
1
1
1
1
1
1
1
1
1
1
1
1
1
1
1
1
1
1
1
1
1
1
1
1
1
1
1
1
1
1
1
1
1
1
1
1
1
1
1
1
1
1
1
1
1
1
1
1
1
1
1
1
1
1
1
1
1
1
1
1
1
1
1
1
1
1
1
1
1
1
1
1
1
1
1
1
1
1
1
1
1
1
1
1
1
1
1
1
1
1
1
1
1
1
1
1
1
1
1
1
1
1
1
1
1
1
1
1
1
1
1
1
1
1
1
1
1
1
1
1
1
1
1
1
1
1
1
1
1
1
1
1
1
1
1
1
1
1
1
1
1
1
1
1
1
1
1
1
1
1
1
1
1
1
1
1
1
1
1
1
1
1
1
1
1
1
1
1
1
1
1
1
1
1
1
1
1
1
1
1
1
1
1
1
1
1
1
1
1
1
1
1
1
1
1
1
1
1
1
1
1
1
1
1
1
1
1
1
1
1
1
1
1
1
1
1
1
1
1
1
1
1
1
1
1
1
1
1
1
1
1
1
1
1
1
1
1
1
1
1
1
1
1
1
1
1
1
1
1
1
1
1
1
1
1
1
1
1
1
1
1
1
1
1
1
1
1
1
1
1
1
1
1
1
1
1
1
1
1
1
1
1
1
1
1
1
1
1
1
1
1
1
1
1
1
1
1
1
1
1
1
1
1
1
1
1
1
1
1
1
1
1
1
1
1
1
1
1
1
1
1
1
1
1
1
1
1
1
1
1
1
1
1
1
1
1
1
1
1
1
1
1
1
1
1
1
1
1
1
1
1
1
1
1
1
1
1
1
1
1
1
1
1
1
1
1
1
1
1
1
1
1
1
1
1
1
1
1
1
1
1
1
1
1
1
1
1
1
1
1
1
1
1
1
1
1
1
1
1
1
1
1
1
1
1
1
1
1
1
1
1
1
1
1
1
1
1
1
1
1
1
1
1
1
1
1
1
1
1
1
1
1
1
1
1
1
1
1
1
1
1
1
1
1
1
1
1
1
1
1
1
1
1
1
1
1
1
1
1
1
1
1
1
1
1
1
1
1
1
1.4534
0.68437
0.79145
0.671681
0.496968
0.583658
0.788921
0.994928
1.17744
1.22943
1.22394
1.23775
1.27869
1.31003
1.36173
1.45027
1.53169
1.5532
1.54803
1.53161
1.53086
1.53667
1.55413
1.56462
1.56515
1.56367
1.57067
1.57814
1.58036
1.58719
1.59707
1.60602
1.61095
1.61433
1.60676
1.59517
1.58838
1.58501
1.58647
1.59131
1.59553
1.59655
1.59942
1.60816
1.61967
1.62275
1.62218
1.61543
1.60426
1.60302
1.60409
1.6071
1.6098
1.83645
2.44387
2.62954
2.67979
2.7083
2.72254
2.72967
2.73053
2.73197
2.73273
2.73016
2.72321
2.7153
2.70854
2.7038
2.70003
2.69553
2.68904
2.68194
2.67663
2.6743
2.67364
2.67213
2.66687
2.65713
2.64493
2.63259
2.62207
2.61413
2.60807
2.60284
2.59761
2.59144
2.58328
2.57306
2.56201
2.55186
2.54436
2.54035
2.53927
2.53887
2.53672
2.52945
2.51769
2.50341
2.48818
2.47577
2.46635
2.46112
2.45715
2.45087
2.44225
2.43227
2.42202
2.41246
2.40385
2.396
2.38887
2.38209
2.3755
2.36903
2.36285
2.35736
2.35257
2.34802
2.34294
2.33602
2.32781
2.3192
2.31105
2.30403
2.29874
2.2947
2.29059
2.28598
2.28098
2.27554
2.26947
2.26303
2.25639
2.24956
2.24265
2.2356
2.22837
2.22124
2.21486
2.20985
2.20619
2.20327
2.19984
2.19458
2.1871
2.17795
2.16773
2.15793
2.14961
2.14372
2.14097
2.13951
2.13705
2.13269
2.1264
2.11881
2.11054
2.10252
2.09547
2.09073
2.08882
2.08784
2.08587
2.08209
2.07656
2.06905
2.05833
2.04662
2.03735
2.03084
2.02789
2.0295
2.03104
2.02936
2.02452
2.01664
2.0043
1.99055
1.97904
1.97095
1.96563
1.96367
1.96383
1.96276
1.95985
1.95583
1.95104
1.94437
1.93682
1.92991
1.92508
1.91897
1.75052
1.33074
1.15678
1.13235
1.03501
0.851996
0.769456
0.796306
0.874243
0.943786
0.986381
1.03085
1.0802
1.13188
1.16805
1.21893
1.28209
1.34383
1.39876
1.41448
1.43483
1.46567
1.49163
1.50442
1.51013
1.52199
1.53814
1.55456
1.56943
1.57286
1.57014
1.56191
1.55914
1.56435
1.57577
1.58562
1.58728
1.58666
1.5832
1.58217
1.58498
1.59558
1.60528
1.60989
1.61096
1.61
1.60249
1.59181
1.58803
1.59104
1.60185
1.61137
1.61373
1.6642
2.28014
2.63353
2.69215
2.70627
2.718
2.72198
2.72223
2.72243
2.72338
2.7223
2.71627
2.7075
2.69925
2.69266
2.68833
2.68538
2.68251
2.67795
2.67213
2.66691
2.66255
2.65789
2.65191
2.64485
2.63676
2.62764
2.61875
2.61111
2.60456
2.59803
2.59051
2.58205
2.57317
2.56425
2.55552
2.54756
2.54128
2.53638
2.531
2.52426
2.51662
2.50871
2.50112
2.49313
2.48453
2.47665
2.46939
2.46154
2.45251
2.4428
2.43377
2.42596
2.41922
2.41236
2.40478
2.39672
2.38854
2.38059
2.37351
2.36744
2.36196
2.35646
2.35078
2.34485
2.33855
2.33202
2.32537
2.31848
2.31192
2.30563
2.29977
2.29416
2.28865
2.2831
2.27776
2.27297
2.26785
2.26151
2.25491
2.24805
2.2406
2.23321
2.22667
2.22059
2.21524
2.21077
2.20641
2.20142
2.19539
2.18842
2.18062
2.17259
2.16517
2.15875
2.15355
2.14937
2.1458
2.14215
2.13724
2.13103
2.12398
2.11675
2.11017
2.10463
2.09999
2.09667
2.09457
2.09265
2.08872
2.08218
2.07376
2.06368
2.05408
2.04677
2.04163
2.0377
2.03541
2.03468
2.0339
2.02956
2.02199
2.0112
1.99909
1.98959
1.9834
1.97841
1.97353
1.96928
1.96587
1.96332
1.96081
1.9566
1.95097
1.94391
1.93746
1.93252
1.92896
1.923
1.90465
1.65038
1.43556
1.32343
1.24529
1.17358
1.06787
0.981254
0.986684
1.02994
1.0365
1.02408
1.01962
1.02423
1.03345
1.05624
1.09247
1.13603
1.19969
1.26175
1.30259
1.3436
1.3738
1.39724
1.4272
1.45621
1.48306
1.51028
1.52393
1.52408
1.52035
1.51589
1.51767
1.52927
1.55226
1.56579
1.56605
1.563
1.55841
1.55996
1.56816
1.57776
1.58004
1.57843
1.57318
1.56946
1.56817
1.57188
1.58235
1.59222
1.59644
1.5978
1.59595
1.59803
1.9619
2.58718
2.72477
2.69681
2.69397
2.69148
2.68925
2.69043
2.69111
2.69125
2.68759
2.67859
2.66842
2.6586
2.65098
2.64701
2.64617
2.64595
2.64351
2.63652
2.62838
2.62006
2.61211
2.6057
2.60133
2.59777
2.59345
2.58801
2.58154
2.57408
2.5654
2.55573
2.54642
2.53842
2.53196
2.52639
2.52078
2.51406
2.50476
2.49388
2.48323
2.47471
2.46928
2.46737
2.46715
2.46483
2.45811
2.44832
2.43594
2.42478
2.41607
2.40961
2.4065
2.40273
2.39602
2.38858
2.37998
2.37168
2.36478
2.35875
2.35331
2.34732
2.34054
2.33345
2.32665
2.32068
2.31552
2.31096
2.30636
2.30111
2.29471
2.28756
2.28127
2.27537
2.26992
2.26491
2.25989
2.25352
2.2464
2.23894
2.2311
2.22391
2.21841
2.21398
2.21022
2.20584
2.20047
2.1933
2.18458
2.17648
2.17009
2.16516
2.16119
2.15829
2.15591
2.15219
2.14717
2.14042
2.1322
2.12481
2.11889
2.11405
2.11
2.10704
2.10468
2.1009
2.09561
2.08755
2.077
2.06723
2.05946
2.05383
2.05044
2.05016
2.05088
2.04995
2.04647
2.03889
2.02639
2.01351
2.00329
1.99628
1.99182
1.98874
1.98678
1.98388
1.97974
1.97427
1.96757
1.96117
1.95553
1.94996
1.9445
1.93982
1.93613
1.93304
1.93013
1.9234
1.97492
1.80551
1.66533
1.5069
1.38554
1.3559
1.30294
1.20211
1.1371
1.14266
1.1418
1.12085
1.08868
1.0868
1.09177
1.08889
1.08614
1.09082
1.10267
1.12102
1.14467
1.18484
1.23545
1.28011
1.3382
1.38212
1.40735
1.43173
1.44624
1.45448
1.4576
1.4612
1.47429
1.49377
1.51334
1.52055
1.52166
1.52076
1.52116
1.52386
1.52787
1.53375
1.5348
1.5346
1.53358
1.53401
1.53982
1.54959
1.55688
1.5586
1.55882
1.55908
1.5571
1.55164
1.64253
2.46721
2.72371
2.67215
2.651
2.64165
2.63031
2.62407
2.62239
2.62244
2.62211
2.61696
2.6076
2.59765
2.58773
2.58022
2.57775
2.57857
2.58021
2.57592
2.56586
2.55506
2.54638
2.53991
2.53715
2.53851
2.53966
2.53627
2.52884
2.52035
2.51164
2.50382
2.49704
2.49187
2.48824
2.48337
2.4754
2.46553
2.45437
2.44334
2.43472
2.42848
2.42581
2.4276
2.42923
2.42623
2.41918
2.41003
2.39839
2.38844
2.38134
2.37642
2.37426
2.37024
2.36453
2.35885
2.35242
2.34565
2.33978
2.3343
2.32831
2.32153
2.31413
2.30731
2.30153
2.29658
2.29272
2.2894
2.28554
2.28114
2.27577
2.26891
2.26203
2.25661
2.25101
2.24494
2.23855
2.23175
2.22417
2.21667
2.20981
2.20398
2.19934
2.19546
2.19156
2.18704
2.18091
2.17277
2.16409
2.15769
2.15399
2.15132
2.14966
2.14888
2.14662
2.1432
2.13838
2.13065
2.12168
2.11501
2.11116
2.10818
2.10561
2.10341
2.09982
2.09471
2.086
2.07308
2.06159
2.05416
2.0494
2.04643
2.0473
2.05091
2.05137
2.04836
2.04222
2.02806
2.00941
1.99725
1.99135
1.98796
1.98548
1.98524
1.98574
1.98337
1.97897
1.97367
1.96535
1.95454
1.94607
1.94045
1.93685
1.93456
1.93262
1.9303
1.92749
1.92003
2.03869
1.89953
1.7912
1.66695
1.54524
1.47985
1.4416
1.38846
1.3066
1.24614
1.23957
1.22296
1.18459
1.17867
1.18361
1.17577
1.14703
1.12863
1.12946
1.13026
1.12753
1.1288
1.13791
1.15552
1.19272
1.24367
1.28314
1.32476
1.35754
1.38567
1.40677
1.42063
1.43799
1.45705
1.47427
1.48109
1.48296
1.48282
1.48414
1.48778
1.49235
1.49888
1.50458
1.50756
1.51024
1.5153
1.5195
1.52122
1.52181
1.52121
1.5199
1.51887
1.52091
1.52877
1.56251
2.29758
2.70247
2.65177
2.59359
2.56764
2.54982
2.53889
2.53313
2.53013
2.53205
2.53371
2.52892
2.5213
2.51121
2.50208
2.49791
2.49735
2.49966
2.49831
2.49065
2.48055
2.47016
2.46415
2.46162
2.46446
2.46777
2.46383
2.45766
2.44928
2.44059
2.43536
2.43176
2.43095
2.42962
2.42322
2.41419
2.40303
2.39116
2.38181
2.37624
2.37325
2.37397
2.3762
2.37484
2.36969
2.36303
2.35496
2.34656
2.33988
2.33467
2.33093
2.32771
2.32306
2.31869
2.31464
2.31016
2.30507
2.29968
2.29391
2.28761
2.28084
2.274
2.26811
2.26331
2.25919
2.25578
2.25241
2.24915
2.24598
2.24235
2.23741
2.23069
2.22397
2.21825
2.21206
2.20532
2.19861
2.1924
2.1861
2.18022
2.17491
2.16983
2.16478
2.15955
2.15391
2.14785
2.14174
2.13616
2.13206
2.12956
2.12798
2.12741
2.12624
2.12374
2.12041
2.11526
2.10897
2.10326
2.09891
2.0959
2.09359
2.0913
2.08796
2.08324
2.07548
2.06394
2.05289
2.04581
2.04137
2.03808
2.03769
2.04078
2.04168
2.03811
2.03206
2.02203
2.00713
1.99327
1.98522
1.9816
1.97926
1.97757
1.97794
1.97818
1.97458
1.96964
1.96354
1.95395
1.94208
1.93314
1.92837
1.92595
1.92418
1.92248
1.92051
1.91788
1.91032
2.08835
1.97464
1.8763
1.7729
1.67965
1.5955
1.53244
1.498
1.45255
1.37227
1.31607
1.30438
1.27852
1.25233
1.25129
1.24777
1.22515
1.19072
1.18546
1.18411
1.17263
1.15681
1.15686
1.16279
1.16488
1.16838
1.17794
1.19758
1.22902
1.26469
1.31187
1.35649
1.39446
1.42536
1.44134
1.45475
1.45856
1.45802
1.45792
1.46144
1.46691
1.47675
1.4884
1.49766
1.50308
1.50489
1.50475
1.50303
1.49947
1.4953
1.49428
1.49733
1.50917
1.55776
1.66311
2.05443
2.56169
2.61313
2.53687
2.49451
2.47539
2.46533
2.45651
2.44908
2.44885
2.45369
2.45401
2.44883
2.44163
2.43203
2.42753
2.42642
2.42758
2.42971
2.42664
2.42037
2.41093
2.40318
2.39937
2.39887
2.39975
2.39708
2.39287
2.38744
2.38107
2.37694
2.37483
2.37384
2.3703
2.36377
2.3552
2.34569
2.33796
2.33317
2.33083
2.33104
2.33046
2.32665
2.32103
2.31355
2.3063
2.30095
2.29699
2.29394
2.29167
2.28839
2.28351
2.27822
2.27295
2.26786
2.26314
2.25875
2.25436
2.24959
2.24427
2.23854
2.23258
2.22668
2.22159
2.21737
2.21351
2.21009
2.20727
2.20486
2.20238
2.19887
2.19288
2.18515
2.17917
2.17418
2.16867
2.16327
2.15901
2.15434
2.1486
2.14285
2.13636
2.12836
2.12076
2.11515
2.11104
2.10801
2.10581
2.10388
2.10201
2.10005
2.09772
2.09476
2.0908
2.08626
2.08195
2.07869
2.07652
2.07465
2.0724
2.06965
2.06639
2.06224
2.05609
2.04694
2.03696
2.02998
2.02558
2.02201
2.02081
2.02213
2.02173
2.01712
2.01094
2.00263
1.99255
1.98383
1.97756
1.97249
1.96796
1.96495
1.96297
1.96169
1.96042
1.95649
1.95089
1.94392
1.93532
1.92657
1.91873
1.91252
1.90868
1.90632
1.90449
1.9026
1.90057
1.89434
2.12604
2.03257
1.94309
1.84541
1.77232
1.70539
1.62144
1.56735
1.53715
1.48032
1.40166
1.37889
1.36811
1.34106
1.31366
1.30821
1.29491
1.26223
1.23621
1.23402
1.22961
1.21086
1.19988
1.19747
1.19582
1.19066
1.18389
1.17847
1.17743
1.18128
1.19566
1.23066
1.27652
1.33063
1.36857
1.39625
1.4224
1.43943
1.4503
1.45181
1.45238
1.46085
1.47526
1.48837
1.49453
1.49611
1.49638
1.49237
1.48625
1.48569
1.48813
1.50125
1.55394
1.69972
1.81562
1.89156
2.27366
2.49543
2.48425
2.45758
2.43524
2.42187
2.41043
2.4012
2.39545
2.3964
2.39785
2.39513
2.39163
2.38588
2.38069
2.37975
2.38001
2.38236
2.38324
2.38001
2.37399
2.36534
2.35841
2.35418
2.35175
2.35073
2.34858
2.34581
2.34239
2.3376
2.33265
2.32837
2.3234
2.31745
2.31143
2.30679
2.30341
2.30239
2.30216
2.29924
2.29401
2.28576
2.27597
2.26826
2.26347
2.26029
2.25925
2.2601
2.25921
2.25552
2.2497
2.2416
2.23347
2.22726
2.22299
2.22005
2.21759
2.21483
2.21129
2.20645
2.19993
2.19235
2.18561
2.18049
2.17637
2.1729
2.17
2.16763
2.16543
2.16245
2.15721
2.15018
2.14451
2.14037
2.13619
2.1323
2.12922
2.12489
2.11921
2.11312
2.1049
2.09524
2.0876
2.08321
2.08108
2.08006
2.0798
2.07916
2.07723
2.07393
2.06863
2.06203
2.05609
2.05177
2.04937
2.04838
2.04774
2.04684
2.04516
2.04218
2.03749
2.0312
2.02372
2.0159
2.01055
2.00698
2.00395
2.00292
2.00284
1.99944
1.99371
1.98607
1.97643
1.96699
1.96083
1.95834
1.9573
1.95582
1.95329
1.94936
1.94452
1.93999
1.93539
1.92974
1.92359
1.91765
1.91252
1.90773
1.90262
1.89669
1.89079
1.88686
1.88497
1.88341
1.88125
1.87519
2.15259
2.07241
1.99357
1.90628
1.83832
1.77963
1.70689
1.63642
1.59795
1.55555
1.49293
1.44499
1.43806
1.42405
1.39087
1.36186
1.3483
1.32647
1.29209
1.27772
1.27618
1.26534
1.24149
1.23659
1.23887
1.2344
1.22114
1.20932
1.19684
1.18899
1.19057
1.19421
1.20319
1.2206
1.24786
1.27431
1.30981
1.35052
1.38773
1.42624
1.44276
1.45378
1.46681
1.47857
1.48305
1.48458
1.48344
1.48004
1.47883
1.48372
1.50408
1.56556
1.69584
1.82842
1.89839
1.89648
1.98601
2.29832
2.43022
2.44645
2.42892
2.40834
2.39237
2.37729
2.36739
2.36295
2.36404
2.3663
2.3657
2.36389
2.35913
2.35389
2.35229
2.3524
2.35484
2.35547
2.35175
2.34576
2.33795
2.33125
2.3271
2.3245
2.32318
2.32087
2.31756
2.31296
2.3063
2.29938
2.29413
2.29031
2.28735
2.28572
2.28548
2.28447
2.28075
2.27535
2.26736
2.25694
2.24778
2.24253
2.23943
2.23844
2.24004
2.24024
2.23696
2.23159
2.22268
2.2124
2.20472
2.19998
2.19693
2.19542
2.19486
2.19348
2.19078
2.18587
2.17747
2.16793
2.16004
2.15404
2.14937
2.1456
2.14237
2.13959
2.1371
2.13345
2.12852
2.12367
2.11962
2.11597
2.11255
2.10923
2.10536
2.10058
2.09516
2.08811
2.07972
2.07182
2.06666
2.06408
2.06306
2.06316
2.06282
2.06104
2.0571
2.0497
2.04099
2.03398
2.02894
2.02587
2.02421
2.02329
2.0225
2.0214
2.01974
2.01653
2.01023
2.0017
1.9941
1.98991
1.98717
1.98543
1.98573
1.98582
1.98184
1.97536
1.96632
1.95478
1.94393
1.93729
1.93492
1.93476
1.93551
1.93588
1.93512
1.93248
1.92679
1.91837
1.91048
1.90437
1.89894
1.89416
1.89046
1.8873
1.88432
1.8811
1.87645
1.87046
1.86551
1.86137
1.85802
1.85323
2.1754
2.10465
2.03208
1.95733
1.89499
1.83409
1.76762
1.70787
1.65695
1.61373
1.57376
1.52348
1.49379
1.48286
1.46249
1.42346
1.39228
1.37592
1.35225
1.3289
1.32443
1.31956
1.29962
1.28025
1.27798
1.27241
1.25627
1.23951
1.23039
1.22273
1.21549
1.21425
1.21537
1.2181
1.21686
1.21381
1.21735
1.23251
1.26225
1.31488
1.37101
1.41599
1.45209
1.46359
1.46632
1.4676
1.46529
1.46446
1.46909
1.49859
1.5896
1.70434
1.83368
1.88261
1.90536
1.90059
1.89599
2.01696
2.28958
2.409
2.43104
2.41313
2.39076
2.37083
2.35713
2.3503
2.3488
2.35275
2.35516
2.35452
2.3518
2.34469
2.33811
2.3362
2.33674
2.33874
2.33761
2.33314
2.32742
2.32001
2.31351
2.30925
2.30633
2.30411
2.30083
2.29683
2.2915
2.28521
2.28023
2.27711
2.27499
2.27363
2.27145
2.26741
2.26221
2.25582
2.24839
2.24059
2.2342
2.22993
2.22751
2.22688
2.22576
2.22218
2.21712
2.20998
2.20138
2.19362
2.18842
2.18493
2.18312
2.18303
2.18246
2.18015
2.17623
2.16901
2.15994
2.152
2.14532
2.13902
2.13313
2.12817
2.1243
2.12106
2.11687
2.11153
2.10756
2.10526
2.1031
2.10048
2.09691
2.09235
2.0871
2.08142
2.07483
2.06763
2.06145
2.05771
2.05539
2.05432
2.05356
2.05203
2.04961
2.04507
2.03771
2.02862
2.02052
2.01507
2.01167
2.00919
2.0073
2.0056
2.00387
2.00208
1.99942
1.99421
1.98713
1.9801
1.9761
1.97362
1.97196
1.97196
1.97197
1.96845
1.96242
1.95393
1.94231
1.92938
1.92046
1.91704
1.91636
1.91669
1.91813
1.91833
1.91772
1.91596
1.91121
1.90115
1.88985
1.88279
1.87883
1.87589
1.87364
1.87213
1.87004
1.86775
1.86458
1.85874
1.8502
1.84289
1.83946
1.83568
2.19319
2.13032
2.0627
1.99952
1.94181
1.88069
1.81648
1.76924
1.72021
1.66838
1.6355
1.6015
1.55467
1.5277
1.51418
1.48811
1.44096
1.41483
1.4011
1.3784
1.3662
1.36456
1.35537
1.331
1.3152
1.30608
1.29065
1.27068
1.26452
1.26234
1.25332
1.24679
1.24451
1.23903
1.23087
1.22102
1.21548
1.21526
1.21821
1.23096
1.25978
1.29992
1.3441
1.37827
1.4044
1.42752
1.44171
1.44876
1.47422
1.59455
1.7385
1.83077
1.89016
1.89146
1.88926
1.89325
1.89401
1.90702
2.04805
2.29168
2.40551
2.40864
2.38986
2.37171
2.35794
2.34906
2.34471
2.34488
2.34717
2.34792
2.34692
2.34258
2.33432
2.32836
2.32611
2.3248
2.32436
2.3224
2.3178
2.31208
2.30442
2.29777
2.29329
2.28992
2.28759
2.28434
2.28046
2.27648
2.27249
2.26868
2.26504
2.26107
2.2565
2.25151
2.2462
2.24044
2.23497
2.23068
2.22731
2.22427
2.2206
2.21617
2.21138
2.20584
2.19942
2.19236
2.18632
2.18243
2.17947
2.17765
2.17634
2.17408
2.17097
2.1666
2.16002
2.15256
2.14632
2.14172
2.13725
2.13196
2.12555
2.11837
2.11131
2.10457
2.09913
2.09561
2.0933
2.09208
2.09134
2.08925
2.08602
2.08117
2.07403
2.06614
2.05927
2.05445
2.05144
2.04979
2.04934
2.04819
2.04598
2.04216
2.0357
2.02786
2.02002
2.01293
2.00782
2.00454
2.0018
1.99939
1.99687
1.9941
1.991
1.98675
1.98093
1.97489
1.96992
1.96747
1.96588
1.96496
1.96381
1.96145
1.95778
1.95142
1.94309
1.93323
1.92288
1.9144
1.9093
1.90645
1.90471
1.90406
1.90395
1.90446
1.90442
1.90231
1.89708
1.88774
1.87727
1.86989
1.8657
1.86292
1.86067
1.85923
1.85775
1.85572
1.8533
1.84885
1.84044
1.83119
1.82669
1.82288
2.20909
2.15209
2.09053
2.0349
1.97962
1.91937
1.86572
1.81949
1.77496
1.72417
1.68822
1.65779
1.61939
1.57579
1.55312
1.5341
1.49782