/*--------------------------------*- C++ -*----------------------------------*\
  =========                 |
  \\      /  F ield         | OpenFOAM: The Open Source CFD Toolbox
   \\    /   O peration     | Website:  https://openfoam.org
    \\  /    A nd           | Version:  10
     \\/     M anipulation  |
\*---------------------------------------------------------------------------*/
FoamFile
{
    format      ascii;
    class       volVectorField;
    location    "4";
    object      U;
}
// * * * * * * * * * * * * * * * * * * * * * * * * * * * * * * * * * * * * * //

dimensions      [0 1 -1 0 0 0 0];

internalField   nonuniform List<vector> 
16128
(
(3 1.24787e-15 0)
(3 -5.92045e-15 0)
(3 1.0246e-14 0)
(3 1.61949e-14 0)
(3 2.6464e-14 0)
(3 4.07889e-14 0)
(3 5.01551e-14 0)
(3 3.25088e-14 0)
(3 9.36875e-15 0)
(3 5.90296e-14 0)
(3 5.65389e-14 0)
(3 6.67712e-14 0)
(3 8.18337e-14 0)
(3 7.01235e-14 0)
(3 5.6672e-14 0)
(3 4.82421e-14 0)
(3 7.05754e-14 0)
(3 1.23568e-13 0)
(3 7.28222e-14 0)
(3 -6.85094e-14 0)
(3 -9.32612e-14 0)
(3 -4.57215e-14 0)
(3 5.28178e-14 0)
(3 3.92643e-14 0)
(1.5222 0.00831214 0)
(0.774288 0.00908489 0)
(0.723472 0.0111708 0)
(0.697166 0.0121312 0)
(0.667236 0.0126387 0)
(0.637739 0.0131856 0)
(0.607241 0.0136626 0)
(0.576297 0.0139207 0)
(0.54553 0.0139201 0)
(0.515445 0.0137614 0)
(0.485902 0.0137457 0)
(0.456154 0.0141365 0)
(0.425669 0.0147223 0)
(0.394591 0.0151382 0)
(0.363061 0.0153893 0)
(0.33082 0.015716 0)
(0.297742 0.0161724 0)
(0.263917 0.0167911 0)
(0.229092 0.0175561 0)
(0.192541 0.0184436 0)
(0.153953 0.019173 0)
(0.113046 0.020553 0)
(0.0687093 0.022071 0)
(0.0237325 0.0225049 0)
(3 -5.88181e-15 0)
(3 -4.6667e-14 0)
(3 -2.93254e-14 0)
(3 1.70818e-14 0)
(3 4.39078e-14 0)
(3 3.63167e-14 0)
(3 3.96583e-14 0)
(3 6.85224e-14 0)
(3 3.9696e-15 0)
(3 -5.69796e-14 0)
(3 -5.27506e-14 0)
(3 2.339e-14 0)
(3 3.89553e-14 0)
(3 4.36543e-14 0)
(3 9.3961e-14 0)
(3 1.08288e-13 0)
(3 1.18289e-13 0)
(3 9.31725e-14 0)
(3 -2.81109e-14 0)
(3 -1.10954e-13 0)
(3 -1.41817e-13 0)
(3 -4.99442e-14 0)
(3 8.42628e-14 0)
(3 4.7772e-14 0)
(1.53784 0.0388075 0)
(0.769918 0.0370866 0)
(0.715386 0.0326539 0)
(0.688849 0.0345141 0)
(0.65906 0.0360964 0)
(0.629693 0.037918 0)
(0.599313 0.0395591 0)
(0.56841 0.0405258 0)
(0.537564 0.0406426 0)
(0.507326 0.0401409 0)
(0.477674 0.040036 0)
(0.447961 0.0412911 0)
(0.417586 0.0432446 0)
(0.386564 0.0446263 0)
(0.355111 0.0454401 0)
(0.323158 0.0465391 0)
(0.290672 0.0481654 0)
(0.257634 0.0503191 0)
(0.223715 0.0526755 0)
(0.188324 0.0552648 0)
(0.151159 0.0575302 0)
(0.1117 0.0623518 0)
(0.068155 0.0675861 0)
(0.0241457 0.0688787 0)
(3 -9.7602e-15 0)
(3 -4.08123e-14 0)
(3 -4.87814e-14 0)
(3 -2.29451e-14 0)
(3 -1.4049e-14 0)
(3 -3.63779e-14 0)
(3 -4.60416e-14 0)
(3 -1.07003e-15 0)
(3 2.77285e-14 0)
(3 -1.9148e-14 0)
(3 -2.75232e-14 0)
(3 3.80112e-15 0)
(3 -3.12846e-15 0)
(3 2.6148e-14 0)
(3 1.12792e-13 0)
(3 1.47839e-13 0)
(3 1.55525e-13 0)
(3 6.22982e-14 0)
(3 -4.30007e-14 0)
(3 -5.6243e-14 0)
(3 -3.5569e-14 0)
(3 -2.82565e-14 0)
(3 -8.04963e-15 0)
(3 3.0864e-14 0)
(1.58871 0.0687377 0)
(0.776907 0.0649861 0)
(0.717124 0.0568363 0)
(0.688859 0.0590665 0)
(0.6581 0.0613716 0)
(0.628093 0.0641502 0)
(0.597345 0.0667596 0)
(0.56612 0.068363 0)
(0.534809 0.0686376 0)
(0.503937 0.0678506 0)
(0.473603 0.0675912 0)
(0.443306 0.0694881 0)
(0.412382 0.0725206 0)
(0.380668 0.0746231 0)
(0.348528 0.0758382 0)
(0.3161 0.0775446 0)
(0.283346 0.0799817 0)
(0.250078 0.0830443 0)
(0.216067 0.0862765 0)
(0.181173 0.0902037 0)
(0.145163 0.0940208 0)
(0.107732 0.102776 0)
(0.0658869 0.111823 0)
(0.0246737 0.113707 0)
(3 2.65083e-14 0)
(3 1.49148e-14 0)
(3 -7.06917e-15 0)
(3 -3.00512e-14 0)
(3 -2.2091e-14 0)
(3 -8.3122e-15 0)
(3 3.33167e-16 0)
(3 1.76129e-14 0)
(3 4.78288e-14 0)
(3 6.0431e-14 0)
(3 3.25106e-14 0)
(3 3.42515e-14 0)
(3 9.64462e-15 0)
(3 -3.94206e-14 0)
(3 1.26618e-14 0)
(3 3.90229e-14 0)
(3 1.47101e-14 0)
(3 2.08505e-14 0)
(3 1.37536e-14 0)
(3 1.65805e-14 0)
(3 -4.39418e-14 0)
(3 -3.72353e-14 0)
(3 -6.6544e-14 0)
(3 -1.97592e-14 0)
(1.66572 0.0952979 0)
(0.785927 0.0928833 0)
(0.720307 0.0820089 0)
(0.691306 0.0837903 0)
(0.660486 0.0865018 0)
(0.63067 0.0900549 0)
(0.600311 0.0935795 0)
(0.569443 0.0959254 0)
(0.538241 0.0966467 0)
(0.507144 0.0959313 0)
(0.476356 0.0957518 0)
(0.445575 0.0983816 0)
(0.414124 0.102592 0)
(0.381646 0.105633 0)
(0.348617 0.107519 0)
(0.315329 0.109998 0)
(0.281686 0.113193 0)
(0.24738 0.116929 0)
(0.212323 0.120591 0)
(0.176822 0.125417 0)
(0.140527 0.130106 0)
(0.103992 0.1424 0)
(0.0634181 0.154837 0)
(0.0260291 0.157067 0)
(3 2.99623e-14 0)
(3 3.05497e-14 0)
(3 2.54482e-15 0)
(3 -2.42985e-14 0)
(3 1.49184e-14 0)
(3 5.62226e-14 0)
(3 5.56758e-14 0)
(3 3.66174e-14 0)
(3 4.58348e-14 0)
(3 5.49021e-14 0)
(3 2.23306e-14 0)
(3 -1.25335e-15 0)
(3 3.91503e-15 0)
(3 -8.21675e-14 0)
(3 -7.72454e-14 0)
(3 -1.26519e-13 0)
(3 -1.90273e-13 0)
(3 -1.00307e-13 0)
(3 -3.30088e-14 0)
(3 -7.85375e-15 0)
(3 -7.93178e-14 0)
(3 -9.18704e-14 0)
(3 -7.68011e-14 0)
(3 -6.21275e-14 0)
(1.7702 0.121088 0)
(0.797287 0.121279 0)
(0.722754 0.108729 0)
(0.692657 0.109098 0)
(0.661628 0.111767 0)
(0.632022 0.11581 0)
(0.602164 0.120127 0)
(0.571855 0.123255 0)
(0.541065 0.124618 0)
(0.510102 0.124209 0)
(0.479261 0.124165 0)
(0.448484 0.127453 0)
(0.417152 0.132823 0)
(0.384647 0.1369 0)
(0.351422 0.139581 0)
(0.317826 0.142966 0)
(0.283687 0.147094 0)
(0.24858 0.151756 0)
(0.212324 0.156028 0)
(0.175319 0.162024 0)
(0.136709 0.167373 0)
(0.0993688 0.18267 0)
(0.0604526 0.194745 0)
(0.0379089 0.197617 0)
(3 -1.29355e-14 0)
(3 1.00212e-14 0)
(3 1.93645e-14 0)
(3 -2.01238e-14 0)
(3 -3.16653e-14 0)
(3 -3.57981e-14 0)
(3 -3.86116e-14 0)
(3 8.29593e-15 0)
(3 7.50947e-14 0)
(3 7.02311e-14 0)
(3 2.39416e-14 0)
(3 -4.40398e-14 0)
(3 -5.32529e-14 0)
(3 -9.78595e-14 0)
(3 -1.16273e-13 0)
(3 -1.34459e-13 0)
(3 -5.30788e-14 0)
(3 -1.36102e-15 0)
(3 -3.09726e-14 0)
(3 -2.96183e-14 0)
(3 -3.79091e-14 0)
(3 -1.03188e-13 0)
(3 -1.53847e-13 0)
(3 -1.79037e-13 0)
(1.90886 0.144403 0)
(0.814188 0.150259 0)
(0.727445 0.137076 0)
(0.696184 0.134925 0)
(0.664818 0.137026 0)
(0.635435 0.141288 0)
(0.60605 0.146291 0)
(0.576239 0.150245 0)
(0.545823 0.152439 0)
(0.514961 0.15262 0)
(0.483986 0.152817 0)
(0.453121 0.15671 0)
(0.421921 0.163258 0)
(0.389478 0.168535 0)
(0.356089 0.17217 0)
(0.322117 0.176616 0)
(0.287393 0.181893 0)
(0.251561 0.187803 0)
(0.214452 0.192908 0)
(0.176848 0.200507 0)
(0.137273 0.206679 0)
(0.100038 0.224003 0)
(0.0597864 0.232682 0)
(0.0408452 0.23878 0)
(3 8.09697e-15 0)
(3 2.74314e-14 0)
(3 4.04848e-14 0)
(3 3.58357e-15 0)
(3 -5.76524e-14 0)
(3 -7.97639e-14 0)
(3 -5.20325e-14 0)
(3 -1.89191e-14 0)
(3 5.10538e-15 0)
(3 7.23417e-14 0)
(3 6.13343e-14 0)
(3 3.04532e-14 0)
(3 2.16101e-14 0)
(3 1.08414e-14 0)
(3 -2.6246e-14 0)
(3 2.23323e-15 0)
(3 6.67277e-14 0)
(3 1.41703e-14 0)
(3 -4.44864e-14 0)
(3 -4.96938e-14 0)
(3 -6.31327e-14 0)
(3 -9.50153e-14 0)
(3 -9.16612e-14 0)
(3 -1.08136e-13 0)
(2.08054 0.162332 0)
(0.836615 0.179918 0)
(0.732719 0.166146 0)
(0.70109 0.160997 0)
(0.669199 0.162076 0)
(0.640008 0.16626 0)
(0.611139 0.171858 0)
(0.581954 0.176693 0)
(0.55218 0.179848 0)
(0.521843 0.180832 0)
(0.491246 0.181274 0)
(0.460847 0.18556 0)
(0.430423 0.193173 0)
(0.398686 0.199808 0)
(0.365591 0.204632 0)
(0.331502 0.210408 0)
(0.296262 0.217158 0)
(0.259674 0.22468 0)
(0.221519 0.230753 0)
(0.183091 0.240064 0)
(0.142145 0.246902 0)
(0.10424 0.265935 0)
(0.0614045 0.272096 0)
(0.0407004 0.280599 0)
(3 -5.69406e-15 0)
(3 8.79955e-15 0)
(3 2.59042e-14 0)
(3 5.81821e-14 0)
(3 5.63047e-14 0)
(3 4.45503e-14 0)
(3 3.64005e-14 0)
(3 2.48043e-14 0)
(3 -3.53753e-14 0)
(3 2.93393e-14 0)
(3 6.24638e-14 0)
(3 6.80838e-14 0)
(3 5.28385e-14 0)
(3 9.34955e-14 0)
(3 4.78525e-14 0)
(3 2.40705e-14 0)
(3 4.2066e-14 0)
(3 2.19686e-14 0)
(3 1.68771e-14 0)
(3 -1.10898e-14 0)
(3 -2.90072e-14 0)
(3 -7.1968e-16 0)
(3 2.651e-14 0)
(3 1.80664e-14 0)
(2.28455 0.17681 0)
(0.864201 0.213762 0)
(0.735058 0.196767 0)
(0.704305 0.188407 0)
(0.671662 0.188556 0)
(0.641945 0.192275 0)
(0.61281 0.19812 0)
(0.583712 0.203586 0)
(0.554339 0.207497 0)
(0.524586 0.209251 0)
(0.494583 0.209828 0)
(0.464909 0.214193 0)
(0.435721 0.222734 0)
(0.405372 0.230963 0)
(0.373293 0.237305 0)
(0.339817 0.24473 0)
(0.304701 0.253324 0)
(0.267907 0.262899 0)
(0.229133 0.270153 0)
(0.190579 0.281078 0)
(0.149149 0.288019 0)
(0.11051 0.308709 0)
(0.0634498 0.317353 0)
(0.0306503 0.321834 0)
(3 -1.99218e-14 0)
(3 -5.16312e-14 0)
(3 -2.99522e-14 0)
(3 1.29588e-14 0)
(3 3.66705e-14 0)
(3 6.47641e-14 0)
(3 9.75876e-14 0)
(3 1.10756e-13 0)
(3 4.25084e-14 0)
(3 -4.01064e-15 0)
(3 4.46213e-14 0)
(3 5.2086e-14 0)
(3 6.29557e-14 0)
(3 9.31293e-14 0)
(3 6.89443e-14 0)
(3 1.81958e-14 0)
(3 1.25051e-14 0)
(3 4.22111e-14 0)
(3 3.25747e-14 0)
(3 3.48926e-14 0)
(3 3.9891e-14 0)
(3 -4.87933e-14 0)
(3 -5.02855e-14 0)
(3 -5.85375e-14 0)
(2.52837 0.184802 0)
(0.913143 0.250824 0)
(0.752674 0.224764 0)
(0.723661 0.217218 0)
(0.68919 0.216874 0)
(0.657586 0.220133 0)
(0.626528 0.225807 0)
(0.595921 0.231521 0)
(0.565341 0.23593 0)
(0.534506 0.238331 0)
(0.503389 0.238908 0)
(0.472681 0.242824 0)
(0.443149 0.251748 0)
(0.41327 0.261436 0)
(0.38187 0.269378 0)
(0.349231 0.278593 0)
(0.314914 0.289312 0)
(0.278829 0.301459 0)
(0.23989 0.310415 0)
(0.200548 0.323005 0)
(0.157224 0.330102 0)
(0.116854 0.352259 0)
(0.071283 0.367759 0)
(0.0297278 0.368651 0)
(3 2.92203e-15 0)
(3 -6.34456e-15 0)
(3 -2.79427e-14 0)
(3 -4.27466e-14 0)
(3 -1.93949e-14 0)
(3 2.26868e-14 0)
(3 3.20608e-14 0)
(3 1.83605e-15 0)
(3 -2.22924e-14 0)
(3 -1.06145e-14 0)
(3 1.73072e-14 0)
(3 6.06904e-14 0)
(3 8.19779e-14 0)
(3 6.7078e-14 0)
(3 5.84998e-14 0)
(3 3.85101e-14 0)
(3 -2.31885e-14 0)
(3 -1.08912e-13 0)
(3 -9.09499e-14 0)
(3 -4.91909e-14 0)
(3 1.18634e-16 0)
(3 3.10523e-14 0)
(3 9.17119e-14 0)
(3 7.70918e-14 0)
(2.79606 0.160603 0)
(0.993931 0.277822 0)
(0.787544 0.240494 0)
(0.762239 0.23997 0)
(0.724547 0.243194 0)
(0.690227 0.247549 0)
(0.656105 0.253554 0)
(0.622605 0.259673 0)
(0.58914 0.265039 0)
(0.555369 0.268837 0)
(0.521335 0.269999 0)
(0.487802 0.273286 0)
(0.456046 0.281942 0)
(0.425111 0.292506 0)
(0.393348 0.301629 0)
(0.36087 0.312325 0)
(0.326977 0.325128 0)
(0.291447 0.340398 0)
(0.251938 0.352199 0)
(0.211083 0.367704 0)
(0.164492 0.376967 0)
(0.119215 0.401198 0)
(0.0711288 0.416598 0)
(0.0448812 0.418314 0)
(3 -7.02283e-15 0)
(3 3.70937e-14 0)
(3 3.81339e-14 0)
(3 2.13996e-14 0)
(3 -1.6194e-15 0)
(3 9.39787e-15 0)
(3 -2.49367e-15 0)
(3 -3.29879e-14 0)
(3 -1.68105e-14 0)
(3 7.29984e-14 0)
(3 7.18315e-14 0)
(3 1.34415e-13 0)
(3 1.62026e-13 0)
(3 1.14327e-13 0)
(3 8.95575e-14 0)
(3 1.16893e-13 0)
(3 8.4985e-14 0)
(3 -5.12616e-14 0)
(3 -7.71961e-14 0)
(3 -6.49455e-14 0)
(3 -1.11973e-13 0)
(3 1.48378e-14 0)
(3 1.45604e-13 0)
(3 1.05559e-13 0)
(2.98775 0.0429186 0)
(1.08874 0.28406 0)
(0.80749 0.253768 0)
(0.792388 0.26512 0)
(0.759109 0.270987 0)
(0.726071 0.275981 0)
(0.69124 0.282676 0)
(0.656069 0.290012 0)
(0.620633 0.296661 0)
(0.584633 0.301829 0)
(0.547921 0.303893 0)
(0.51132 0.306487 0)
(0.476479 0.314252 0)
(0.443298 0.32508 0)
(0.410022 0.334919 0)
(0.376675 0.346704 0)
(0.342411 0.361235 0)
(0.307454 0.379734 0)
(0.268157 0.394884 0)
(0.22764 0.414001 0)
(0.179808 0.427139 0)
(0.132425 0.455025 0)
(0.0792122 0.468129 0)
(0.0528177 0.473439 0)
(3 1.24828e-14 0)
(3 1.55994e-14 0)
(3 2.42733e-14 0)
(3 1.24632e-14 0)
(3 -3.53949e-14 0)
(3 -3.59325e-14 0)
(3 5.14867e-15 0)
(3 1.95304e-14 0)
(3 9.44069e-14 0)
(3 1.61436e-13 0)
(3 1.66014e-13 0)
(3 1.40709e-13 0)
(3 1.35206e-13 0)
(3 1.59587e-13 0)
(3 1.05579e-13 0)
(3 8.46597e-14 0)
(3 5.04261e-14 0)
(3 8.74204e-15 0)
(3 -1.31722e-14 0)
(3 -3.15159e-14 0)
(3 -2.28172e-14 0)
(3 4.37293e-14 0)
(3 9.28374e-14 0)
(3 9.26169e-14 0)
(3.0089 0.00335741 0)
(1.17657 0.283956 0)
(0.802036 0.265239 0)
(0.791592 0.291893 0)
(0.764063 0.301469 0)
(0.73777 0.307231 0)
(0.710348 0.313429 0)
(0.681227 0.320422 0)
(0.649538 0.328504 0)
(0.615301 0.336215 0)
(0.578842 0.340356 0)
(0.541144 0.343007 0)
(0.504014 0.349736 0)
(0.468375 0.360397 0)
(0.432925 0.370533 0)
(0.398002 0.382855 0)
(0.362605 0.398282 0)
(0.327736 0.419572 0)
(0.288025 0.438636 0)
(0.246434 0.462805 0)
(0.195963 0.481941 0)
(0.145949 0.515603 0)
(0.0857276 0.528352 0)
(0.0556478 0.536939 0)
(3 2.7592e-14 0)
(3 -1.65885e-14 0)
(3 -5.93337e-14 0)
(3 -6.41278e-14 0)
(3 -3.80271e-14 0)
(3 -4.03892e-14 0)
(3 -1.65196e-14 0)
(3 6.9176e-14 0)
(3 1.06965e-13 0)
(3 8.65299e-14 0)
(3 6.14665e-14 0)
(3 7.91758e-14 0)
(3 9.68242e-14 0)
(3 7.65802e-14 0)
(3 7.12697e-14 0)
(3 5.77022e-14 0)
(3 2.62698e-14 0)
(3 -4.40344e-15 0)
(3 -1.66628e-14 0)
(3 8.36518e-15 0)
(3 5.01955e-14 0)
(3 5.71423e-14 0)
(3 4.15486e-14 0)
(3 3.84573e-14 0)
(3.00018 5.1248e-06 0)
(1.32413 0.30832 0)
(0.795821 0.27482 0)
(0.771628 0.305195 0)
(0.748617 0.321404 0)
(0.726997 0.329589 0)
(0.706875 0.33768 0)
(0.687093 0.346741 0)
(0.665967 0.356605 0)
(0.640557 0.366661 0)
(0.60964 0.374193 0)
(0.574702 0.379092 0)
(0.537851 0.386318 0)
(0.500931 0.397563 0)
(0.463506 0.408322 0)
(0.426473 0.421049 0)
(0.388959 0.436954 0)
(0.353391 0.46081 0)
(0.313407 0.484383 0)
(0.272183 0.514202 0)
(0.222215 0.539428 0)
(0.172423 0.580253 0)
(0.10422 0.596786 0)
(0.0703006 0.610314 0)
(3 -1.68411e-14 0)
(3 -3.17028e-14 0)
(3 -4.48739e-14 0)
(3 -1.75761e-14 0)
(3 9.21997e-15 0)
(3 3.8825e-14 0)
(3 2.76931e-14 0)
(3 6.44065e-14 0)
(3 9.57614e-14 0)
(3 6.29639e-14 0)
(3 4.04923e-14 0)
(3 2.32553e-14 0)
(3 3.19639e-14 0)
(3 3.92506e-14 0)
(3 2.56179e-14 0)
(3 4.88123e-14 0)
(3 3.84102e-14 0)
(3 5.9224e-14 0)
(3 4.62856e-14 0)
(3 6.55722e-14 0)
(3 4.87195e-15 0)
(3 -2.33048e-14 0)
(3 -8.87724e-15 0)
(3 -2.3328e-14 0)
(3 -1.24204e-08 0)
(1.56874 0.343139 0)
(0.810196 0.315705 0)
(0.745259 0.320827 0)
(0.726893 0.331757 0)
(0.70948 0.339018 0)
(0.694423 0.348361 0)
(0.679831 0.360658 0)
(0.664422 0.375276 0)
(0.648539 0.391282 0)
(0.627159 0.404181 0)
(0.599988 0.41361 0)
(0.56842 0.423486 0)
(0.534395 0.436611 0)
(0.49787 0.448812 0)
(0.459867 0.462657 0)
(0.421288 0.478366 0)
(0.385498 0.503846 0)
(0.345877 0.530951 0)
(0.305507 0.566782 0)
(0.252562 0.602535 0)
(0.197491 0.658197 0)
(0.117277 0.685892 0)
(0.0720341 0.707047 0)
(3 -4.45328e-14 0)
(3 -3.07273e-14 0)
(3 7.00088e-15 0)
(3 1.91924e-14 0)
(3 5.07438e-14 0)
(3 1.30165e-13 0)
(3 1.37324e-13 0)
(3 3.26545e-14 0)
(3 4.79003e-15 0)
(3 -2.68199e-14 0)
(3 -5.62079e-14 0)
(3 -6.29301e-14 0)
(3 -6.29877e-14 0)
(3 -3.38941e-14 0)
(3 -5.87699e-14 0)
(3 -8.28211e-14 0)
(3 -3.86478e-14 0)
(3 2.30026e-14 0)
(3 4.2923e-14 0)
(3 9.81051e-15 0)
(3 3.91918e-14 0)
(3 -9.84323e-14 0)
(3 -1.32832e-13 0)
(3 -1.34607e-13 0)
(3 -1.60252e-08 0)
(1.93213 0.379269 0)
(0.847082 0.381055 0)
(0.747477 0.357123 0)
(0.72565 0.350952 0)
(0.70837 0.356003 0)
(0.692367 0.364131 0)
(0.677404 0.375355 0)
(0.662754 0.38952 0)
(0.649064 0.406834 0)
(0.635325 0.425039 0)
(0.616501 0.440424 0)
(0.592834 0.454979 0)
(0.565631 0.472281 0)
(0.53345 0.488066 0)
(0.497973 0.505205 0)
(0.459815 0.521252 0)
(0.424156 0.548195 0)
(0.384895 0.579571 0)
(0.346369 0.62405 0)
(0.297052 0.672308 0)
(0.251256 0.741765 0)
(0.168266 0.786762 0)
(0.111591 0.820702 0)
(3 -1.34386e-14 0)
(3 -1.96143e-14 0)
(3 -1.24858e-14 0)
(3 -5.38926e-15 0)
(3 2.88534e-14 0)
(3 6.51066e-14 0)
(3 1.11666e-14 0)
(3 -2.63209e-14 0)
(3 -1.02215e-13 0)
(3 -1.50336e-13 0)
(3 -1.68588e-13 0)
(3 -4.64724e-14 0)
(3 1.8419e-14 0)
(3 -7.99242e-15 0)
(3 -3.06287e-15 0)
(3 1.9996e-15 0)
(3 3.35402e-14 0)
(3 6.5362e-14 0)
(3 5.846e-14 0)
(3 2.82171e-14 0)
(3 3.38273e-14 0)
(3 6.27013e-14 0)
(3 -4.43164e-14 0)
(3 -9.47129e-14 0)
(3 -3.43975e-09 0)
(2.46635 0.356635 0)
(0.938264 0.439175 0)
(0.80844 0.374486 0)
(0.773775 0.369471 0)
(0.740053 0.375863 0)
(0.71182 0.383119 0)
(0.689121 0.393957 0)
(0.669968 0.40705 0)
(0.654079 0.423053 0)
(0.64071 0.441633 0)
(0.627014 0.46108 0)
(0.609611 0.480341 0)
(0.590634 0.502602 0)
(0.565259 0.52416 0)
(0.536666 0.546441 0)
(0.501982 0.564943 0)
(0.468706 0.594118 0)
(0.432592 0.628742 0)
(0.401727 0.678726 0)
(0.358174 0.735 0)
(0.317059 0.833208 0)
(0.207626 0.943459 0)
(0.160847 1.03786 0)
(3 1.35302e-14 0)
(3 4.98005e-15 0)
(3 1.65194e-14 0)
(3 2.30317e-14 0)
(3 1.79552e-14 0)
(3 2.97822e-14 0)
(3 -3.16127e-14 0)
(3 -2.22903e-14 0)
(3 -4.57317e-14 0)
(3 -1.84354e-14 0)
(3 2.63345e-14 0)
(3 3.50972e-14 0)
(3 -2.67671e-15 0)
(3 -5.49411e-16 0)
(3 1.1053e-14 0)
(3 -9.85023e-16 0)
(3 -1.2005e-16 0)
(3 4.13221e-15 0)
(3 -8.21735e-16 0)
(3 -2.22439e-14 0)
(3 -2.49091e-15 0)
(3 3.61234e-14 0)
(3 -2.6031e-15 0)
(3 2.4668e-14 0)
(3 -3.57348e-10 0)
(3.00668 0.108508 0)
(1.13315 0.434671 0)
(0.873739 0.40555 0)
(0.845587 0.403863 0)
(0.79817 0.408373 0)
(0.754433 0.412086 0)
(0.719426 0.417933 0)
(0.6917 0.427495 0)
(0.670065 0.441329 0)
(0.65296 0.458735 0)
(0.639662 0.479095 0)
(0.624955 0.50085 0)
(0.611121 0.526715 0)
(0.593869 0.553977 0)
(0.573936 0.582679 0)
(0.545979 0.606489 0)
(0.518839 0.639032 0)
(0.48749 0.675227 0)
(0.464983 0.731076 0)
(0.428657 0.808302 0)
(0.411861 0.942648 0)
(0.396708 1.09316 0)
(0.540587 1.34633 0)
(3 1.75514e-14 0)
(3 2.72554e-14 0)
(3 1.82193e-14 0)
(3 1.69965e-14 0)
(3 1.79039e-14 0)
(3 1.51455e-14 0)
(3 1.65116e-14 0)
(3 3.54714e-14 0)
(3 3.03274e-14 0)
(3 2.9504e-14 0)
(3 4.08273e-14 0)
(3 1.3505e-14 0)
(3 -2.33094e-14 0)
(3 8.69041e-15 0)
(3 2.26538e-14 0)
(3 1.33442e-14 0)
(3 -4.81718e-14 0)
(3 -1.50564e-13 0)
(3 -1.4651e-13 0)
(3 -9.25848e-14 0)
(3 -8.67743e-15 0)
(3 2.61581e-14 0)
(3 1.81397e-14 0)
(3 7.53122e-14 0)
(3 -1.43869e-11 0)
(3.02622 0.00400521 0)
(1.28575 0.40866 0)
(0.87593 0.43588 0)
(0.854205 0.454194 0)
(0.822852 0.454094 0)
(0.790657 0.450371 0)
(0.75648 0.451118 0)
(0.72442 0.455144 0)
(0.697167 0.464503 0)
(0.674682 0.478158 0)
(0.658403 0.497236 0)
(0.643695 0.5191 0)
(0.632644 0.546429 0)
(0.620486 0.577405 0)
(0.609523 0.611695 0)
(0.590521 0.642476 0)
(0.572599 0.67977 0)
(0.548986 0.718812 0)
(0.536196 0.779215 0)
(0.525681 0.86843 0)
(0.539204 1.00676 0)
(0.626053 1.15844 0)
(0.933193 1.35181 0)
(3 1.09681e-14 0)
(3 1.52594e-14 0)
(3 -3.50416e-14 0)
(3 -2.18589e-14 0)
(3 -3.61865e-14 0)
(3 -7.65238e-14 0)
(3 -3.09249e-14 0)
(3 -2.69425e-14 0)
(3 2.64154e-14 0)
(3 -4.40025e-14 0)
(3 -6.59805e-14 0)
(3 -4.057e-14 0)
(3 1.46571e-14 0)
(3 1.63859e-14 0)
(3 3.00243e-14 0)
(3 1.63365e-14 0)
(3 -4.19548e-15 0)
(3 -2.79147e-14 0)
(3 -6.40855e-14 0)
(3 -1.59005e-14 0)
(3 -3.13065e-14 0)
(3 -6.11008e-14 0)
(3 -1.15668e-13 0)
(3 -9.58441e-14 0)
(3 -3.93547e-13 0)
(3.00048 -7.33896e-06 0)
(1.54176 0.422137 0)
(0.854505 0.450521 0)
(0.835549 0.465128 0)
(0.817935 0.472747 0)
(0.800803 0.476925 0)
(0.779566 0.481775 0)
(0.753841 0.486044 0)
(0.727942 0.493456 0)
(0.703044 0.502842 0)
(0.683758 0.518802 0)
(0.666829 0.538541 0)
(0.656528 0.565001 0)
(0.646972 0.59698 0)
(0.642973 0.634625 0)
(0.633474 0.672048 0)
(0.626861 0.714269 0)
(0.615026 0.757512 0)
(0.613802 0.818642 0)
(0.627486 0.907112 0)
(0.674367 1.02727 0)
(0.824446 1.16444 0)
(1.15159 1.2819 0)
(3 4.13421e-15 0)
(3 7.53432e-15 0)
(3 2.90005e-14 0)
(3 6.19118e-14 0)
(3 4.87805e-14 0)
(3 -1.00659e-14 0)
(3 -1.6162e-14 0)
(3 2.34638e-14 0)
(3 4.92329e-14 0)
(3 3.90176e-14 0)
(3 -5.3236e-15 0)
(3 -1.84947e-15 0)
(3 1.53879e-14 0)
(3 -3.0111e-14 0)
(3 -2.78022e-14 0)
(3 1.31146e-15 0)
(3 1.56649e-14 0)
(3 4.12994e-16 0)
(3 -1.84999e-14 0)
(3 -4.8191e-15 0)
(3 -5.72613e-14 0)
(3 -1.19195e-13 0)
(3 -1.8332e-13 0)
(3 -1.83318e-13 0)
(3 -6.97437e-14 0)
(3.00001 -4.52559e-06 0)
(2.01879 0.452514 0)
(0.898201 0.490539 0)
(0.825182 0.473209 0)
(0.820094 0.483599 0)
(0.808213 0.493204 0)
(0.794522 0.502742 0)
(0.776455 0.510662 0)
(0.7569 0.520256 0)
(0.734867 0.528687 0)
(0.715187 0.542411 0)
(0.696888 0.558817 0)
(0.685343 0.582741 0)
(0.676824 0.613179 0)
(0.676608 0.651318 0)
(0.674956 0.693222 0)
(0.679418 0.739474 0)
(0.681671 0.787036 0)
(0.694132 0.845587 0)
(0.724152 0.926146 0)
(0.800142 1.03028 0)
(0.96961 1.13711 0)
(1.25599 1.20514 0)
(3 -2.85563e-15 0)
(3 1.73711e-14 0)
(3 3.09623e-14 0)
(3 4.83253e-14 0)
(3 8.99969e-14 0)
(3 7.91483e-14 0)
(3 3.40203e-14 0)
(3 7.08434e-15 0)
(3 -1.28018e-14 0)
(3 1.31836e-14 0)
(3 -2.19523e-15 0)
(3 -2.88404e-14 0)
(3 -2.238e-14 0)
(3 -5.10612e-14 0)
(3 -1.81191e-14 0)
(3 1.63626e-14 0)
(3 -1.68202e-15 0)
(3 -2.41948e-14 0)
(3 -3.88129e-14 0)
(3 -8.34494e-14 0)
(3 -6.22566e-14 0)
(3 -6.31737e-14 0)
(3 -8.35779e-14 0)
(3 -6.49333e-14 0)
(3 -3.33732e-14 0)
(3 -1.13764e-06 0)
(2.71584 0.316434 0)
(1.04318 0.546568 0)
(0.877183 0.483554 0)
(0.851937 0.493342 0)
(0.83048 0.507648 0)
(0.813842 0.520196 0)
(0.797375 0.531041 0)
(0.782445 0.543703 0)
(0.765019 0.554324 0)
(0.748105 0.568284 0)
(0.731082 0.582562 0)
(0.718416 0.603355 0)
(0.710209 0.630551 0)
(0.711482 0.666138 0)
(0.715393 0.708383 0)
(0.728424 0.756499 0)
(0.743997 0.807724 0)
(0.770351 0.864184 0)
(0.814298 0.933767 0)
(0.906482 1.01944 0)
(1.06898 1.09628 0)
(1.31092 1.14 0)
(3 5.49726e-15 0)
(3 1.64576e-14 0)
(3 1.03011e-14 0)
(3 -2.41002e-15 0)
(3 -3.16382e-14 0)
(3 -3.58595e-14 0)
(3 -4.18226e-14 0)
(3 -1.17494e-13 0)
(3 -1.00808e-13 0)
(3 -4.84422e-14 0)
(3 -3.0152e-14 0)
(3 -5.44125e-14 0)
(3 -7.15384e-14 0)
(3 -5.94101e-14 0)
(3 -6.72776e-15 0)
(3 -6.99399e-15 0)
(3 -1.30656e-14 0)
(3 2.93304e-14 0)
(3 2.41043e-14 0)
(3 -1.36753e-14 0)
(3 -2.15912e-14 0)
(3 5.64853e-14 0)
(3 4.58457e-14 0)
(3 2.07972e-14 0)
(3 6.33401e-14 0)
(3 -1.07962e-07 0)
(3.07553 0.0324579 0)
(1.30514 0.524341 0)
(0.932238 0.519214 0)
(0.896616 0.527703 0)
(0.866697 0.530324 0)
(0.842662 0.537913 0)
(0.823722 0.547969 0)
(0.809744 0.561459 0)
(0.795538 0.574425 0)
(0.782232 0.589997 0)
(0.768213 0.604733 0)
(0.756437 0.623579 0)
(0.748263 0.647115 0)
(0.749313 0.678927 0)
(0.756262 0.7183 0)
(0.7741 0.764642 0)
(0.799361 0.816278 0)
(0.836975 0.871447 0)
(0.893126 0.933393 0)
(0.990747 0.998962 0)
(1.13705 1.05275 0)
(1.33185 1.08056 0)
(3 9.24774e-15 0)
(3 5.73939e-15 0)
(3 2.00933e-14 0)
(3 1.8623e-14 0)
(3 -2.26812e-14 0)
(3 -6.35886e-15 0)
(3 1.9492e-14 0)
(3 1.78029e-14 0)
(3 -7.98094e-15 0)
(3 -5.3796e-15 0)
(3 -3.63445e-15 0)
(3 -1.28172e-14 0)
(3 -3.59165e-14 0)
(3 -1.98787e-14 0)
(3 3.57465e-15 0)
(3 -9.00231e-15 0)
(3 -1.42378e-15 0)
(3 -3.69058e-15 0)
(3 4.10823e-14 0)
(3 3.63019e-14 0)
(3 5.89836e-16 0)
(3 -2.29707e-15 0)
(3 1.35924e-14 0)
(3 -1.7618e-15 0)
(3 1.01483e-13 0)
(3 -4.29984e-09 0)
(3.00586 3.60126e-05 0)
(1.5639 0.508428 0)
(0.918676 0.575016 0)
(0.890778 0.559525 0)
(0.875385 0.560962 0)
(0.859016 0.565237 0)
(0.843552 0.57125 0)
(0.831105 0.58259 0)
(0.82021 0.595577 0)
(0.811375 0.611703 0)
(0.802119 0.627561 0)
(0.794393 0.646038 0)
(0.788197 0.666448 0)
(0.789385 0.693997 0)
(0.798227 0.728777 0)
(0.818416 0.77037 0)
(0.849046 0.818354 0)
(0.894254 0.870258 0)
(0.959118 0.927351 0)
(1.05755 0.978849 0)
(1.18742 1.01738 0)
(1.34828 1.03642 0)
(3 -9.4803e-15 0)
(3 -2.17694e-14 0)
(3 -2.13056e-14 0)
(3 -9.13643e-15 0)
(3 3.27642e-14 0)
(3 4.63131e-14 0)
(3 6.21827e-14 0)
(3 6.70861e-14 0)
(3 5.04471e-14 0)
(3 2.06449e-14 0)
(3 -5.37613e-15 0)
(3 -2.91057e-14 0)
(3 1.91093e-14 0)
(3 9.45923e-15 0)
(3 -2.50171e-14 0)
(3 -3.47731e-14 0)
(3 -8.16553e-15 0)
(3 8.25309e-14 0)
(3 8.70942e-14 0)
(3 2.79609e-14 0)
(3 -1.06182e-14 0)
(3 -4.98352e-14 0)
(3 -1.67702e-14 0)
(3 3.25768e-14 0)
(3 7.4052e-14 0)
(3 -6.96011e-11 0)
(3.00003 -1.20443e-06 0)
(2.1895 0.498718 0)
(0.978728 0.604194 0)
(0.911522 0.562115 0)
(0.903891 0.569046 0)
(0.889405 0.58026 0)
(0.873287 0.588076 0)
(0.859583 0.599088 0)
(0.848687 0.611571 0)
(0.84167 0.627725 0)
(0.835729 0.644659 0)
(0.832305 0.663992 0)
(0.829539 0.683358 0)
(0.831691 0.707404 0)
(0.841438 0.737516 0)
(0.862121 0.773509 0)
(0.894231 0.815439 0)
(0.94204 0.861186 0)
(1.00952 0.911368 0)
(1.10444 0.95458 0)
(1.22183 0.984796 0)
(1.35967 0.998104 0)
(3 -1.41357e-14 0)
(3 -1.51408e-14 0)
(3 -5.28992e-15 0)
(3 -1.97955e-14 0)
(3 -2.77962e-14 0)
(3 -5.77755e-14 0)
(3 -4.84589e-14 0)
(3 -1.76003e-14 0)
(3 -2.34821e-14 0)
(3 1.04176e-14 0)
(3 3.33904e-14 0)
(3 -1.30468e-14 0)
(3 -4.08832e-14 0)
(3 -6.97692e-14 0)
(3 -8.35562e-14 0)
(3 -6.62464e-14 0)
(3 -4.77006e-15 0)
(3 5.96843e-14 0)
(3 6.3076e-14 0)
(3 7.76315e-14 0)
(3 7.6622e-14 0)
(3 4.50817e-14 0)
(3 2.0517e-14 0)
(3 4.45052e-14 0)
(3 9.23585e-14 0)
(3 -6.23086e-14 0)
(3 -1.59175e-06 0)
(2.98716 0.173012 0)
(1.20199 0.598245 0)
(0.966363 0.575296 0)
(0.948156 0.588466 0)
(0.929905 0.600983 0)
(0.909808 0.607924 0)
(0.893878 0.617924 0)
(0.880438 0.628978 0)
(0.872519 0.644189 0)
(0.867702 0.661034 0)
(0.867294 0.680659 0)
(0.868738 0.700551 0)
(0.873523 0.72235 0)
(0.884595 0.748455 0)
(0.905555 0.779352 0)
(0.937998 0.814944 0)
(0.986126 0.853436 0)
(1.05262 0.89452 0)
(1.14078 0.931427 0)
(1.24894 0.957404 0)
(1.36921 0.968496 0)
(3 9.85662e-15 0)
(3 4.72924e-15 0)
(3 -1.48105e-14 0)
(3 -2.00893e-15 0)
(3 -2.00645e-14 0)
(3 -6.72507e-14 0)
(3 -5.45916e-14 0)
(3 -1.065e-14 0)
(3 5.21616e-15 0)
(3 1.90368e-14 0)
(3 5.53023e-14 0)
(3 6.13578e-14 0)
(3 1.03563e-15 0)
(3 -2.02019e-14 0)
(3 -3.81453e-14 0)
(3 5.32784e-16 0)
(3 -3.83335e-14 0)
(3 -7.47439e-14 0)
(3 -2.16394e-14 0)
(3 3.19413e-14 0)
(3 4.74791e-14 0)
(3 1.12342e-14 0)
(3 -1.42538e-14 0)
(3 -4.04846e-14 0)
(3 -2.73903e-14 0)
(3 -1.74648e-14 0)
(3 -3.41819e-07 0)
(3.03933 0.00518165 0)
(1.43103 0.568753 0)
(0.978592 0.628803 0)
(0.950143 0.620158 0)
(0.936835 0.62924 0)
(0.926055 0.634476 0)
(0.917094 0.642384 0)
(0.907759 0.650185 0)
(0.90144 0.662013 0)
(0.898365 0.676324 0)
(0.900066 0.694194 0)
(0.905232 0.713792 0)
(0.913647 0.734462 0)
(0.926753 0.757024 0)
(0.947827 0.783121 0)
(0.979773 0.812634 0)
(1.02605 0.844194 0)
(1.088 0.876165 0)
(1.16644 0.906156 0)
(1.26381 0.928875 0)
(1.36808 0.938111 0)
(3 1.01287e-14 0)
(3 -1.45767e-15 0)
(3 -3.32975e-14 0)
(3 -8.23442e-15 0)
(3 3.85326e-14 0)
(3 3.31865e-14 0)
(3 3.484e-14 0)
(3 3.19828e-14 0)
(3 4.90894e-14 0)
(3 6.44024e-14 0)
(3 3.48181e-14 0)
(3 8.50909e-15 0)
(3 6.08299e-15 0)
(3 4.38778e-14 0)
(3 4.11753e-14 0)
(3 3.03092e-14 0)
(3 -1.09058e-14 0)
(3 -6.56601e-14 0)
(3 -6.81309e-14 0)
(3 -5.68529e-14 0)
(3 -2.17524e-14 0)
(3 -6.09831e-15 0)
(3 1.79305e-14 0)
(3 3.33377e-15 0)
(3 3.48823e-19 0)
(3 3.8192e-14 0)
(3 -2.92081e-08 0)
(3.0008 -9.32521e-06 0)
(1.97932 0.561443 0)
(1.0113 0.662017 0)
(0.965069 0.630368 0)
(0.95933 0.635751 0)
(0.951909 0.645452 0)
(0.944772 0.656246 0)
(0.937682 0.665695 0)
(0.932454 0.677159 0)
(0.930133 0.690112 0)
(0.932419 0.706517 0)
(0.939269 0.725345 0)
(0.950674 0.745568 0)
(0.96599 0.766823 0)
(0.988248 0.789735 0)
(1.02058 0.814614 0)
(1.06482 0.840551 0)
(1.12156 0.86527 0)
(1.1926 0.888739 0)
(1.27877 0.90713 0)
(1.37115 0.913849 0)
(3 -7.83645e-15 0)
(3 -1.97229e-14 0)
(3 9.4251e-16 0)
(3 -1.81429e-14 0)
(3 -3.03261e-14 0)
(3 8.98103e-15 0)
(3 -2.25962e-14 0)
(3 -2.53171e-14 0)
(3 -1.61887e-14 0)
(3 -2.39036e-14 0)
(3 -4.01634e-14 0)
(3 -5.66891e-14 0)
(3 -3.45609e-14 0)
(3 -4.25255e-14 0)
(3 -1.96097e-14 0)
(3 -1.70871e-14 0)
(3 -2.59814e-14 0)
(3 -5.17924e-14 0)
(3 -1.97393e-14 0)
(3 2.21256e-15 0)
(3 5.60814e-15 0)
(3 -1.35377e-14 0)
(3 1.81553e-14 0)
(3 6.15029e-14 0)
(3 4.95737e-14 0)
(3 9.41805e-14 0)
(3 -2.12537e-10 0)
(3.00003 -1.15273e-05 0)
(2.86889 0.260253 0)
(1.19303 0.663304 0)
(1.00937 0.633297 0)
(0.998271 0.648915 0)
(0.988144 0.660341 0)
(0.977428 0.670926 0)
(0.969652 0.680562 0)
(0.964633 0.69201 0)
(0.962657 0.703784 0)
(0.964998 0.718128 0)
(0.971854 0.734878 0)
(0.98503 0.753649 0)
(1.00176 0.77276 0)
(1.02571 0.792799 0)
(1.05818 0.813591 0)
(1.09983 0.834709 0)
(1.15066 0.853754 0)
(1.21526 0.871898 0)
(1.28967 0.885483 0)
(1.37231 0.889259 0)
(3 -2.30612e-16 0)
(3 -2.2879e-14 0)
(3 -2.32118e-14 0)
(3 -3.226e-14 0)
(3 -7.37538e-14 0)
(3 -6.44646e-14 0)
(3 -8.14866e-14 0)
(3 -9.3045e-14 0)
(3 -6.95729e-14 0)
(3 -7.44005e-14 0)
(3 -8.87502e-14 0)
(3 -8.58723e-14 0)
(3 -8.30604e-14 0)
(3 -4.37598e-14 0)
(3 -3.82741e-14 0)
(3 -3.09313e-14 0)
(3 1.02576e-14 0)
(3 5.04846e-15 0)
(3 -3.12528e-14 0)
(3 -2.79309e-14 0)
(3 4.29415e-16 0)
(3 2.49514e-14 0)
(3 -1.00426e-14 0)
(3 -3.0196e-14 0)
(3 -7.52731e-14 0)
(3 -3.76056e-14 0)
(3 -2.95542e-13 0)
(3 -2.77684e-06 0)
(3.05688 0.0124584 0)
(1.46061 0.631941 0)
(1.02916 0.683621 0)
(1.00491 0.675424 0)
(0.998077 0.683838 0)
(0.993001 0.692659 0)
(0.990473 0.699965 0)
(0.989838 0.709781 0)
(0.991165 0.719662 0)
(0.995399 0.731921 0)
(1.003 0.74547 0)
(1.01636 0.762314 0)
(1.03493 0.780238 0)
(1.0601 0.798086 0)
(1.09273 0.81642 0)
(1.13239 0.83388 0)
(1.17927 0.849307 0)
(1.23865 0.863706 0)
(1.30436 0.872594 0)
(1.37893 0.874776 0)
(3 4.95097e-15 0)
(3 1.42215e-14 0)
(3 5.80139e-15 0)
(3 2.75288e-16 0)
(3 3.31846e-15 0)
(3 -1.25689e-14 0)
(3 -2.39549e-14 0)
(3 -3.52464e-14 0)
(3 -2.84614e-14 0)
(3 5.78964e-15 0)
(3 -3.83651e-14 0)
(3 -6.43881e-14 0)
(3 -4.86436e-14 0)
(3 6.79102e-14 0)
(3 4.74563e-14 0)
(3 1.10466e-14 0)
(3 7.17886e-15 0)
(3 3.48245e-14 0)
(3 -1.78956e-14 0)
(3 4.30085e-14 0)
(3 5.46492e-14 0)
(3 4.56575e-14 0)
(3 5.41794e-15 0)
(3 2.68358e-14 0)
(3 -6.11054e-14 0)
(3 -1.18617e-13 0)
(3 -1.10132e-16 0)
(3 -2.60501e-07 0)
(3.00169 1.43546e-05 0)
(2.08653 0.599283 0)
(1.07871 0.728649 0)
(1.02709 0.689107 0)
(1.02285 0.689624 0)
(1.01931 0.699294 0)
(1.0165 0.708412 0)
(1.01727 0.719316 0)
(1.02028 0.730046 0)
(1.02576 0.742089 0)
(1.03421 0.754045 0)
(1.04711 0.767896 0)
(1.06576 0.78335 0)
(1.09101 0.799242 0)
(1.12286 0.814884 0)
(1.1603 0.829061 0)
(1.2047 0.841554 0)
(1.25856 0.852577 0)
(1.31782 0.858434 0)
(1.38545 0.859746 0)
(3 -6.24977e-15 0)
(3 6.42131e-15 0)
(3 3.42749e-15 0)
(3 6.78294e-15 0)
(3 2.72019e-14 0)
(3 -5.99043e-15 0)
(3 2.34934e-15 0)
(3 2.1477e-14 0)
(3 -1.20514e-14 0)
(3 -2.13575e-14 0)
(3 -2.1831e-14 0)
(3 -1.80068e-14 0)
(3 -1.90156e-14 0)
(3 9.42217e-15 0)
(3 4.35641e-14 0)
(3 4.9925e-14 0)
(3 2.46005e-14 0)
(3 3.59931e-14 0)
(3 1.7864e-14 0)
(3 1.81085e-14 0)
(3 1.31723e-14 0)
(3 8.2505e-14 0)
(3 1.37358e-13 0)
(3 1.54821e-13 0)
(3 1.98616e-14 0)
(3 -3.86443e-14 0)
(3 3.62065e-14 0)
(3 -8.0093e-09 0)