/*--------------------------------*- C++ -*----------------------------------*\
  =========                 |
  \\      /  F ield         | OpenFOAM: The Open Source CFD Toolbox
   \\    /   O peration     | Website:  https://openfoam.org
    \\  /    A nd           | Version:  10
     \\/     M anipulation  |
\*---------------------------------------------------------------------------*/
FoamFile
{
    format      ascii;
    class       volScalarField;
    location    "9";
    object      p;
}
// * * * * * * * * * * * * * * * * * * * * * * * * * * * * * * * * * * * * * //

dimensions      [1 -1 -2 0 0 0 0];

internalField   nonuniform List<scalar> 
16128
(
1
1
1
1
1
1
1
1
1
1
1
1
1
1
1
1
1
1
1
1
1
1
1
1
4.94766
10.2683
10.5322
10.6189
10.7345
10.8391
10.942
11.0406
11.1345
11.2244
11.3116
11.3955
11.4743
11.5472
11.6161
11.6833
11.7482
11.8064
11.8566
11.9004
11.9429
11.9776
11.9997
12.018
1
1
1
1
1
1
1
1
1
1
1
1
1
1
1
1
1
1
1
1
1
1
1
1
4.87018
10.2319
10.5257
10.6142
10.7298
10.8343
10.9368
11.035
11.1287
11.2185
11.3052
11.388
11.4659
11.5388
11.6079
11.6743
11.737
11.793
11.8433
11.8889
11.9326
11.9651
11.982
11.998
1
1
1
1
1
1
1
1
1
1
1
1
1
1
1
1
1
1
1
1
1
1
1
1
4.7001
10.1893
10.5098
10.6009
10.7172
10.8224
10.925
11.0232
11.1173
11.2073
11.2933
11.3751
11.4527
11.5264
11.5959
11.6607
11.7202
11.7742
11.8253
11.8727
11.9152
11.9429
11.9508
11.9705
1
1
1
1
1
1
1
1
1
1
1
1
1
1
1
1
1
1
1
1
1
1
1
1
4.45265
10.1206
10.4911
10.5844
10.701
10.806
10.9078
11.0053
11.099
11.1886
11.2735
11.3541
11.4312
11.5052
11.5747
11.6379
11.6954
11.749
11.802
11.8502
11.8876
11.9085
11.9011
11.9354
1
1
1
1
1
1
1
1
1
1
1
1
1
1
1
1
1
1
1
1
1
1
1
1
4.13324
10.0168
10.4687
10.5637
10.6804
10.785
10.8856
10.9817
11.0743
11.163
11.2468
11.3256
11.4011
11.474
11.5425
11.6041
11.66
11.7131
11.7663
11.814
11.8492
11.8734
11.8522
11.898
1
1
1
1
1
1
1
1
1
1
1
1
1
1
1
1
1
1
1
1
1
1
1
1
3.74321
9.86567
10.4445
10.5413
10.6583
10.7627
10.8624
10.9573
11.0485
11.136
11.2186
11.2955
11.3686
11.439
11.5051
11.5646
11.6188
11.6702
11.7202
11.7623
11.7889
11.8107
11.8129
11.8353
1
1
1
1
1
1
1
1
1
1
1
1
1
1
1
1
1
1
1
1
1
1
1
1
3.29864
9.64402
10.4182
10.5144
10.6308
10.7336
10.8317
10.9247
11.0138
11.0992
11.1802
11.2551
11.3255
11.3929
11.4565
11.5144
11.5674
11.6164
11.6621
11.6992
11.7225
11.7453
11.7533
11.7712
1
1
1
1
1
1
1
1
1
1
1
1
1
1
1
1
1
1
1
1
1
1
1
1
2.81419
9.32888
10.3991
10.4884
10.6018
10.7003
10.7945
10.8834
10.9688
11.0509
11.1297
11.2026
11.2705
11.3348
11.3957
11.4519
11.5038
11.5512
11.5939
11.6275
11.6475
11.6634
11.6611
11.6949
1
1
1
1
1
1
1
1
1
1
1
1
1
1
1
1
1
1
1
1
1
1
1
1
2.32163
8.90337
10.4093
10.4662
10.5756
10.6691
10.7607
10.8463
10.9275
11.0051
11.0799
11.149
11.2125
11.2717
11.3279
11.3799
11.428
11.4712
11.5096
11.5405
11.5608
11.5773
11.55
11.5986
1
1
1
1
1
1
1
1
1
1
1
1
1
1
1
1
1
1
1
1
1
1
1
1
1.82066
8.33116
10.4192
10.4399
10.5458
10.6307
10.7179
10.8006
10.8793
10.9532
11.0241
11.0894
11.1483
11.2015
11.2512
11.2971
11.3396
11.3781
11.4123
11.4395
11.4546
11.4634
11.4206
11.4793
1
1
1
1
1
1
1
1
1
1
1
1
1
1
1
1
1
1
1
1
1
1
1
1
1.35382
7.68827
10.4674
10.3884
10.4883
10.5712
10.6613
10.7442
10.8207
10.8919
10.9592
11.021
11.0758
11.1233
11.1661
11.2043
11.2386
11.2687
11.2936
11.3122
11.3204
11.3216
11.268
11.3374
1
1
1
1
1
1
1
1
1
1
1
1
1
1
1
1
1
1
1
1
1
1
1
1
1.0224
6.90044
10.3238
10.3178
10.4179
10.5003
10.5868
10.6705
10.7501
10.8208
10.8843
10.9421
10.9926
11.0344
11.0697
11.0989
11.1226
11.1427
11.1578
11.1693
11.1685
11.153
11.0823
11.1355
1
1
1
1
1
1
1
1
1
1
1
1
1
1
1
1
1
1
1
1
1
1
1
1
1.00012
5.86511
10.1008
10.2317
10.3445
10.442
10.5277
10.6056
10.6707
10.7365
10.7972
10.8507
10.8966
10.9327
10.9605
10.9802
10.9924
10.9999
10.9979
10.9888
10.9607
10.9233
10.8348
10.8978
1
1
1
1
1
1
1
1
1
1
1
1
1
1
1
1
1
1
1
1
1
1
1
1
0.999999
4.8107
9.82937
10.145
10.2594
10.3616
10.4427
10.5145
10.5824
10.6428
10.6951
10.7431
10.7837
10.814
10.8345
10.8444
10.8421
10.8331
10.8096
10.7799
10.7317
10.6705
10.5422
10.5196
1
1
1
1
1
1
1
1
1
1
1
1
1
1
1
1
1
1
1
1
1
1
1
1
1
3.71556
9.40435
10.099
10.2268
10.3169
10.3865
10.4429
10.493
10.5398
10.5866
10.6261
10.6579
10.6812
10.6933
10.6904
10.6729
10.6455
10.5962
10.5326
10.4258
10.2719
10.0577
9.99752
1
1
1
1
1
1
1
1
1
1
1
1
1
1
1
1
1
1
1
1
1
1
1
1
1
2.62552
8.74352
10.0878
10.169
10.2487
10.317
10.3701
10.4125
10.4482
10.4787
10.5058
10.5252
10.5377
10.5356
10.5191
10.4843
10.4326
10.347
10.2352
10.0656
9.86656
9.55323
9.50617
1
1
1
1
1
1
1
1
1
1
1
1
1
1
1
1
1
1
1
1
1
1
1
1
1
1.59984
7.94014
10.1717
10.1184
10.1911
10.249
10.2913
10.3248
10.3522
10.3732
10.3887
10.3942
10.3927
10.3714
10.3377
10.2802
10.2002
10.0764
9.91997
9.66302
9.29514
8.38219
6.35879
1
1
1
1
1
1
1
1
1
1
1
1
1
1
1
1
1
1
1
1
1
1
1
1
1
1.04722
6.76502
10.1192
10.0435
10.0899
10.1501
10.1953
10.2277
10.25
10.2618
10.2659
10.2592
10.2405
10.2016
10.1484
10.0651
9.9547
9.78895
9.56669
9.21067
8.59168
7.61988
5.35147
1
1
1
1
1
1
1
1
1
1
1
1
1
1
1
1
1
1
1
1
1
1
1
1
1
1.00012
5.19499
9.64521
9.86564
9.97514
10.0387
10.0872
10.1228
10.1413
10.1469
10.1416
10.1218
10.0879
10.0319
9.95828
9.84724
9.7047
9.49776
9.20989
8.78378
8.10885
7.01103
5.08971
1
1
1
1
1
1
1
1
1
1
1
1
1
1
1
1
1
1
1
1
1
1
1
1
1
0.999998
3.65551
9.19629
9.85332
9.92678
9.97704
10.0019
10.0232
10.0315
10.0292
10.0147
9.98156
9.93284
9.85966
9.7653
9.63069
9.45813
9.21554
8.88194
8.40079
7.72072
6.59359
5.06248
1
1
1
1
1
1
1
1
1
1
1
1
1
1
1
1
1
1
1
1
1
1
1
1
1
1
2.18701
8.38548
9.86634
9.85654
9.89292
9.91769
9.93425
9.93004
9.91577
9.88822
9.84149
9.77863
9.68863
9.5745
9.4211
9.22244
8.95264
8.5911
8.09288
7.40966
6.37016
5.17613
1
1
1
1
1
1
1
1
1
1
1
1
1
1
1
1
1
1
1
1
1
1
1
1
1
1
1.14927
7.13616
9.92414
9.82772
9.80836
9.82404
9.82976
9.81643
9.79357
9.75659
9.70054
9.62614
9.52183
9.39063
9.22096
9.00032
8.71439
8.33837
7.84607
7.17945
6.27692
5.29605
1
1
1
1
1
1
1
1
1
1
1
1
1
1
1
1
1
1
1
1
1
1
1
1
1
1
1.00194
5.43171
9.40997
9.62106
9.68033
9.70858
9.71187
9.69626
9.6667
9.62188
9.55704
9.47219
9.35733
9.21308
9.03063
8.79739
8.50255
8.12255
7.64225
7.01997
6.24764
5.41854
1
1
1
1
1
1
1
1
1
1
1
1
1
1
1
1
1
1
1
1
1
1
1
1
1
1
0.999975
3.45911
8.86566
9.56137
9.61437
9.6326
9.6213
9.5961
9.55626
9.50173
9.42634
9.33006
9.20541
9.04982
8.85575
8.61497
8.31744
7.94324
7.47641
6.90953
6.24606
5.5206
1
1
1
1
1
1
1
1
1
1
1
1
1
1
1
1
1
1
1
1
1
1
1
1
1
1
0.999994
1.7521
8.01396
9.62121
9.5534
9.54278
9.51837
9.48474
9.43722
9.37578
9.29316
9.18867
9.05598
8.8928
8.69234
8.4491
8.15466
7.79382
7.34423
6.83159
6.25067
5.6172
1
1
1
1
1
1
1
1
1
1
1
1
1
1
1
1
1
1
1
1
1
1
1
1
1
1
0.999999
1.05698
6.39368
9.40129
9.38231
9.40719
9.39134
9.36656
9.31979
9.25501
9.1677
9.05811
8.91982
8.75103
8.54607
8.30207
8.01227
7.66283
7.24162
6.77621
6.25482
5.69864
1
1
1
1
1
1
1
1
1
1
1
1
1
1
1
1
1
1
1
1
1
1
1
1
1
1
1
1.0001
4.13285
8.86916
9.30877
9.34151
9.31238
9.27691
9.22065
9.14672
9.05103
8.93384
8.79122
8.61974
8.41284
8.17411
7.88654
7.54701
7.16154
6.73485
6.26453
5.77097
1
1
1
1
1
1
1
1
1
1
1
1
1
1
1
1
1
1
1
1
1
1
1
1
1
1
1
0.999998
2.03194
8.12584
9.3317
9.25929
9.21277
9.17144
9.11421
9.03703
8.93692
8.81577
8.66844
8.49948
8.29165
8.05842
7.77252
7.44865
7.09252
6.70435
6.27062
5.82545
1
1
1
1
1
1
1
1
1
1
1
1
1
1
1
1
1
1
1
1
1
1
1
1
1
1
1
1
1.09524
6.37942
9.14016
9.13734
9.10729
9.06914
9.01226
8.93307
8.83025
8.70688
8.55868
8.38609
8.1863
7.9527
7.67848
7.37221
7.03781
6.68144
6.2785
5.87856
1
1
1
1
1
1
1
1
1
1
1
1
1
1
1
1
1
1
1
1
1
1
1
1
1
1
1
1
1.00048
3.83141
8.59908
9.05093
9.02716
8.99952
8.94161
8.85157
8.73884
8.60847
8.45645
8.28202
8.08792
7.8542
7.59525
7.30608
6.99271
6.65796
6.28514
5.92108
1
1
1
1
1
1
1
1
1
1
1
1
1
1
1
1
1
1
1
1
1
1
1
1
1
1
1
1
0.999996
1.60047
7.6909
9.18302
9.00255
8.92297
8.85026
8.75211
8.63841
8.51086
8.36237
8.18732
7.99801
7.77199
7.52592
7.25176
6.95882
6.64169
6.29859
5.95931
1
1
1
1
1
1
1
1
1
1
1
1
1
1
1
1
1
1
1
1
1
1
1
1
1
1
1
1
0.999999
1.0317
5.72729
8.75946
8.79283
8.81401
8.74637
8.64797
8.53907
8.41717
8.27205
8.10345
7.91271
7.69936
7.46344
7.20221
6.92639
6.62585
6.30907
5.98834
1
1
1
1
1
1
1
1
1
1
1
1
1
1
1
1
1
1
1
1
1
1
1
1
1
1
1
1
1
0.999945
2.95704
8.10073
8.78385
8.76067
8.67373
8.5789
8.47357
8.3505
8.20297
8.0341
7.84361
7.6349
7.40648
7.15874
6.8974
6.61392
6.31908
6.01562
1
1
1
1
1
1
1
1
1
1
1
1
1
1
1
1
1
1
1
1
1
1
1
1
1
1
1
1
1
0.999983
1.27139
6.66404
8.82839
8.6802
8.58724
8.49775
8.39635
8.2742
8.12797
7.96246
7.77866
7.57704
7.35633
7.11968
6.86899
6.60071
6.32262
6.03657
1
1
1
1
1
1
1
1
1
1
1
1
1
1
1
1
1
1
1
1
1
1
1
1
1
1
1
1
1
0.999997
1.00587
4.07955
8.25061
8.51318
8.48675
8.42935
8.33736
8.21597
8.07004
7.90649
7.72598
7.52816
7.31337
7.08376
6.842
6.58895
6.32542
6.05454
1
1
1
1
1
1
1
1
1
1
1
1
1
1
1
1
1
1
1
1
1
1
1
1
1
1
1
1
1
1
0.999981
1.59105
7.15765
8.64487
8.49463
8.39751
8.28814
8.15683
8.00928
7.84854
7.67244
7.48005
7.27365
7.05261
6.82072
6.57982
6.32747
6.06629
1
1
1
1
1
1
1
1
1
1
1
1
1
1
1
1
1
1
1
1
1
1
1
1
1
1
1
1
1
1
0.999995
1.02881
4.85202
8.25182
8.34528
8.30041
8.20829
8.0876
7.94859
7.79465
7.62392
7.43755
7.2383
7.02449
6.80017
6.56686
6.323
6.06995
1
1
1
1
1
1
1
1
1
1
1
1
1
1
1
1
1
1
1
1
1
1
1
1
1
1
1
1
1
1
0.999999
1.00002
1.91089
7.3918
8.45347
8.3039
8.17804
8.04778
7.90499
7.74931
7.57915
7.39686
7.20362
6.99681
6.77938
6.55237
6.31784
6.0783
1
1
1
1
1
1
1
1
1
1
1
1
1
1
1
1
1
1
1
1
1
1
1
1
1
1
1
1
1
1
1
1
1.06446
5.29862
8.18183
8.18961
8.10385
7.98525
7.84749
7.69527
7.53015
7.35505
7.16852
6.9677
6.7539
6.53459
6.3137
6.10638
1
1
1
1
1
1
1
1
1
1
1
1
1
1
1
1
1
1
1
1
1
1
1
1
1
1
1
1
1
1
1
1
1.00026
2.19191
7.37329
8.21886
8.07559
7.94769
7.80727
7.65614
7.49466
7.32511
7.14142
6.9395
6.73096
6.52743
6.35684
6.2495
1
1
1
1
1
1
1
1
1
1
1
1
1
1
1
1
1
1
1
1
1
1
1
1
1
1
1
1
1
1
1
1
1
1.10418
5.38649
8.05071
8.00971
7.89172
7.75788
7.61165
7.45651
7.28741
7.10088
6.90202
6.70754
6.56748
6.52559
6.61749
1
1
1
1
1
1
1
1
1
1
1
1
1
1
1
1
1
1
1
1
1
1
1
1
1
1
1
1
1
1
1
1
1
1.00082
2.25125
7.19409
8.01598
7.86045
7.72623
7.58211
7.4268
7.25274
7.0631
6.88015
6.77727
6.79159
6.96295
7.16583
1
1
1
1
1
1
1
1
1
1
1
1
1
1
1
1
1
1
1
1
1
1
1
1
1
1
1
1
1
1
1
1
1
1
1.11288
5.18771
7.86352
7.81076
7.6809
7.54182
7.38448
7.20446
7.02933
6.93677
7.01035
7.27325
7.52246
7.65196
1
1
1
1
1
1
1
1
1
1
1
1
1
1
1
1
1
1
1
1
1
1
1
1
1
1
1
1
1
1
1
1
1
1
1.00108
2.15561
6.88611
7.7946
7.64528
7.51762
7.34618
7.17302
7.0939
7.20711
7.57686
7.88638
7.9701
7.92608
1
1
1
1
1
1
1
1
1
1
1
1
1
1
1
1
1
1
1
1
1
1
1
1
1
1
1
1
1
1
1
1
1
1
1
1.09564
4.66217
7.59951
7.62413
7.47255
7.29198
7.1974
7.34761
7.81114
8.2399
8.33933
8.23793
8.07957
1
1
1
1
1
1
1
1
1
1
1
1
1
1
1
1
1
1
1
1
1
1
1
1
1
1
1
1
1
1
1
1
1
1
1
1.00095
1.88509
6.40552
7.64558
7.40474
7.28516
7.46037
8.04007
8.55868
8.69907
8.56101
8.38874
8.20643
1
1
1
1
1
1
1
1
1
1
1
1
1
1
1
1
1
1
1
1
1
1
1
1
1
1
1
1
1
1
1
1
1
1
1
1
1.05764
3.81685
7.31275
7.25809
7.47716
8.2017
8.87327
9.08939
8.93134
8.68354
8.49731
8.32948
1
1
1
1
1
1
1
1
1
1
1
1
1
1
1
1
1
1
1
1
1
1
1
1
1
1
1
1
1
1
1
1
1
1
1
1
1.00052
1.5309
5.74232
7.27654
8.37315
9.21041
9.44671
9.30385
9.03381
8.79085
8.63115
8.4837
1
1
1
1
1
1
1
1
1
1
1
1
1
1
1
1
1
1
1
1
1
1
1
1
1
1
1
1
1
1
1
1
1
1
1
1
1
1.02262
2.73889
7.1951
9.6153
9.84795
9.688
9.38222
9.09581
8.88867
8.76473
8.63771
1
1
1
1
1
1
1
1
1
1
1
1
1
1
1
1
1
1
1
1
1
1
1
1
1
1
1
1
1
1
1
1
1
1
1
1
1
1.00018
1.20554
6.8368
10.4888
10.0653
9.71569
9.43745
9.22467
9.05435
8.93184
8.79811
1
1
1
1
1
1
1
1
1
1
1
1
1
1
1
1
1
1
1
1
1
1
1
1
1
1
1
1
1
1
1
1
1
1
1
1
1
1
1.00392
5.58658
10.3608
9.97107
9.72068
9.55334
9.35861
9.17221
9.0598
8.94493
1
1
1
1
1
1
1
1
1
1
1
1
1
1
1
1
1
1
1
1
1
1
1
1
1
1
1
1
1
1
1
1
1
1
1
1
1
1
1.00001
4.40686
10.0301
9.96458
9.816
9.67353
9.49749
9.33957
9.2166
9.07818
1
1
1
1
1
1
1
1
1
1
1
1
1
1
1
1
1
1
1
1
1
1
1
1
1
1
1
1
1
1
1
1
1
1
1
1
1
1
1
3.32152
9.29756
9.964
9.90806
9.75959
9.60851
9.45598
9.31827
9.20115
1
1
1
1
1
1
1
1
1
1
1
1
1
1
1
1
1
1
1
1
1
1
1
1
1
1
1
1
1
1
1
1
1
1
1
1
1
1
1
2.30158
8.62145
10.0501
9.90211
9.82474
9.69951
9.58126
9.46487
9.33195
1
1
1
1
1
1
1
1
1
1
1
1
1
1
1
1
1
1
1
1
1
1
1
1
1
1
1
1
1
1
1
1
1
1
1
1
1
1
1
1.41013
7.82208
10.1849
9.97831
9.87552
9.77556
9.66425
9.54678
9.41605
1
1
1
1
1
1
1
1
1
1
1
1
1
1
1
1
1
1
1
1
1
1
1
1
1
1
1
1
1
1
1
1
1
1
1
1
1
1
1
1.02116
6.88264
10.1542
9.97699
9.87942
9.79935
9.71037
9.60792
9.48863
1
1
1
1
1
1
1
1
1
1
1
1
1
1
1
1
1
1
1
1
1
1
1
1
1
1
1
1
1
1
1
1
1
1
1
1
1
1
1
1.00003
5.72954
9.97047
9.96449
9.88904
9.81727
9.72911
9.63319
9.53106
1
1
1
1
1
1
1
1
1
1
1
1
1
1
1
1
1
1
1
1
1
1
1
1
1
1
1
1
1
1
1
1
1
1
1
1
1
1
1
1
4.62148
9.74505
10.0083
9.93217
9.86116
9.76796
9.66877
9.56681
1
1
1
1
1
1
1
1
1
1
1
1
1
1
1
1
1
1
1
1
1
1
1
1
1
1
1
1
1
1
1
1
1
1
1
1
1
1
1
1
3.65266
9.39959
10.0245
9.9382
9.88038
9.79552
9.7069
9.61256
1
1
1
1
1
1
1
1
1
1
1
1
1
1
1
1
1
1
1
1
1
1
1
1
1
1
1
1
1
1
1
1
1
1
1
1
1
1
1
1
2.76885
8.95196
10.1273
10.0044
9.93243
9.83526
9.73965
9.64164
1
1
1
1
1
1
1
1
1
1
1
1
1
1
1
1
1
1
1
1
1
1
1
1
1
1
1
1
1
1
1
1
1
1
1
1
1
1
1
1
1.97435
8.41008
10.2927
10.079
9.97619
9.87013
9.77169
9.67355
1
1
1
1
1
1
1
1
1
1
1
1
1
1
1
1
1
1
1
1
1
1
1
1
1
1
1
1
1
1
1
1
1
1
1
1
1
1
1
1
1.34673
7.74549
10.3463
10.1083
10.0019
9.89985
9.8022
9.70589
1
1
1
1
1
1
1
1
1
1
1
1
1
1
1
1
1
1
1
1
1
1
1
1
1
1
1
1
1
1
1
1
1
1
1
1
1
1
1
1
1.04927
7.13708
10.3595
10.1448
10.0289
9.92062
9.82492
9.7332
1
1
1
1
1
1
1
1
1
1
1
1
1
1
1
1
1
1
1
1
1
1
1
1
1
1
1
1
1
1
1
1
1
1
1
1
1
1
1
1
1.00079
6.40322
10.2487
10.1284
10.031
9.94414
9.85915
9.76911
1
1
1
1
1
1
1
1
1
1
1
1
1
1
1
1
1
1
1
1
1
1
1
1
1
1
1
1
1
1
1
1
1
1
1
1
1
1
1
1
1
5.66637
10.1256
10.1644
10.0591
9.97809
9.88706
9.79341
1
1
1
1
1
1
1
1
1
1
1
1
1
1
1
1
1
1
1
1
1
1
1
1
1
1
1
1
1
1
1
1
1
1
1
1
1
1
1
1
1
5.00739
9.96761
10.156
10.0533
9.98665
9.90443
9.81919
1
1
1
1
1
1
1
1
1
1
1
1
1
1
1
1
1
1
1
1
1
1
1
1
1
1
1
1
1
1
1
1
1
1
1
1
1
1
1
1
1
4.36943
9.82542
10.1917
10.0822
10.018
9.93499
9.85007
1
1
1
1
1
1
1
1
1
1
1
1
1
1
1
1
1
1
1
1
1
1
1
1
1
1
1
1
1
1
1
1
1
1
1
1
1
1
1
1
1
3.7887
9.65082
10.2294
10.1023
10.0364
9.95361
9.87005
1
1
1
1
1
1
1
1
1
1
1
1
1
1
1
1
1
1
1
1
1
1
1
1
1
1
1
1
1
1
1
1
1
1
1
1
1
1
1
1
1
3.28774
9.45021
10.2728
10.1268
10.0562
9.97171
9.88763
1
1
1
1
1
1
1
1
1
1
1
1
1
1
1
1
1
1
1
1
1
1
1
1
1
1
1
1
1
1
1
1
1
1
1
1
1
1
1
1
1
2.86975
9.22292
10.3126
10.1511
10.077
9.99128
9.90666
1
1
1
1
1
1
1
1
1
1
1
1
1
1
1
1
1
1
1
1
1
1
1
1
1
1
1
1
1
1
1
1
1
1
1
1
1
1
1
1
1
2.4973
9.02192
10.3425
10.171
10.0938
10.0065
9.92111
1
1
1
1
1
1
1
1
1
1
1
1
1
1
1
1
1
1
1
1
1
1
1
1
1
1
1
1
1
1
1
1
1
1
1
1
1
1
1
1
1
2.17699
8.81957
10.3623
10.1879
10.1092
10.0215
9.93609
1
1
1
1
1
1
1
1
1
1
1
1
1
1
1
1
1
1
1
1
1
1
1
1
1
1
1
1
1
1
1
1
1
1
1
1
1
1
1
1
1
1.9397
8.60656
10.3768
10.2002
10.1205
10.0329
9.94778
1
1
1
1
1
1
1
1
1
1
1
1
1
1
1
1
1
1
1
1
1
1
1
1
1
1
1
1
1
1
1
1
1
1
1
1
1
1
1
1
1
1.77508
8.39853
10.3802
10.2091
10.1305
10.0433
9.95825
1
1
1
1
1
1
1
1
1
1
1
1
1
1
1
1
1
1
1
1
1
1
1
1
1
1
1
1
1
1
1
1
1
1
1
1
1
1
1
1
1
1.65428
8.209
10.3744
10.2142
10.1377
10.0518
9.96755
1
1
1
1
1
1
1
1
1
1
1
1
1
1
1
1
1
1
1
1
1
1
1
1
1
1
1
1
1
1
1
1
1
1
1
1
1
1
1
1
1
1.56034
8.04485
10.368
10.2187
10.144
10.0593
9.97593
1
1
1
1
1
1
1
1
1
1
1
1
1
1
1
1
1
1
1
1
1
1
1
1
1
1
1
1
1
1
1
1
1
1
1
1
1
1
1
1
1
1.4902
7.91143
10.3606
10.2193
10.1462
10.0628
9.98032
1
1
1
1
1
1
1
1
1
1
1
1
1
1
1
1
1
1
1
1
1
1
1
1
1
1
1
1
1
1
1
1
1
1
1
1
1
1
1
1
1
1.4394
7.81035
10.3558
10.2201
10.148
10.0658
9.98411
1
1
1
1
1
1
1
1
1
1
1
1
1
1
1
1
1
1
1
1
1
1
1
1
1
1
1
1
1
1
1
1
1
1
1
1
1
1
1
1
1
1.40514
7.74101
10.3504
10.2193
10.1475
10.0665
9.98555
1
1
1
1
1
1
1
1
1
1
1
1
1
1
1
1
1
1
1
1
1
1
1
1
1
1
1
1
1
1
1
1
1
1
1
1
1
1
1
1
1
1.39065
7.70564
10.3426
10.2178
10.1483
10.0682
9.98777
1.254
0.195996
0.0128268
0.0160809
0.0444468
0.0941371
0.124692
0.162161
0.219244
0.278581
0.335628
0.393212
0.432545
0.472886
0.550693
0.677175
0.795916
0.88507
0.915964
0.947552
0.978623
0.976678
0.988464
1.03578
1.06615
1.07281
1.08783
1.10091
1.1142
1.14164
1.16525
1.19483
2.79479
4.82
5.0801
5.16127
5.24244
5.32669
5.37621
5.37746
5.37609
5.406
5.45534
5.48992
5.49278
5.47072
5.46022
5.46351
5.49454
5.53869
5.56985
5.57212
5.55649
5.54263
5.54323
5.55748
5.57192
5.57503
5.5648
5.54719
5.53082
5.52097
5.51599
5.51073
5.49978
5.47995
5.45263
5.42139
5.38953
5.35989
5.33522
5.31768
5.30676
5.29816
5.28404
5.25876
5.22299
5.18472
5.15108
5.12473
5.10385
5.08396
5.06028
5.03083
4.99765
4.96415
4.93237
4.90264
4.87486
4.84936
4.82672
4.80657
4.78669
4.76402
4.73664
4.70465
4.66957
4.6331
4.5963
4.55971
4.52391
4.48974
4.4576
4.42734
4.39849
4.37021
4.34113
4.30975
4.27587
4.2408
4.20603
4.17237
4.13996
4.10814
4.07628
4.04408
4.01171
3.98024
3.95067
3.92292
3.89579
3.86766
3.83708
3.80409
3.77009
3.73624
3.70359
3.67337
3.64541
3.61786
3.5894
3.56014
3.53056
3.50145
3.47363
3.44717
3.42106
3.3947
3.36701
3.33833
3.3078
3.27554
3.24536
3.21911
3.1982
3.17818
3.15637
3.13364
3.11067
3.08813
3.0644
3.03953
3.01434
2.99019
2.96584
2.93758
2.90677
2.8792
2.85671
2.83892
2.82581
2.80956
2.78994
2.76513
2.73578
2.70868
2.68764
2.67124
2.65662
2.63384
2.60807
2.65891
3.16059
3.76338
4.13407
4.26801
4.3865
4.43031
4.46539
4.47275
4.45521
4.43529
4.43183
4.4513
4.47561
4.47516
4.45524
4.42514
4.40299
4.39265
4.40028
4.41966
2.08887
0.980868
0.438286
0.230643
0.189211
0.154237
0.148323
0.161804
0.171528
0.187471
0.21139
0.25882
0.358483
0.417295
0.448556
0.47491
0.528653
0.616692
0.7083
0.769545
0.829685
0.900799
0.959615
1.00806
1.03607
1.05279
1.08784
1.11552
1.12052
1.11787
1.11171
1.1142
2.05754
4.57675
5.20488
5.2388
5.21741
5.26366
5.35289
5.40192
5.42375
5.43311
5.45019
5.47579
5.49006
5.48507
5.47868
5.46858
5.47399
5.50126
5.53642
5.56285
5.57186
5.56861
5.5643
5.56296
5.56234
5.56025
5.55611
5.55036
5.54274
5.53345
5.52223
5.50833
5.49047
5.4684
5.44366
5.41813
5.3933
5.37038
5.34996
5.33124
5.31215
5.29075
5.26746
5.24325
5.21702
5.18848
5.1603
5.13408
5.1083
5.08173
5.05454
5.02653
4.99678
4.96561
4.93453
4.90482
4.87734
4.8525
4.8298
4.80771
4.78448
4.75933
4.73192
4.70172
4.66875
4.63372
4.59748
4.56113
4.52536
4.49056
4.45752
4.42674
4.39792
4.36982
4.3409
4.31019
4.27756
4.24322
4.20785
4.17241
4.13795
4.10506
4.07363
4.04324
4.01329
3.9834
3.95333
3.92269
3.89155
3.86059
3.83035
3.80006
3.76904
3.73809
3.70706
3.67587
3.64562
3.61628
3.58739
3.55895
3.53039
3.50095
3.47118
3.44324
3.41675
3.39119
3.36555
3.33991
3.31398
3.28718
3.25808
3.2261
3.19726
3.17322
3.15041
3.12896
3.10873
3.08858
3.06788
3.04659
3.0221
2.9917
2.95871
2.93051
2.90842
2.88868
2.86755
2.84479
2.82331
2.80166
2.77971
2.76053
2.74448
2.72901
2.70732
2.67493
2.64293
2.61359
2.58741
2.61085
2.91022
3.73685
4.32673
4.47573
4.41487
4.40701
4.4231
4.44582
4.45751
4.46005
4.45782
4.45176
4.44253
4.43698
4.43129
4.4236
4.41947
4.41616
4.41146
4.4084
2.7935
1.70311
1.10725
0.781947
0.605295
0.462707
0.326776
0.277171
0.273608
0.28642
0.300373
0.31661
0.339868
0.365067
0.377021
0.374909
0.380139
0.407053
0.490981
0.58681
0.667983
0.763842
0.840501
0.911664
0.979444
1.01289
1.05845
1.11363
1.13077
1.12682
1.13127
1.14243
1.46608
4.20044
5.62383
5.56316
5.39216
5.31569
5.36864
5.43687
5.47314
5.48859
5.47111
5.45623
5.4752
5.50136
5.51153
5.50476
5.49278
5.48646
5.49791
5.52838
5.56513
5.59005
5.59475
5.58349
5.56466
5.54729
5.5365
5.53457
5.53745
5.53706
5.52718
5.5087
5.48613
5.46213
5.43796
5.41463
5.3933
5.37435
5.35618
5.33549
5.30958
5.27988
5.25165
5.22895
5.21283
5.19604
5.17267
5.14303
5.10926
5.07461
5.04309
5.01634
4.99128
4.96424
4.93547
4.90696
4.88045
4.85645
4.83346
4.8088
4.78149
4.75269
4.72409
4.69577
4.66557
4.63253
4.59763
4.5618
4.5257
4.49
4.45544
4.42334
4.3947
4.36743
4.33905
4.30935
4.27823
4.2448
4.20925
4.17285
4.13635
4.10187
4.06967
4.04033
4.01292
3.98505
3.95463
3.92273
3.88936
3.8557
3.82423
3.79427
3.76476
3.73572
3.70664
3.67678
3.6462
3.61583
3.58664
3.55822
3.52954
3.49986
3.46933
3.43929
3.41182
3.387
3.36355
3.34121
3.31875
3.29417
3.2653
3.23013
3.19207
3.16251
3.14074
3.12111
3.10324
3.08488
3.06563
3.04538
3.02053
2.98769
2.95218
2.92626
2.90761
2.88946
2.86901
2.84373
2.81558
2.79342
2.77653
2.76238
2.74879
2.73259
2.70839
2.67059
2.63318
2.60807
2.5892
2.60014
2.71013
3.34617
4.42564
4.8336
4.56906
4.41454
4.40358
4.43309
4.46984
4.48119
4.47715
4.44825
4.41508
4.40467
4.40449
4.41786
4.43192
4.43242
4.42305
4.40429
3.42275
2.47849
1.77617
1.26517
1.03113
0.874973
0.738177
0.613205
0.477343
0.414388
0.41772
0.434534
0.430627
0.414099
0.402093
0.403905
0.413776
0.427294
0.43541
0.452582
0.482291
0.542174
0.620113
0.701474
0.813152
0.905653
0.959163
1.02016
1.06251
1.07791
1.12338
1.19477
1.33102
3.17318
5.69141
5.93103
5.52264
5.34321
5.37547
5.45534
5.50602
5.52855
5.50489
5.466
5.46477
5.49617
5.52993
5.53705
5.52261
5.50055
5.50181
5.51942
5.5542
5.58744
5.59676
5.58205
5.55791
5.5328
5.51893
5.51879
5.53052
5.54124
5.53646
5.51412
5.48497
5.45506
5.42581
5.40038
5.38131
5.36761
5.35446
5.33657
5.31223
5.28382
5.25528
5.23087
5.21376
5.19714
5.16968
5.13533
5.10059
5.06776
5.03885
5.01526
4.99384
4.96918
4.94096
4.91209
4.88431
4.85773
4.83092
4.8025
4.77313
4.74514
4.71979
4.69467
4.66611
4.63302
4.59753
4.55985
4.52149
4.48505
4.45052
4.42073
4.39541
4.36927
4.3402
4.30913
4.27605
4.24173
4.20696
4.17205
4.1365
4.10125
4.06901
4.03948
4.01149
3.9824
3.95202
3.92113
3.8886
3.85422
3.81978
3.78815
3.75953
3.73234
3.70531
3.67742
3.64776
3.61629
3.58461
3.55413
3.52469
3.49581
3.46739
3.43942
3.41208
3.38645
3.36332
3.34149
3.31907
3.29457
3.26666
3.23428
3.19768
3.16198
3.13574
3.11605
3.09782
3.0802
3.06156
3.04133
3.01759
2.98893
2.95663
2.92718
2.90538
2.88644
2.86636
2.84343
2.81784
2.7937
2.77552
2.75989
2.74408
2.72589
2.7006
2.66906
2.63643
2.61364
2.60352
2.61637
2.69434
3.12974
4.24482
5.02206
4.83368
4.53932
4.4332
4.42718
4.44492
4.45248
4.44829
4.42875
4.4036
4.39592
4.40304
4.42065
4.43205
4.43152
4.42528
4.40781
3.94349
3.06362
2.37153
1.90538
1.54556
1.19502
1.03738
0.950915
0.832725
0.690079
0.594569
0.581514
0.586174
0.574783
0.543886
0.504257
0.487249
0.477977
0.475419
0.475791
0.490943
0.49764
0.499931
0.507909
0.542541
0.618378
0.694401
0.79162
0.898676
1.00214
1.11938
1.26723
1.39062
2.01932
5.19407
6.21717
5.82566
5.53497
5.4929
5.50202
5.53083
5.5571
5.53344
5.48224
5.46236
5.47829
5.52262
5.55799
5.56807
5.5612
5.53945
5.53322
5.54205
5.56286
5.58092
5.58303
5.57632
5.55502
5.54031
5.5347
5.53543
5.53783
5.52384
5.49741
5.46402
5.43335
5.40913
5.3948
5.38676
5.37728
5.36207
5.33866
5.31003
5.27979
5.25008
5.22483
5.20728
5.18901
5.16181
5.13132
5.10061
5.071
5.04263
5.01612
4.99243
4.96807
4.9396
4.90963
4.87976
4.85014
4.8207
4.79265
4.76789
4.74675
4.72525
4.69743
4.66443
4.62901
4.59021
4.55017
4.51288
4.47952
4.45021
4.42584
4.40048
4.36956
4.33616
4.30147
4.2668
4.23375
4.2021
4.17081
4.13847
4.10415
4.06875
4.03624
4.00581
3.97597
3.94681
3.91759
3.88686
3.85322
3.81795
3.78503
3.75594
3.72906
3.70265
3.67545
3.64596
3.61329
3.5796
3.54853
3.52076
3.49504
3.46987
3.44404
3.41667
3.38833
3.36088
3.33576
3.31201
3.28794
3.26277
3.23586
3.20594
3.17253
3.13878
3.11098
3.09029
3.0721
3.05389
3.03472
3.01418
2.99155
2.96472
2.93224
2.90148
2.87966
2.86085
2.84166
2.82174
2.80036
2.777
2.75485
2.73563
2.71554
2.69183
2.66877
2.64614
2.62863
2.63009
2.68045
2.85704
3.18208
3.85663
4.83877
4.93595
4.70112
4.51047
4.42997
4.40386
4.39982
4.40171
4.40471
4.40891
4.4149
4.42103
4.42148
4.41691
4.41395
4.41422
4.4114
4.31936
3.54947
2.85149
2.36574
2.02127
1.68135
1.38106
1.19833
1.06841
0.96539
0.877366
0.776032
0.735285
0.72939
0.710249
0.667487
0.60492
0.570888
0.554251
0.544094
0.541954
0.546123
0.545078
0.534687
0.525279
0.528982
0.54338
0.581136
0.654519
0.821267
1.01022
1.23633
1.40823
1.54094
3.62593
6.08862
5.92802
5.66377
5.59488
5.58992
5.60416
5.59965
5.55878
5.50153
5.48432
5.49669
5.53867
5.59013
5.60888
5.59643
5.55658
5.52331
5.52352
5.54065
5.5757
5.59314
5.58982
5.56596
5.53191
5.5148
5.50343
5.4987
5.49081
5.47179
5.44969
5.4305
5.41906
5.41346
5.40253
5.37974
5.3512
5.31989
5.29114
5.26538
5.24399
5.22727
5.21022
5.18711
5.15975
5.13111
5.10123
5.06997
5.03922
5.01047
4.98638
4.96397
4.93674
4.90643
4.87514
4.84443
4.81519
4.79027
4.77238
4.75492
4.72754
4.69408
4.65651
4.61563
4.57586
4.54086
4.5097
4.48244
4.45802
4.43033
4.39817
4.36333
4.32648
4.29072
4.25804
4.2278
4.19882
4.16899
4.13768
4.10369
4.06791
4.03352
4.001
3.97027
3.94114
3.91263
3.8833
3.85207
3.81951
3.78712
3.75589
3.72635
3.69816
3.67002
3.64028
3.60844
3.57648
3.54717
3.52114
3.49709
3.47342
3.44883
3.42189
3.39166
3.35908
3.32788
3.30088
3.27708
3.25469
3.23248
3.20917
3.18291
3.15227
3.11871
3.08702
3.06178
3.04225
3.02492
3.00805
2.99056
2.97024
2.94267
2.90548
2.87166
2.85179
2.83679
2.82209
2.80601
2.78554
2.75769
2.72663
2.69937
2.67934
2.66418
2.65371
2.65807
2.70182
2.87813
3.16574
3.30502
3.52881
4.31102
4.8414
4.76994
4.60354
4.45729
4.38124
4.36829
4.37376
4.3985
4.42564
4.43307
4.42399
4.40606
4.3955
4.39334
4.40335
4.41374
4.60199
3.91215
3.27968
2.79608
2.39079
2.01829
1.74224
1.55271
1.3473
1.18622
1.10907
1.01606
0.917227
0.894047
0.877191
0.830785
0.757209
0.6897
0.672846
0.665283
0.649336
0.637058
0.625317
0.607802
0.579348
0.568387
0.576978
0.614924
0.677478
0.743658
0.850036
0.985744
1.18602
1.23229
1.74714
4.92951
5.89029
5.72547
5.64358
5.6172
5.62773
5.62931
5.60166
5.54628
5.51935
5.5184
5.5413
5.59046
5.61695
5.60788
5.57737
5.54565
5.53953
5.5478
5.57401
5.58848
5.58121
5.55804
5.52741
5.5061
5.49261
5.48665
5.48327
5.4743
5.46078
5.44724
5.43703
5.42329
5.39782
5.36687
5.33252
5.30297
5.2788
5.26473
5.25761
5.24273
5.21592
5.18535
5.15372
5.12384
5.0949
5.06526
5.03637
5.01002
4.98619
4.96204
4.93432
4.90413
4.87274
4.84171
4.81374
4.79277
4.77777
4.75451
4.72239
4.68643
4.64488
4.60288
4.56823
4.53849
4.51345
4.48961
4.46045
4.42698
4.38935
4.35085
4.31604
4.28467
4.25569
4.22639
4.195
4.1624
4.12903
4.09551
4.06341
4.03219
4.00047
3.96807
3.93599
3.9054
3.87617
3.84774
3.81957
3.79036
3.75915
3.72631
3.69356
3.66227
3.63237
3.60369
3.5763
3.54962
3.52324
3.49752
3.47264
3.44774
3.42142
3.39235
3.36
3.32624
3.29475
3.26765
3.24446
3.22372
3.20374
3.18287
3.1593
3.13106
3.09776
3.06303
3.03353
3.01325
2.99796
2.98325
2.96658
2.94555
2.91539
2.87672
2.84598
2.82914
2.81605
2.80213
2.78438
2.75808
2.72397
2.69381
2.67525
2.6646
2.67285
2.72191
2.88512
3.17748
3.447
3.44369
3.46871
3.77152
4.50162
4.73756
4.65101
4.50862
4.39671
4.36616
4.37009
4.3995
4.42587
4.42623
4.41485
4.39146
4.3782
4.37751
4.38888
4.40862
4.82828
4.20077
3.60923
3.1442
2.74931
2.36512
2.04705
1.85108
1.6543
1.46837
1.36612
1.25968
1.10911
1.05748
1.02445
0.971999
0.911189
0.834162
0.776007
0.767933
0.760878
0.740795
0.720791
0.702771
0.6748
0.663667
0.687434
0.737264
0.799708
0.882524
0.991359
1.06645
1.07146
1.07966
1.10639
2.58232
5.37712
5.69252
5.66261
5.64006
5.64098
5.63132
5.64213
5.62386
5.59402
5.56945
5.55833
5.57588
5.60269
5.6124
5.6015
5.58903
5.57699
5.57083
5.56898
5.5703
5.56463
5.55485
5.54228
5.527
5.51374
5.50374
5.49374
5.48159
5.46789
5.45312
5.43818
5.41809
5.39012
5.35907
5.32852
5.30256
5.28405
5.27728
5.27083
5.24605
5.2138
5.1771
5.14253
5.11244
5.08684
5.06595
5.04461
5.01928
4.98996
4.95923
4.92842
4.8982
4.86791
4.83871
4.81399
4.79538
4.77497
4.74535
4.71263
4.67666
4.63706
4.59944
4.5674
4.54014
4.51537
4.48651
4.45405
4.41713
4.37696
4.34111
4.31063
4.28387
4.25708
4.22585
4.19086
4.15199
4.11423
4.08345
4.0562
4.02916
4.00041
3.96862
3.93343
3.89848
3.86778
3.84091
3.81541
3.78927
3.76056
3.72754
3.69123
3.65644
3.62669
3.60096
3.57657
3.55157
3.52476
3.49626
3.46782
3.44061
3.41421
3.38751
3.35936
3.32905
3.29733
3.26652
3.23868
3.21422
3.19283
3.17331
3.15361
3.13195
3.1065
3.07566
3.04043
3.00778
2.98527
2.96941
2.95418
2.93705
2.91633
2.88929
2.85595
2.82562
2.80572
2.78976
2.77186
2.75023
2.72723
2.7008
2.6808
2.6832
2.72423
2.87243
3.17695
3.42599
3.55254
3.5197
3.47228
3.51487
3.94018
4.51655
4.62372
4.55679
4.45429
4.39559
4.38464
4.39648
4.4067
4.4057
4.39946
4.38478
4.37159
4.3682
4.37351
4.39118
5.02618
4.43748
3.89315
3.4623
3.05234
2.65873
2.39073
2.16316
1.93028
1.71677
1.61409
1.5006
1.3583
1.24705
1.16906
1.08565
1.03335
0.989894
0.928425
0.880466
0.87127
0.855157
0.830995
0.81619
0.798496
0.814877
0.87636
0.931886
0.995407
1.05984
1.12601
1.15441
1.15959
1.16629
1.18137
1.2913
3.12795
5.52916
5.81249
5.71245
5.63071
5.59053
5.602
5.64978
5.67548
5.65053
5.61546
5.58542
5.57563
5.58625
5.61174
5.6243
5.61775
5.60034
5.57331
5.55226
5.54302
5.54705
5.55552
5.55594
5.54203
5.52124
5.50013
5.47887
5.46044
5.44558
5.43054
5.4108
5.38653
5.36104
5.33636
5.3143
5.29696
5.28378
5.26668
5.23806
5.20487
5.16847
5.13491
5.1059
5.08516
5.07189
5.05242
5.0231
4.98939
4.95192
4.9177
4.88661
4.85892
4.83703
4.81917
4.79656
4.76621
4.7342
4.70094
4.66739
4.63491
4.60354
4.57257
4.54098
4.50865
4.47568
4.44127
4.40509
4.37026
4.33915
4.31151
4.28481
4.25491
4.22202
4.18458
4.14327
4.1052
4.07451
4.04777
4.02167
3.99478
3.96496
3.93065
3.89549
3.86355
3.83475
3.80806
3.78216
3.75498
3.7242
3.69004
3.65679
3.62731
3.60064
3.57526
3.54972
3.52237
3.49243
3.46145
3.43199
3.40501
3.3798
3.35496
3.32888
3.30043
3.27004
3.23953
3.2106
3.18428
3.16144
3.14171
3.12295
3.10325
3.08081
3.05315
3.01883
2.98309
2.95626
2.93871
2.92369
2.90823
2.89059
2.86705
2.83484
2.80107
2.77651
2.75778
2.74078
2.72584
2.71196
2.70953
2.7416
2.87117
3.15163
3.41194
3.54318
3.59575
3.57763
3.52204
3.48802
3.5775
4.04275
4.46115
4.57443
4.53392
4.45968
4.41172
4.39128
4.38245
4.3819
4.38374
4.38435
4.38096
4.37433
4.37042
4.37386
5.17709
4.63306
4.13904
3.73458
3.32567
2.95867
2.68529
2.44525
2.19985
1.98938
1.83819
1.70533
1.56115
1.4388
1.34478
1.23574
1.15184
1.11867
1.0718
1.00425
0.973557
0.967066
0.966097
0.959161
0.960128
1.04048
1.113
1.15691
1.21446
1.2388
1.25316
1.28651
1.29529
1.28927
1.29017
1.30421
1.52373
3.44696
5.46924
5.78554
5.66696
5.56208
5.57379
5.64076
5.71753
5.71536
5.68455
5.62396
5.57111
5.55976
5.59158
5.634
5.6385
5.62378
5.59108
5.55478
5.53786
5.53918
5.55869
5.56711
5.55089
5.52535
5.49506
5.47019
5.44854
5.43511
5.42537
5.40786
5.38569