/*--------------------------------*- C++ -*----------------------------------*\
  =========                 |
  \\      /  F ield         | OpenFOAM: The Open Source CFD Toolbox
   \\    /   O peration     | Website:  https://openfoam.org
    \\  /    A nd           | Version:  10
     \\/     M anipulation  |
\*---------------------------------------------------------------------------*/
FoamFile
{
    format      ascii;
    class       volScalarField;
    location    "9";
    object      T;
}
// * * * * * * * * * * * * * * * * * * * * * * * * * * * * * * * * * * * * * //

dimensions      [0 0 0 1 0 0 0];

internalField   nonuniform List<scalar> 
16128
(
1
1
1
1
1
1
1
1
1
1
1
1
1
1
1
1
1
1
1
1
1
1
1
1
2.06833
2.68188
2.70475
2.71175
2.72042
2.7279
2.73498
2.74164
2.74804
2.75436
2.76068
2.76683
2.77249
2.77753
2.78212
2.78656
2.79091
2.79489
2.79834
2.80133
2.80423
2.80664
2.80823
2.80949
1
1
1
1
1
1
1
1
1
1
1
1
1
1
1
1
1
1
1
1
1
1
1
1
2.05787
2.6796
2.70442
2.71149
2.72012
2.72757
2.73462
2.74125
2.74764
2.75395
2.76023
2.7663
2.77191
2.77694
2.78155
2.78594
2.79015
2.79398
2.79743
2.80053
2.80351
2.8058
2.80706
2.80817
1
1
1
1
1
1
1
1
1
1
1
1
1
1
1
1
1
1
1
1
1
1
1
1
2.03172
2.6761
2.70329
2.71052
2.71917
2.72666
2.73372
2.74038
2.74682
2.75316
2.7594
2.76539
2.77097
2.77606
2.7807
2.78499
2.789
2.79271
2.7962
2.79941
2.8023
2.8043
2.805
2.80638
1
1
1
1
1
1
1
1
1
1
1
1
1
1
1
1
1
1
1
1
1
1
1
1
1.99198
2.66977
2.70141
2.70883
2.71753
2.72508
2.73218
2.73889
2.74539
2.75176
2.75795
2.76386
2.7694
2.77452
2.77919
2.78341
2.78731
2.79099
2.79461
2.79787
2.80046
2.80203
2.80171
2.80408
1
1
1
1
1
1
1
1
1
1
1
1
1
1
1
1
1
1
1
1
1
1
1
1
1.93817
2.65997
2.69844
2.70606
2.71486
2.72254
2.72977
2.73662
2.74325
2.7497
2.75588
2.76169
2.76713
2.77221
2.77685
2.78101
2.78485
2.78853
2.79217
2.79541
2.7979
2.79973
2.79848
2.80163
1
1
1
1
1
1
1
1
1
1
1
1
1
1
1
1
1
1
1
1
1
1
1
1
1.86658
2.6446
2.69436
2.70231
2.71131
2.7192
2.72669
2.73382
2.74069
2.7473
2.75353
2.75925
2.76455
2.76951
2.77407
2.77817
2.78196
2.78557
2.78902
2.7919
2.7938
2.79547
2.7959
2.79753
1
1
1
1
1
1
1
1
1
1
1
1
1
1
1
1
1
1
1
1
1
1
1
1
1.77535
2.62102
2.68939
2.69767
2.70677
2.71473
2.72245
2.72988
2.73704
2.74385
2.75017
2.75585
2.76103
2.76586
2.77037
2.77449
2.7783
2.78182
2.78503
2.78762
2.78931
2.79108
2.79194
2.79329
1
1
1
1
1
1
1
1
1
1
1
1
1
1
1
1
1
1
1
1
1
1
1
1
1.66485
2.58921
2.68499
2.69262
2.70152
2.70931
2.71701
2.72457
2.73195
2.73896
2.74544
2.75118
2.75633
2.7611
2.76561
2.7698
2.7737
2.77721
2.78031
2.78278
2.78438
2.78569
2.78572
2.78809
1
1
1
1
1
1
1
1
1
1
1
1
1
1
1
1
1
1
1
1
1
1
1
1
1.53325
2.54463
2.68151
2.68698
2.6958
2.70332
2.711
2.71867
2.72624
2.73343
2.74007
2.74587
2.75096
2.75562
2.76006
2.76424
2.7681
2.77147
2.7744
2.77683
2.7786
2.78
2.77823
2.78154
1
1
1
1
1
1
1
1
1
1
1
1
1
1
1
1
1
1
1
1
1
1
1
1
1.36648
2.47494
2.67601
2.67975
2.68893
2.69602
2.70361
2.71137
2.71919
2.72664
2.73351
2.73948
2.74462
2.7492
2.75354
2.75763
2.7614
2.76469
2.76749
2.76981
2.77137
2.7723
2.76944
2.77342
1
1
1
1
1
1
1
1
1
1
1
1
1
1
1
1
1
1
1
1
1
1
1
1
1.17231
2.39417
2.67637
2.67202
2.68037
2.6875
2.69532
2.70313
2.71094
2.71853
2.7256
2.73182
2.73712
2.74172
2.74599
2.74997
2.75356
2.75657
2.75895
2.76083
2.76201
2.76253
2.75901
2.76376
1
1
1
1
1
1
1
1
1
1
1
1
1
1
1
1
1
1
1
1
1
1
1
1
1.00977
2.31543
2.67111
2.66968
2.6764
2.68198
2.68835
2.69522
2.70254
2.70978
2.71666
2.72292
2.72834
2.73298
2.73718
2.74102
2.74435
2.74707
2.74905
2.75058
2.75112
2.75068
2.74623
2.74984
1
1
1
1
1
1
1
1
1
1
1
1
1
1
1
1
1
1
1
1
1
1
1
1
1.00004
2.20182
2.66777
2.67026
2.67573
2.68115
2.68592
2.69069
2.69545
2.7012
2.70728
2.71311
2.71837
2.72292
2.727
2.73069
2.7338
2.73608
2.73706
2.73728
2.73614
2.7344
2.72873
2.733
1
1
1
1
1
1
1
1
1
1
1
1
1
1
1
1
1
1
1
1
1
1
1
1
1
2.05244
2.65212
2.669
2.6741
2.67909
2.68277
2.68614
2.68988
2.69388
2.69818
2.70284
2.70738
2.71155
2.71542
2.71876
2.72124
2.72279
2.72257
2.72172
2.71946
2.71637
2.70716
2.70412
1
1
1
1
1
1
1
1
1
1
1
1
1
1
1
1
1
1
1
1
1
1
1
1
1
1.85619
2.60345
2.66126
2.67071
2.67725
2.68136
2.68381
2.68569
2.6877
2.69039
2.69331
2.69634
2.69959
2.70281
2.70511
2.70661
2.70727
2.70589
2.703
2.69676
2.68694
2.6708
2.6641
1
1
1
1
1
1
1
1
1
1
1
1
1
1
1
1
1
1
1
1
1
1
1
1
1
1.59924
2.50564
2.6388
2.65663
2.66813
2.67538
2.67941
2.68159
2.68294
2.68393
2.68503
2.68621
2.68783
2.68927
2.69015
2.69012
2.68933
2.68591
2.67988
2.66902
2.65591
2.6365
2.64062
1
1
1
1
1
1
1
1
1
1
1
1
1
1
1
1
1
1
1
1
1
1
1
1
1
1.25669
2.37824
2.62176
2.63522
2.65059
2.66196
2.66941
2.67395
2.6765
2.6775
2.67762
2.67735
2.67712
2.67597
2.6748
2.67264
2.66953
2.66341
2.65436
2.63701
2.61056
2.54458
2.39915
1
1
1
1
1
1
1
1
1
1
1
1
1
1
1
1
1
1
1
1
1
1
1
1
1
1.01929
2.27194
2.62426
2.62168
2.62929
2.64117
2.65221
2.66058
2.66605
2.66868
2.66912
2.66831
2.66646
2.66326
2.65965
2.65466
2.64858
2.63891
2.62478
2.59958
2.55209
2.47635
2.26941
1
1
1
1
1
1
1
1
1
1
1
1
1
1
1
1
1
1
1
1
1
1
1
1
1
1.00006
2.09805
2.60531
2.60805
2.61424
2.6227
2.63296
2.64299
2.65081
2.65607
2.65829
2.65772
2.65549
2.65108
2.64527
2.63714
2.6275
2.61373
2.59388
2.56246
2.50897
2.41393
2.21102
1
1
1
1
1
1
1
1
1
1
1
1
1
1
1
1
1
1
1
1
1
1
1
1
1
0.999999
1.83479
2.56175
2.60856
2.61147
2.61511
2.61985
2.62655
2.63345
2.6399
2.64405
2.64445
2.64279
2.63816
2.63096
2.62039
2.60726
2.58933
2.5646
2.52745
2.47159
2.36723
2.19663
1
1
1
1
1
1
1
1
1
1
1
1
1
1
1
1
1
1
1
1
1
1
1
1
1
1
1.45716
2.44201
2.60204
2.60455
2.60789
2.6106
2.61444
2.61815
2.6229
2.62715
2.62859
2.62762
2.62354
2.61601
2.60426
2.5884
2.56695
2.53828
2.49792
2.43949
2.3399
2.20755
1
1
1
1
1
1
1
1
1
1
1
1
1
1
1
1
1
1
1
1
1
1
1
1
1
1
1.05979
2.29498
2.60069
2.59779
2.59927
2.60177
2.60377
2.60473
2.60671
2.60929
2.61073
2.61017
2.60678
2.59972
2.5879
2.57057
2.54706
2.51563
2.47375
2.41436
2.32627
2.21832
1
1
1
1
1
1
1
1
1
1
1
1
1
1
1
1
1
1
1
1
1
1
1
1
1
1
1.00077
2.11448
2.56467
2.57771
2.58595
2.59083
2.59289
2.59274
2.59251
2.59263
2.59245
2.59138
2.58803
2.58148
2.57031
2.55315
2.52916
2.4966
2.45408
2.39654
2.31967
2.22916
1
1
1
1
1
1
1
1
1
1
1
1
1
1
1
1
1
1
1
1
1
1
1
1
1
1
0.999993
1.77638
2.49815
2.56046
2.57425
2.5804
2.58246
2.58231
2.58112
2.57925
2.57674
2.57372
2.56924
2.56236
2.55156
2.5353
2.51222
2.48044
2.43838
2.38457
2.31737
2.23817
1
1
1
1
1
1
1
1
1
1
1
1
1
1
1
1
1
1
1
1
1
1
1
1
1
1
0.999998
1.29854
2.36435
2.55241
2.5572
2.56414
2.56809
2.56946
2.56858
2.56624
2.56234
2.55739
2.55109
2.54303
2.53199
2.51655
2.49507
2.46552
2.42538
2.37637
2.31712
2.24785
1
1
1
1
1
1
1
1
1
1
1
1
1
1
1
1
1
1
1
1
1
1
1
1
1
1
1
1.02292
2.21511
2.53639
2.53685
2.54369
2.54888
2.55328
2.55403
2.55261
2.54881
2.543
2.53518
2.52551
2.51336
2.49788
2.47757
2.45019
2.41366
2.36986
2.31699
2.25659
1
1
1
1
1
1
1
1
1
1
1
1
1
1
1
1
1
1
1
1
1
1
1
1
1
1
1
1.00006
1.89793
2.48748
2.52462
2.53328
2.53472
2.53768
2.5389
2.53801
2.53478
2.52897
2.52059
2.50983
2.49643
2.48059
2.46029
2.43431
2.40209
2.36323
2.3166
2.26394
1
1
1
1
1
1
1
1
1
1
1
1
1
1
1
1
1
1
1
1
1
1
1
1
1
1
1
1
1.38744
2.36918
2.51776
2.51752
2.51902
2.52127
2.52256
2.52194
2.51932
2.51422
2.50609
2.49548
2.48134
2.46501
2.44401
2.4191
2.39001
2.35586
2.31434
2.26816
1
1
1
1
1
1
1
1
1
1
1
1
1
1
1
1
1
1
1
1
1
1
1
1
1
1
1
1
1.03779
2.19952
2.49979
2.50115
2.50291
2.50519
2.50635
2.50565
2.50322
2.49871
2.49141
2.48115
2.46777
2.45093
2.43015
2.40606
2.37863
2.34775
2.31035
2.27037
1
1
1
1
1
1
1
1
1
1
1
1
1
1
1
1
1
1
1
1
1
1
1
1
1
1
1
1
1.00022
1.82708
2.43928
2.48415
2.48815
2.49172
2.49243
2.49094
2.48776
2.48299
2.47602
2.4664
2.45411
2.43746
2.41774
2.39461
2.36853
2.3394
2.3052
2.26977
1
1
1
1
1
1
1
1
1
1
1
1
1
1
1
1
1
1
1
1
1
1
1
1
1
1
1
1
0.999999
1.23299
2.29914
2.48511
2.47625
2.47736
2.47709
2.4749
2.47147
2.46689
2.46042
2.45126
2.44005
2.42465
2.40637
2.38452
2.36
2.33228
2.30081
2.26828
1
1
1
1
1
1
1
1
1
1
1
1
1
1
1
1
1
1
1
1
1
1
1
1
1
1
1
1
1
1.01256
2.11442
2.45224
2.45477
2.46172
2.46021
2.45785
2.45492
2.45083
2.44466
2.43622
2.42533
2.41162
2.39483
2.37456
2.35177
2.32551
2.29648
2.26584
1
1
1
1
1
1
1
1
1
1
1
1
1
1
1
1
1
1
1
1
1
1
1
1
1
1
1
1
1
1
1.63055
2.36314
2.44426
2.44904
2.44676
2.44429
2.44125
2.43685
2.43038
2.42189
2.41118
2.39827
2.38274
2.3643
2.34335
2.31903
2.29229
2.26344
1
1
1
1
1
1
1
1
1
1
1
1
1
1
1
1
1
1
1
1
1
1
1
1
1
1
1
1
1
0.999997
1.10619
2.20021
2.44183
2.43275
2.43134
2.42974
2.42698
2.42242
2.41577
2.40735
2.39711
2.3849
2.37036
2.35345
2.33406
2.31176
2.28715
2.26038
1
1
1
1
1
1
1
1
1
1
1
1
1
1
1
1
1
1
1
1
1
1
1
1
1
1
1
1
1
0.999999
1.00232
1.85379
2.38317
2.40894
2.41311
2.41493
2.41345
2.40931
2.4027
2.39427
2.3841
2.37208
2.3581
2.34208
2.32401
2.30377
2.28122
2.25655
1
1
1
1
1
1
1
1
1
1
1
1
1
1
1
1
1
1
1
1
1
1
1
1
1
1
1
1
1
1
0.999996
1.22418
2.22692
2.41047
2.40259
2.40215
2.40002
2.39556
2.38916
2.38111
2.37124
2.35953
2.34616
2.3309
2.31399
2.2953
2.27439
2.25131
1
1
1
1
1
1
1
1
1
1
1
1
1
1
1
1
1
1
1
1
1
1
1
1
1
1
1
1
1
1
0.999999
1.01121
1.96985
2.37282
2.38397
2.38395
2.38266
2.37965
2.37469
2.36777
2.35865
2.34753
2.3347
2.32004
2.3038
2.28599
2.26625
2.24448
1
1
1
1
1
1
1
1
1
1
1
1
1
1
1
1
1
1
1
1
1
1
1
1
1
1
1
1
1
1
1
1.00002
1.32911
2.23302
2.38127
2.37391
2.37013
2.36604
2.3608
2.35408
2.34551
2.33516
2.32312
2.30919
2.29361
2.27642
2.25768
2.23744
1
1
1
1
1
1
1
1
1
1
1
1
1
1
1
1
1
1
1
1
1
1
1
1
1
1
1
1
1
1
1
1
1.02501
2.02231
2.35234
2.35872
2.35547
2.3511
2.34575
2.33922
2.33133
2.32195
2.31089
2.29784
2.28283
2.26644
2.24889
2.2323
1
1
1
1
1
1
1
1
1
1
1
1
1
1
1
1
1
1
1
1
1
1
1
1
1
1
1
1
1
1
1
1
1.00011
1.411
2.22341
2.34976
2.34246
2.33802
2.33244
2.32582
2.31821
2.30957
2.29902
2.28622
2.27148
2.25684
2.24429
2.24081
1
1
1
1
1
1
1
1
1
1
1
1
1
1
1
1
1
1
1
1
1
1
1
1
1
1
1
1
1
1
1
1
1
1.04048
2.02382
2.3293
2.32858
2.32376
2.31835
2.31201
2.30479
2.29615
2.28567
2.27292
2.25911
2.25105
2.25363
2.26773
1
1
1
1
1
1
1
1
1
1
1
1
1
1
1
1
1
1
1
1
1
1
1
1
1
1
1
1
1
1
1
1
1
1.00032
1.42418
2.199
2.31881
2.31027
2.30537
2.29951
2.29225
2.2831
2.27183
2.2588
2.25969
2.26436
2.28625
2.30984
1
1
1
1
1
1
1
1
1
1
1
1
1
1
1
1
1
1
1
1
1
1
1
1
1
1
1
1
1
1
1
1
1
1
1.04379
1.98908
2.30017
2.29846
2.29223
2.28609
2.27866
2.26884
2.25657
2.25768
2.27013
2.29998
2.32768
2.3466
1
1
1
1
1
1
1
1
1
1
1
1
1
1
1
1
1
1
1
1
1
1
1
1
1
1
1
1
1
1
1
1
1
1
1.0004
1.39512
2.16142
2.2875
2.2789
2.27399
2.26529
2.25474
2.25679
2.27229
2.31022
2.34275
2.3587
2.35827
1
1
1
1
1
1
1
1
1
1
1
1
1
1
1
1
1
1
1
1
1
1
1
1
1
1
1
1
1
1
1
1
1
1
1
1.03698
1.90411
2.25879
2.27107
2.26222
2.24968
2.25003
2.2688
2.31481
2.35553
2.37329
2.36847
2.35974
1
1
1
1
1
1
1
1
1
1
1
1
1
1
1
1
1
1
1
1
1
1
1
1
1
1
1
1
1
1
1
1
1
1
1
1.00034
1.31307
2.09841
2.26123
2.24528
2.24208
2.26315
2.31808
2.3662
2.38645
2.37905
2.36926
2.35927
1
1
1
1
1
1
1
1
1
1
1
1
1
1
1
1
1
1
1
1
1
1
1
1
1
1
1
1
1
1
1
1
1
1
1
1
1.0221
1.74878
2.21428
2.21945
2.24797
2.31598
2.37517
2.40133
2.39255
2.37743
2.36749
2.35874
1
1
1
1
1
1
1
1
1
1
1
1
1
1
1
1
1
1
1
1
1
1
1
1
1
1
1
1
1
1
1
1
1
1
1
1
1.00018
1.19548
2.0245
2.20045
2.30358
2.3762
2.40496
2.39832
2.38478
2.37243
2.36573
2.35944
1
1
1
1
1
1
1
1
1
1
1
1
1
1
1
1
1
1
1
1
1
1
1
1
1
1
1
1
1
1
1
1
1
1
1
1
1
1.00842
1.52696
2.14883
2.36585
2.4051
2.39958
2.38616
2.37267
2.36428
2.36151
2.3579
1
1
1
1
1
1
1
1
1
1
1
1
1
1
1
1
1
1
1
1
1
1
1
1
1
1
1
1
1
1
1
1
1
1
1
1
1
1.00006
1.07818
2.16083
2.45613
2.42675
2.40266
2.38458
2.37266
2.36514
2.36146
2.35664
1
1
1
1
1
1
1
1
1
1
1
1
1
1
1
1
1
1
1
1
1
1
1
1
1
1
1
1
1
1
1
1
1
1
1
1
1
1
1.00141
2.09591
2.53217
2.47979
2.43496
2.40723
2.38516
2.37032
2.36345
2.35718
1
1
1
1
1
1
1
1
1
1
1
1
1
1
1
1
1
1
1
1
1
1
1
1
1
1
1
1
1
1
1
1
1
1
1
1
1
1
1
1.97713
2.5995
2.55997
2.50912
2.46489
2.42801
2.40081
2.38268
2.36732
1
1
1
1
1
1
1
1
1
1
1
1
1
1
1
1
1
1
1
1
1
1
1
1
1
1
1
1
1
1
1
1
1
1
1
1
1
1
1
1.79231
2.59435
2.59553
2.5756
2.53701
2.49485
2.45634
2.4247
2.4005
1
1
1
1
1
1
1
1
1
1
1
1
1
1
1
1
1
1
1
1
1
1
1
1
1
1
1
1
1
1
1
1
1
1
1
1
1
1
1
1.51866
2.52223
2.62384
2.60739
2.58658
2.55652
2.52311
2.48922
2.45597
1
1
1
1
1
1
1
1
1
1
1
1
1
1
1
1
1
1
1
1
1
1
1
1
1
1
1
1
1
1
1
1
1
1
1
1
1
1
1
1.18486
2.39607
2.63925
2.6232
2.61052
2.59424
2.57254
2.54607
2.51576
1
1
1
1
1
1
1
1
1
1
1
1
1
1
1
1
1
1
1
1
1
1
1
1
1
1
1
1
1
1
1
1
1
1
1
1
1
1
1
1.0089
2.30112
2.64304
2.62972
2.62103
2.61207
2.60025
2.58421
2.56332
1
1
1
1
1
1
1
1
1
1
1
1
1
1
1
1
1
1
1
1
1
1
1
1
1
1
1
1
1
1
1
1
1
1
1
1
1
1
1
1.00002
2.17451
2.64057
2.63805
2.63046
2.62352
2.61477
2.60409
2.59113
1
1
1
1
1
1
1
1
1
1
1
1
1
1
1
1
1
1
1
1
1
1
1
1
1
1
1
1
1
1
1
1
1
1
1
1
1
1
1
1
2.01858
2.63342
2.6459
2.63916
2.63261
2.62426
2.6153
2.60576
1
1
1
1
1
1
1
1
1
1
1
1
1
1
1
1
1
1
1
1
1
1
1
1
1
1
1
1
1
1
1
1
1
1
1
1
1
1
1
1
1.84391
2.60019
2.64723
2.63971
2.63442
2.62741
2.62038
2.61275
1
1
1
1
1
1
1
1
1
1
1
1
1
1
1
1
1
1
1
1
1
1
1
1
1
1
1
1
1
1
1
1
1
1
1
1
1
1
1
1
1.64308
2.53707
2.64754
2.63873
2.63372
2.62671
2.61973
2.61242
1
1
1
1
1
1
1
1
1
1
1
1
1
1
1
1
1
1
1
1
1
1
1
1
1
1
1
1
1
1
1
1
1
1
1
1
1
1
1
1
1.40598
2.45197
2.6454
2.63226
2.62795
2.62225
2.6163
2.60997
1
1
1
1
1
1
1
1
1
1
1
1
1
1
1
1
1
1
1
1
1
1
1
1
1
1
1
1
1
1
1
1
1
1
1
1
1
1
1
1
1.16323
2.37281
2.6428
2.62799
2.62389
2.61894
2.6135
2.60771
1
1
1
1
1
1
1
1
1
1
1
1
1
1
1
1
1
1
1
1
1
1
1
1
1
1
1
1
1
1
1
1
1
1
1
1
1
1
1
1
1.02657
2.33168
2.65486
2.63835
2.62968
2.62189
2.61519
2.60873
1
1
1
1
1
1
1
1
1
1
1
1
1
1
1
1
1
1
1
1
1
1
1
1
1
1
1
1
1
1
1
1
1
1
1
1
1
1
1
1
1.00038
2.26292
2.6644
2.65246
2.64129
2.63184
2.6235
2.61535
1
1
1
1
1
1
1
1
1
1
1
1
1
1
1
1
1
1
1
1
1
1
1
1
1
1
1
1
1
1
1
1
1
1
1
1
1
1
1
1
1
2.17171
2.6678
2.6647
2.65337
2.64416
2.63456
2.62529
1
1
1
1
1
1
1
1
1
1
1
1
1
1
1
1
1
1
1
1
1
1
1
1
1
1
1
1
1
1
1
1
1
1
1
1
1
1
1
1
1
2.07502
2.65635
2.66479
2.65639
2.65014
2.64254
2.63463
1
1
1
1
1
1
1
1
1
1
1
1
1
1
1
1
1
1
1
1
1
1
1
1
1
1
1
1
1
1
1
1
1
1
1
1
1
1
1
1
1
1.96986
2.63455
2.66608
2.6579
2.653
2.64643
2.63945
1
1
1
1
1
1
1
1
1
1
1
1
1
1
1
1
1
1
1
1
1
1
1
1
1
1
1
1
1
1
1
1
1
1
1
1
1
1
1
1
1
1.86427
2.60913
2.66531
2.65616
2.65167
2.64572
2.63945
1
1
1
1
1
1
1
1
1
1
1
1
1
1
1
1
1
1
1
1
1
1
1
1
1
1
1
1
1
1
1
1
1
1
1
1
1
1
1
1
1
1.76515
2.58758
2.66526
2.65479
2.65014
2.64432
2.63843
1
1
1
1
1
1
1
1
1
1
1
1
1
1
1
1
1
1
1
1
1
1
1
1
1
1
1
1
1
1
1
1
1
1
1
1
1
1
1
1
1
1.67406
2.56852
2.66678
2.65495
2.64976
2.6437
2.63771
1
1
1
1
1
1
1
1
1
1
1
1
1
1
1
1
1
1
1
1
1
1
1
1
1
1
1
1
1
1
1
1
1
1
1
1
1
1
1
1
1
1.58029
2.54928
2.66898
2.65606
2.65026
2.64383
2.63759
1
1
1
1
1
1
1
1
1
1
1
1
1
1
1
1
1
1
1
1
1
1
1
1
1
1
1
1
1
1
1
1
1
1
1
1
1
1
1
1
1
1.48756
2.52688
2.67099
2.65801
2.65203
2.64538
2.63894
1
1
1
1
1
1
1
1
1
1
1
1
1
1
1
1
1
1
1
1
1
1
1
1
1
1
1
1
1
1
1
1
1
1
1
1
1
1
1
1
1
1.41222
2.50567
2.67374
2.66072
2.65476
2.64813
2.64164
1
1
1
1
1
1
1
1
1
1
1
1
1
1
1
1
1
1
1
1
1
1
1
1
1
1
1
1
1
1
1
1
1
1
1
1
1
1
1
1
1
1.35601
2.4874
2.67673
2.66398
2.65798
2.65132
2.6448
1
1
1
1
1
1
1
1
1
1
1
1
1
1
1
1
1
1
1
1
1
1
1
1
1
1
1
1
1
1
1
1
1
1
1
1
1
1
1
1
1
1.31117
2.46976
2.67861
2.66658
2.66064
2.654
2.64751
1
1
1
1
1
1
1
1
1
1
1
1
1
1
1
1
1
1
1
1
1
1
1
1
1
1
1
1
1
1
1
1
1
1
1
1
1
1
1
1
1
1.27365
2.45234
2.6791
2.66784
2.66206
2.65554
2.64914
1
1
1
1
1
1
1
1
1
1
1
1
1
1
1
1
1
1
1
1
1
1
1
1
1
1
1
1
1
1
1
1
1
1
1
1
1
1
1
1
1
1.24431
2.43718
2.67855
2.66794
2.66232
2.65596
2.64967
1
1
1
1
1
1
1
1
1
1
1
1
1
1
1
1
1
1
1
1
1
1
1
1
1
1
1
1
1
1
1
1
1
1
1
1
1
1
1
1
1
1.22226
2.42525
2.67783
2.66778
2.66234
2.65612
2.6499
1
1
1
1
1
1
1
1
1
1
1
1
1
1
1
1
1
1
1
1
1
1
1
1
1
1
1
1
1
1
1
1
1
1
1
1
1
1
1
1
1
1.20693
2.41725
2.67729
2.66759
2.66224
2.6561
2.64991
1
1
1
1
1
1
1
1
1
1
1
1
1
1
1
1
1
1
1
1
1
1
1
1
1
1
1
1
1
1
1
1
1
1
1
1
1
1
1
1
1
1.20075
2.41414
2.67687
2.66753
2.66228
2.6562
2.65004
1.47421
0.732226
0.302672
0.447302
0.685867
0.869519
0.956783
1.0745
1.11259
1.12257
1.14776
1.19769
1.24551
1.30258
1.38004
1.45911
1.49426
1.50568
1.50971
1.53255
1.55739
1.54956
1.53749
1.53705
1.54728
1.56313
1.58081
1.58362
1.57948
1.57985
1.58243
1.59153
2.19931
2.63754
2.65569
2.65432
2.6582
2.66634
2.6713
2.67081
2.67036
2.67435
2.68027
2.68349
2.68124
2.67378
2.6677
2.66358
2.66312
2.66437
2.66416
2.66019
2.65384
2.64841
2.64532
2.64422
2.64354
2.64156
2.63775
2.63318
2.62895
2.62574
2.62333
2.62093
2.61782
2.6136
2.6083
2.60236
2.59627
2.59048
2.58541
2.58136
2.57825
2.57542
2.57181
2.56654
2.55979
2.55262
2.54609
2.54059
2.53586
2.53124
2.52606
2.52003
2.51345
2.50683
2.5005
2.49449
2.48881
2.48351
2.47868
2.47425
2.46988
2.4651
2.45957
2.45337
2.44676
2.43996
2.43313
2.42633
2.41966
2.41326
2.40719
2.4014
2.39585
2.39041
2.38487
2.37898
2.37268
2.36618
2.35974
2.35352
2.34751
2.34155
2.33556
2.32952
2.32347
2.31754
2.31193
2.30665
2.30144
2.29593
2.28995
2.28357
2.27706
2.27058
2.26427
2.25839
2.25295
2.24759
2.24203
2.23634
2.2306
2.22496
2.21955
2.2143
2.20906
2.20372
2.1981
2.19224
2.18595
2.17934
2.17317
2.16779
2.16335
2.15896
2.15414
2.14917
2.14421
2.13934
2.13425
2.12896
2.12365
2.1185
2.11324
2.10704
2.10027
2.09421
2.08934
2.08549
2.08247
2.0787
2.07413
2.06843
2.06186
2.05591
2.05144
2.04798
2.04472
2.03925
2.03321
2.04518
2.1572
2.27582
2.33864
2.36308
2.38432
2.39315
2.39844
2.39839
2.39436
2.39042
2.38932
2.39176
2.39498
2.39441
2.3908
2.38575
2.38196
2.37987
2.38046
2.38285
1.74745
1.37922
1.17287
0.959894
0.878754
0.829197
0.832071
0.883721
0.894709
0.911019
0.936768
0.977756
1.07776
1.15993
1.2058
1.23087
1.2629
1.31097
1.35915
1.39346
1.42973
1.47052
1.49262
1.50192
1.51286
1.52837
1.55242
1.55922
1.55513
1.54696
1.54176
1.5426
1.95096
2.55872
2.65498
2.65304
2.6446
2.64693
2.6561
2.66161
2.66469
2.66666
2.66946
2.67244
2.67262
2.66889
2.66378
2.65792
2.65422
2.65328
2.65341
2.65273
2.64973
2.64523
2.64098
2.63756
2.63466
2.63187
2.62903
2.62613
2.62301
2.6198
2.6165
2.61308
2.60935
2.60516
2.60059
2.59584
2.59112
2.58659
2.58237
2.57835
2.57425
2.56984
2.56521
2.56045
2.55536
2.54988
2.54441
2.53918
2.53395
2.52856
2.52306
2.51745
2.51156
2.50546
2.49939
2.49353
2.48803
2.48294
2.47818
2.47353
2.46872
2.46363
2.45823
2.45244
2.44624
2.43973
2.43304
2.42633
2.4197
2.41324
2.40706
2.40124
2.39576
2.3904
2.38491
2.37914
2.37305
2.36668
2.36016
2.35364
2.34727
2.34115
2.33527
2.32956
2.32389
2.31822
2.31252
2.3067
2.30077
2.29486
2.28904
2.28316
2.27715
2.27118
2.26519
2.25918
2.25332
2.24762
2.24197
2.2364
2.23081
2.22506
2.21924
2.21376
2.20849
2.20333
2.19811
2.19287
2.1876
2.18217
2.17627
2.16982
2.16395
2.15881
2.15377
2.14899
2.1445
2.14007
2.1356
2.13108
2.12596
2.11959
2.11254
2.10638
2.1015
2.09714
2.09251
2.08755
2.08274
2.07769
2.07253
2.06808
2.06441
2.06097
2.05627
2.04917
2.04193
2.03504
2.02905
2.0344
2.10187
2.26576
2.36477
2.39122
2.38337
2.38359
2.38691
2.38998
2.39096
2.39103
2.39051
2.38928
2.38744
2.38612
2.38482
2.38349
2.38267
2.3819
2.38072
2.3795
1.87604
1.64026
1.46468
1.32321
1.22542
1.13966
1.0277
0.979057
0.978866
0.995117
1.01181
1.02706
1.04564
1.06366
1.07691
1.07763
1.08449
1.11179
1.17815
1.23656
1.27825
1.3335
1.37923
1.41449
1.44468
1.46146
1.48153
1.50053
1.50654
1.50572
1.50895
1.51476
1.64385
2.36845
2.63239
2.63573
2.61983
2.60686
2.61153
2.61842
2.62402
2.6292
2.63039
2.63129
2.635
2.63714
2.63621
2.63235
2.62717
2.62278
2.62091
2.62098
2.62166
2.62108
2.6181
2.61315
2.6079
2.60351
2.60023
2.59828
2.59685
2.59508
2.59204
2.58834
2.58464
2.581
2.57745
2.57402
2.57077
2.56767
2.56449
2.56082
2.55637
2.55146
2.5468
2.54301
2.5401
2.53706
2.53301
2.52796
2.52224
2.51635
2.51085
2.50596
2.50128
2.49628
2.49101
2.48578
2.48084
2.47627
2.47182
2.46711
2.46201
2.45673
2.45152
2.44634
2.44082
2.43483
2.42853
2.42207
2.41555
2.40911
2.40286
2.39702
2.39175
2.38669
2.38145
2.37598
2.37028
2.36422
2.35781
2.35123
2.34461
2.33834
2.33244
2.32695
2.32173
2.31644
2.31073
2.30473
2.29849
2.29227
2.2864
2.28073
2.27505
2.26944
2.26383
2.2581
2.25219
2.24627
2.24055
2.23497
2.22935
2.22354
2.21761
2.21182
2.20648
2.20158
2.1969
2.19241
2.18793
2.18302
2.17724
2.17021
2.16254
2.15634
2.15165
2.14738
2.14343
2.13943
2.13531
2.13101
2.12581
2.11898
2.1115
2.10594
2.10186
2.09782
2.09321
2.08756
2.08126
2.0761
2.07212
2.06878
2.0656
2.06184
2.05633
2.04785
2.03942
2.03371
2.02929
2.03166
2.05572
2.18647
2.3712
2.43568
2.39807
2.37604
2.37433
2.37957
2.38607
2.38801
2.38724
2.38231
2.37691
2.37534
2.37537
2.37747
2.37951
2.37949
2.37781
2.37415
1.97123
1.81221
1.65772
1.50632
1.41791
1.34933
1.28899
1.23205
1.1513
1.09697
1.09769
1.1089
1.1061
1.09322
1.08276
1.08353
1.08931
1.09874
1.1072
1.12054
1.14151
1.18126
1.23193
1.27936
1.33796
1.37996
1.39807
1.41781
1.43437
1.44513
1.46833
1.49668
1.54189
2.06739
2.51373
2.59331
2.54669
2.52621
2.52986
2.53953
2.54887
2.55764
2.56064
2.5622
2.56614
2.5728
2.57687
2.57702
2.57413
2.57005
2.56899
2.56918
2.57114
2.5726
2.57147
2.56696
2.56192
2.55764
2.55499
2.55426
2.55476
2.55512
2.55351
2.54959
2.54555
2.54192
2.53868
2.53607
2.5342
2.53283
2.53125
2.5288
2.52539
2.52142
2.5175
2.51421
2.51198
2.50982
2.50609
2.50128
2.49633
2.49155
2.48722
2.48353
2.48007
2.47608
2.47156
2.46692
2.46243
2.4581
2.45371
2.44908
2.4443
2.43972
2.43546
2.43115
2.42626
2.42064
2.4146
2.40818
2.40161
2.39533
2.38937
2.38416
2.37968
2.37511
2.37011
2.3648
2.35917
2.35331
2.34734
2.34131
2.33515
2.32899
2.32325
2.31791
2.31282
2.30756
2.30209
2.29655
2.29075
2.28458
2.27835
2.27256
2.26723
2.26209
2.25693
2.25157
2.24585
2.23977
2.23366
2.22777
2.22211
2.2166
2.21122
2.20596
2.20086
2.1961
2.1918
2.18772
2.18344
2.17867
2.17318
2.16675
2.15938
2.15225
2.14699
2.14301
2.1393
2.13567
2.13182
2.12761
2.12267
2.11677
2.11016
2.10407
2.09938
2.09516
2.09062
2.08536
2.07953
2.0741
2.06993
2.06621
2.06244
2.05811
2.05219
2.04497
2.03774
2.03256
2.0297
2.03263
2.04966
2.13985
2.33856
2.45698
2.42899
2.38654
2.36996
2.36993
2.37393
2.3757
2.37483
2.37135
2.36742
2.36632
2.36748
2.37015
2.37179
2.37151
2.3702
2.36688
2.0454
1.90954
1.7801
1.67851
1.58601
1.47158
1.41239
1.38141
1.33493
1.26778
1.21006
1.19914
1.20094
1.1941
1.17632
1.15091
1.13639
1.12751
1.12792
1.12857
1.13813
1.14125
1.14257
1.14888
1.17366
1.22251
1.26159
1.30536
1.35109
1.39694
1.44541
1.50104
1.54106
1.72719
2.3462
2.54621
2.50499
2.47358
2.47117
2.47393
2.48215
2.49229
2.49561
2.4958
2.49835
2.50479
2.51254
2.51777
2.51995
2.51988
2.51784
2.51721
2.51831
2.52018
2.52114
2.52061
2.51912
2.51636
2.5148
2.51415
2.51412
2.51415
2.51176
2.50778
2.5034
2.49995
2.49777
2.4971
2.49719
2.49701
2.49581
2.49315
2.48958
2.48574
2.482
2.47897
2.47707
2.47513
2.47197
2.4683
2.4645
2.46073
2.45702
2.45346
2.4502
2.44676
2.44268
2.43838
2.4341
2.42985
2.42562
2.42157
2.41797
2.41484
2.41157
2.4073
2.40219
2.39662
2.39046
2.38401
2.37791
2.37237
2.36744
2.3633
2.35906
2.35404
2.34869
2.34317
2.33766
2.33236
2.32725
2.32213
2.31679
2.31107
2.30511
2.29959
2.29441
2.28933
2.28438
2.27942
2.27418
2.26842
2.26233
2.25657
2.25139
2.24651
2.24163
2.23653
2.23099
2.22486
2.21854
2.21271
2.20751
2.20275
2.19816
2.19354
2.18872
2.18377
2.17899
2.17458
2.17036
2.16599
2.16136
2.15634
2.15074
2.14447
2.13802
2.13264
2.12863
2.12513
2.12163
2.11796
2.11403
2.1097
2.10447
2.09794
2.09155
2.08689
2.08277
2.07847
2.07396
2.0691
2.06373
2.05851
2.05388
2.04912
2.04368
2.03844
2.0334
2.02871
2.02912
2.04054
2.07946
2.14513
2.26704
2.42385
2.43562
2.4009
2.37275
2.36028
2.35699
2.35688
2.35732
2.35783
2.3584
2.35922
2.36001
2.35997
2.35902
2.35807
2.35756
2.35619
2.09454
1.98231
1.8642
1.77185
1.6986
1.61508
1.52872
1.46904
1.42085
1.38076
1.34499
1.29822
1.27651
1.273
1.26319
1.24149
1.20656
1.18517
1.17547
1.1698
1.16788
1.16982
1.1681
1.15998
1.15489
1.15773
1.16721
1.19045
1.23366
1.31819
1.39811
1.48247
1.53818
1.57607
2.10145
2.49959
2.48599
2.45687
2.45326
2.45586
2.46215
2.46658
2.46675
2.46374
2.46402
2.46832
2.47578
2.48334
2.48691
2.48673
2.48342
2.48035
2.48108
2.48386
2.4881
2.49014
2.48976
2.48709
2.48336
2.48165
2.48039
2.47975
2.4785
2.47566
2.47262
2.47041
2.46968
2.46987
2.46955
2.46763
2.46466
2.46104
2.45751
2.45424
2.45151
2.44947
2.44752
2.44487
2.4417
2.43831
2.43467
2.43074
2.42679
2.42303
2.41981
2.41676
2.41299
2.40879
2.40446
2.40022
2.39619
2.39275
2.39029
2.38786
2.38396
2.37911
2.37358
2.36747
2.3614
2.35593
2.35093
2.34646
2.34239
2.33784
2.33267
2.32717
2.32144
2.31592
2.31091
2.30626
2.30177
2.2971
2.29214
2.2867
2.28092
2.27533
2.27001
2.26499
2.26023
2.25556
2.25076
2.24564
2.24026
2.23486
2.22957
2.22448
2.21952
2.2145
2.20914
2.20337
2.19755
2.19219
2.18746
2.18314
2.17898
2.17476
2.17022
2.16514
2.15965
2.15439
2.14987
2.1459
2.14217
2.13842
2.13439
2.12971
2.12412
2.11791
2.112
2.10739
2.10398
2.10108
2.09826
2.0953
2.0917
2.08653
2.07924
2.07241
2.06834
2.06517
2.0619
2.05822
2.05353
2.04722
2.04017
2.03396
2.02938
2.0259
2.02303
2.02415
2.03399
2.07151
2.13128
2.15566
2.19344
2.32475
2.40805
2.3979
2.37354
2.35169
2.33993
2.33815
2.3392
2.3431
2.34707
2.34816
2.34675
2.3438
2.34169
2.34086
2.34162
2.34186
2.12915
2.03369
1.93474
1.85191
1.77442
1.69181
1.62354
1.5733
1.51199
1.45778
1.43011
1.39469
1.3548
1.34504
1.33734
1.31611
1.2816
1.24732
1.23802
1.23405
1.22579
1.21894
1.21182
1.20119
1.18456
1.17788
1.1829
1.20466
1.23707
1.27055
1.32148
1.38138
1.45926
1.47163
1.65823
2.35462
2.49222
2.46998
2.46159
2.46117
2.46452
2.46722
2.46593
2.46019
2.45756
2.45805
2.46159
2.4683
2.47227
2.47195
2.46962
2.46663
2.46635
2.46773
2.47102
2.47276
2.47187
2.46913
2.46558
2.4631
2.4614
2.46045
2.45969
2.45802
2.4558
2.45389
2.45275
2.45144
2.44882
2.44546
2.44149
2.4379
2.43475
2.43272
2.43155
2.42938
2.42578
2.4218
2.41772
2.41383
2.41003
2.40606
2.40213
2.39848
2.39512
2.39166
2.38768
2.38336
2.37887
2.37445
2.37044
2.36741
2.36522
2.36186
2.35722
2.35201
2.34595
2.33974
2.3345
2.32986
2.32583
2.3219
2.31714
2.31173
2.30572
2.29965
2.2942
2.28935
2.2849
2.28042
2.27561
2.27058
2.26538
2.26011
2.25501
2.25002
2.24492
2.23969
2.2345
2.22956
2.22485
2.22029
2.21577
2.21105
2.20596
2.20052
2.19501
2.18967
2.18449
2.17947
2.17461
2.16986
2.16518
2.16067
2.15637
2.15217
2.14781
2.14305
2.13774
2.13219
2.12703
2.12263
2.11892
2.11561
2.11236
2.10886
2.1048
2.09985
2.09394
2.08774
2.08257
2.07928
2.07703
2.07487
2.07229
2.06876
2.0633
2.0559
2.04986
2.04654
2.04386
2.04087
2.03695
2.03116
2.0237
2.017
2.01266
2.00982
2.01154
2.02255
2.05706
2.11476
2.16457
2.16095
2.16233
2.21402
2.33215
2.37229
2.3605
2.33959
2.32301
2.31879
2.31951
2.32412
2.32821
2.32829
2.32662
2.323
2.32059
2.32009
2.32098
2.32235
2.15551
2.07261
1.98586
1.91145
1.841
1.76413
1.69428
1.64799
1.59568
1.54283
1.51331
1.47962
1.42595
1.40564
1.39259
1.37206
1.34795
1.31494
1.28701
1.28267
1.27916
1.2694
1.25927
1.24989
1.23534
1.22901
1.2415
1.2669
1.29637
1.3332
1.37784
1.40485
1.40718
1.41039
1.42142
1.94177
2.47957
2.48804
2.48145
2.47601
2.47458
2.4727
2.47305
2.4701
2.46594
2.46209
2.4598
2.46151
2.46471
2.46597
2.46496
2.4639
2.46255
2.46164
2.46109
2.46094
2.45994
2.45844
2.45666
2.45446
2.45239
2.45061
2.4487
2.44641
2.44392
2.44145
2.43923
2.43661
2.43319
2.42942
2.42559
2.42214
2.41939
2.41799
2.41657
2.41276
2.4081
2.40292
2.39805
2.39374
2.39
2.38684
2.38359
2.37976
2.37537
2.37077
2.36615
2.3616
2.35703
2.35261
2.34879
2.34582
2.3426
2.3381
2.33321
2.32787
2.322
2.31637
2.31146
2.30716
2.30315
2.29848
2.29322
2.28728
2.28088
2.27514
2.27025
2.26598
2.26176
2.25692
2.25152
2.24551
2.23964
2.23483
2.23052
2.22621
2.22159
2.21648
2.2108
2.20514
2.20018
2.19586
2.19178
2.18761
2.183
2.17766
2.17171
2.16594
2.16096
2.1566
2.15241
2.14807
2.14342
2.13849
2.13361
2.12901
2.12465
2.12032
2.11579
2.11092
2.10578
2.10076
2.09623
2.09227
2.08882
2.08568
2.08245
2.07884
2.07453
2.06924
2.0631
2.05746
2.05385
2.05158
2.04942
2.04682
2.04342
2.03865
2.03241
2.02656
2.02268
2.01949
2.01576
2.01114
2.00621
2.00056
1.99552
1.99592
2.0049
2.03571
2.09553
2.13966
2.15813
2.15162
2.14214
2.14821
2.22044
2.30993
2.33096
2.32137
2.30688
2.2989
2.29788
2.29977
2.30149
2.30144
2.3007
2.29865
2.29661
2.2958
2.29606
2.29711
2.17837
2.10309
2.02716
1.9619
1.8933
1.82013
1.76726
1.71855
1.66402
1.60974
1.58324
1.5507
1.5071
1.47101
1.44402
1.41348
1.39389
1.377
1.35201
1.33114
1.327
1.31987
1.30893
1.30219
1.29411
1.30164
1.32925
1.35272
1.37832
1.40298
1.42689
1.43632
1.43825
1.44051
1.44534
1.4923
2.07734
2.50326
2.50983
2.49277
2.47836
2.46984
2.46971
2.47293
2.47382
2.46843
2.46245
2.45761
2.45558
2.45645
2.45935
2.46078
2.4597
2.45706
2.45312
2.44971
2.44772
2.44755
2.44771
2.44711
2.44433
2.44083
2.43732
2.43371
2.43042
2.42763
2.425
2.42203
2.41869
2.41523
2.41179
2.40852
2.40568
2.40326
2.40023
2.3957
2.39066
2.38524
2.3802
2.37572
2.37229
2.36983
2.36652
2.36189
2.35668
2.35097
2.34569
2.34085
2.33646
2.33284
2.32976
2.32601
2.32119
2.31617
2.31103
2.30589
2.30093
2.2961
2.2913
2.28636
2.28124
2.27597
2.27046
2.26468
2.25907
2.25402
2.2495
2.24516
2.24039
2.23522
2.22941
2.22302
2.21712
2.21232
2.20811
2.20397
2.19967
2.19488
2.18936
2.18368
2.17851
2.17385
2.16954
2.16538
2.16102
2.15608
2.15057
2.14519
2.14038
2.136
2.13178
2.12749
2.12285
2.11775
2.11248
2.10752
2.10305
2.09896
2.095
2.09085
2.08629
2.08137
2.07639
2.07163
2.06728
2.06354
2.06035
2.05731
2.0541
2.05041
2.04579
2.03991
2.03371
2.02924
2.02663
2.02448
2.02216
2.01933
2.01522
2.00922
2.00267
1.99784
1.99412
1.99068
1.98756
1.9845
1.98371
1.99064
2.01715
2.07179
2.11737
2.13816
2.14451
2.14071
2.13082
2.1216
2.13645
2.21321
2.27727
2.29869
2.29308
2.28269
2.27601
2.27303
2.2719
2.27191
2.27237
2.27266
2.27232
2.27135
2.27033
2.26967
2.19589
2.12772
2.06112
2.00238
1.93743
1.87413
1.82426
1.7771
1.72448
1.67612
1.63968
1.60512
1.56484
1.52936
1.50037
1.46463
1.43555
1.42356
1.406
1.37975
1.36737
1.36468
1.36431
1.36239
1.36326
1.39606
1.42295
1.43831
1.45834
1.46604
1.47009
1.48042
1.48308
1.48102
1.48125
1.48471
1.56715
2.10918
2.44469
2.48934
2.4712
2.45521
2.45537
2.46111
2.46822
2.46647
2.46054
2.45114
2.44329
2.44128
2.44462
2.44914
2.44923
2.44665
2.4418
2.43623
2.43286
2.43207
2.43308
2.43307
2.42959
2.42512
2.42033
2.41622
2.41248
2.40979
2.40762
2.40458
2.40119
2.39787
2.39465
2.39144
2.38799
2.38401
2.37971
2.37552
2.37102
2.36617
2.36146
2.35727
2.35389
2.35076
2.34645
2.34137
2.3358
2.32971
2.32424
2.31945
2.31568
2.31325
2.31015
2.30542
2.30004
2.29435
2.28915
2.28438
2.28012
2.27594
2.27109