/*--------------------------------*- C++ -*----------------------------------*\
  =========                 |
  \\      /  F ield         | OpenFOAM: The Open Source CFD Toolbox
   \\    /   O peration     | Website:  https://openfoam.org
    \\  /    A nd           | Version:  10
     \\/     M anipulation  |
\*---------------------------------------------------------------------------*/
FoamFile
{
    format      ascii;
    class       volVectorField;
    location    "9";
    object      U;
}
// * * * * * * * * * * * * * * * * * * * * * * * * * * * * * * * * * * * * * //

dimensions      [0 1 -1 0 0 0 0];

internalField   nonuniform List<vector> 
16128
(
(3 1.82963e-15 0)
(3 6.11929e-17 0)
(3 -3.22151e-15 0)
(3 1.07121e-14 0)
(3 1.42524e-14 0)
(3 -9.26656e-15 0)
(3 -5.93815e-14 0)
(3 -4.84031e-14 0)
(3 -3.46142e-14 0)
(3 -5.20144e-14 0)
(3 -5.61852e-14 0)
(3 -8.99278e-14 0)
(3 -5.69915e-14 0)
(3 -5.18275e-14 0)
(3 -5.97728e-14 0)
(3 -1.05792e-13 0)
(3 -3.70896e-14 0)
(3 4.77764e-14 0)
(3 7.08663e-14 0)
(3 8.94796e-14 0)
(3 1.26683e-13 0)
(3 1.24622e-13 0)
(3 1.14756e-13 0)
(3 1.02811e-13 0)
(1.44671 0.00831428 0)
(0.769137 0.00890577 0)
(0.723186 0.0110964 0)
(0.696744 0.0119843 0)
(0.667107 0.0124765 0)
(0.637964 0.0129801 0)
(0.608057 0.0134361 0)
(0.577763 0.0137396 0)
(0.54744 0.0138417 0)
(0.517392 0.0137999 0)
(0.487553 0.0138112 0)
(0.457532 0.014119 0)
(0.42697 0.0146543 0)
(0.39583 0.0151311 0)
(0.364128 0.01546 0)
(0.331644 0.0158085 0)
(0.29824 0.0162588 0)
(0.263982 0.0168746 0)
(0.228732 0.0176369 0)
(0.191885 0.0185308 0)
(0.153225 0.0192465 0)
(0.11241 0.0205686 0)
(0.0684522 0.0219421 0)
(0.0237566 0.022545 0)
(3 5.88265e-15 0)
(3 8.34022e-15 0)
(3 1.36712e-14 0)
(3 3.22993e-14 0)
(3 5.71655e-14 0)
(3 2.70877e-14 0)
(3 1.22425e-14 0)
(3 3.27697e-14 0)
(3 -1.58793e-14 0)
(3 -8.45546e-14 0)
(3 -1.02078e-13 0)
(3 -1.47739e-13 0)
(3 -1.26139e-13 0)
(3 -1.15012e-13 0)
(3 -1.01153e-13 0)
(3 -1.11111e-13 0)
(3 -3.58966e-14 0)
(3 2.10392e-14 0)
(3 5.621e-14 0)
(3 7.34183e-14 0)
(3 1.27546e-13 0)
(3 1.69166e-13 0)
(3 2.37945e-13 0)
(3 1.84418e-13 0)
(1.46156 0.0384205 0)
(0.765083 0.0358039 0)
(0.715747 0.0329115 0)
(0.68899 0.0345948 0)
(0.659342 0.0359816 0)
(0.630237 0.0375608 0)
(0.600393 0.0390717 0)
(0.570115 0.0401249 0)
(0.539722 0.0405088 0)
(0.509562 0.0403651 0)
(0.479661 0.0403832 0)
(0.449673 0.0414088 0)
(0.419178 0.0431936 0)
(0.388058 0.0447379 0)
(0.356403 0.0457597 0)
(0.324167 0.0468874 0)
(0.291313 0.0484571 0)
(0.257846 0.0505971 0)
(0.223545 0.0529855 0)
(0.187848 0.0556153 0)
(0.150493 0.0577734 0)
(0.111084 0.0622578 0)
(0.0680535 0.067099 0)
(0.0247595 0.0693843 0)
(3 -6.36634e-15 0)
(3 3.13475e-15 0)
(3 9.8022e-15 0)
(3 3.82642e-15 0)
(3 2.46404e-14 0)
(3 6.15664e-14 0)
(3 7.91701e-14 0)
(3 1.7096e-14 0)
(3 -9.26019e-14 0)
(3 -8.39118e-14 0)
(3 -4.85058e-14 0)
(3 -9.87344e-14 0)
(3 -1.41498e-13 0)
(3 -1.09421e-13 0)
(3 -1.28955e-13 0)
(3 -7.76144e-14 0)
(3 -1.013e-15 0)
(3 4.7045e-14 0)
(3 8.90161e-14 0)
(3 7.00832e-14 0)
(3 1.00479e-13 0)
(3 1.34484e-13 0)
(3 1.12993e-13 0)
(3 6.36365e-14 0)
(1.50915 0.0677583 0)
(0.771612 0.0623999 0)
(0.717869 0.057023 0)
(0.689533 0.0591417 0)
(0.658868 0.0611657 0)
(0.629065 0.0635755 0)
(0.598768 0.0659771 0)
(0.568084 0.0677039 0)
(0.537199 0.0683754 0)
(0.506468 0.068154 0)
(0.47601 0.0681232 0)
(0.445519 0.0696909 0)
(0.414498 0.0724863 0)
(0.382707 0.0748941 0)
(0.35034 0.0764592 0)
(0.317543 0.0781775 0)
(0.284323 0.0804968 0)
(0.250593 0.0835602 0)
(0.216169 0.086843 0)
(0.180839 0.0907773 0)
(0.14448 0.0943861 0)
(0.107028 0.102599 0)
(0.065705 0.111102 0)
(0.0269125 0.114661 0)
(3 -6.49194e-15 0)
(3 1.93125e-15 0)
(3 -9.21188e-15 0)
(3 -2.43009e-14 0)
(3 -8.21155e-15 0)
(3 2.36858e-14 0)
(3 -3.86821e-15 0)
(3 -5.33894e-14 0)
(3 -3.60067e-14 0)
(3 -2.323e-14 0)
(3 2.32844e-15 0)
(3 -2.63205e-14 0)
(3 -9.03404e-14 0)
(3 -1.3321e-13 0)
(3 -7.67475e-14 0)
(3 -4.33884e-14 0)
(3 -3.03431e-14 0)
(3 4.52796e-14 0)
(3 3.37791e-14 0)
(3 8.57185e-14 0)
(3 1.16191e-13 0)
(3 8.816e-14 0)
(3 9.32255e-14 0)
(3 6.54454e-14 0)
(1.5814 0.0942017 0)
(0.779836 0.0888286 0)
(0.721034 0.0820588 0)
(0.692034 0.0838783 0)
(0.661296 0.0862296 0)
(0.631724 0.0892823 0)
(0.601858 0.0925292 0)
(0.57155 0.0950373 0)
(0.540804 0.0962433 0)
(0.509947 0.0962279 0)
(0.479202 0.0963346 0)
(0.448364 0.0985424 0)
(0.416898 0.102484 0)
(0.384406 0.106026 0)
(0.351134 0.108472 0)
(0.317371 0.111025 0)
(0.283091 0.114111 0)
(0.248082 0.117871 0)
(0.212215 0.121538 0)
(0.175781 0.126317 0)
(0.138766 0.130773 0)
(0.102403 0.142546 0)
(0.0626679 0.153161 0)
(0.0320727 0.157392 0)
(3 2.8763e-15 0)
(3 -4.12258e-15 0)
(3 -1.48948e-14 0)
(3 -1.67555e-14 0)
(3 -2.94792e-14 0)
(3 -4.74095e-14 0)
(3 -7.94288e-14 0)
(3 -4.77748e-14 0)
(3 6.97192e-14 0)
(3 9.89996e-14 0)
(3 7.20688e-14 0)
(3 5.98663e-15 0)
(3 -5.31331e-14 0)
(3 -7.82698e-14 0)
(3 -4.78381e-14 0)
(3 1.42051e-14 0)
(3 7.46711e-15 0)
(3 1.36795e-14 0)
(3 1.91511e-14 0)
(3 7.1082e-14 0)
(3 8.84036e-14 0)
(3 5.92205e-14 0)
(3 7.02493e-14 0)
(3 2.05166e-13 0)
(1.68058 0.120551 0)
(0.790086 0.115736 0)
(0.723157 0.108638 0)
(0.693044 0.109166 0)
(0.662002 0.111376 0)
(0.632546 0.114741 0)
(0.603125 0.118685 0)
(0.573348 0.122008 0)
(0.543012 0.123918 0)
(0.512377 0.124296 0)
(0.481785 0.124578 0)
(0.451218 0.127345 0)
(0.420177 0.13239 0)
(0.388047 0.137157 0)
(0.354996 0.140665 0)
(0.321346 0.14426 0)
(0.286945 0.148322 0)
(0.251426 0.15305 0)
(0.21461 0.157368 0)
(0.177101 0.163468 0)
(0.138233 0.168868 0)
(0.100721 0.183763 0)
(0.0599266 0.193373 0)
(0.0387148 0.197736 0)
(3 7.29331e-15 0)
(3 -5.58253e-15 0)
(3 -1.5335e-14 0)
(3 -7.61514e-15 0)
(3 -1.95969e-14 0)
(3 -1.92356e-14 0)
(3 -1.39402e-14 0)
(3 -5.53039e-15 0)
(3 3.91999e-14 0)
(3 5.68514e-14 0)
(3 1.38629e-15 0)
(3 -2.76092e-14 0)
(3 -2.51278e-14 0)
(3 3.59786e-14 0)
(3 4.50863e-14 0)
(3 5.24027e-14 0)
(3 3.18187e-14 0)
(3 3.0765e-16 0)
(3 5.01574e-14 0)
(3 -2.65643e-14 0)
(3 -1.87047e-14 0)
(3 3.5937e-15 0)
(3 1.23711e-13 0)
(3 1.28368e-13 0)
(1.81527 0.145284 0)
(0.80586 0.143343 0)
(0.727211 0.136969 0)
(0.695886 0.13517 0)
(0.664347 0.136843 0)
(0.634744 0.14027 0)
(0.605443 0.144783 0)
(0.575898 0.148946 0)
(0.545729 0.151721 0)
(0.515065 0.152716 0)
(0.484319 0.15324 0)
(0.453692 0.156465 0)
(0.422822 0.162527 0)
(0.390879 0.168556 0)
(0.357863 0.173222 0)
(0.324116 0.17797 0)
(0.289458 0.183138 0)
(0.253558 0.189048 0)
(0.216278 0.194139 0)
(0.178796 0.201734 0)
(0.139948 0.207816 0)
(0.103854 0.225 0)
(0.0622628 0.234666 0)
(0.0274124 0.237355 0)
(3 3.17144e-15 0)
(3 1.69842e-14 0)
(3 1.01016e-14 0)
(3 -1.30448e-14 0)
(3 -1.93324e-14 0)
(3 2.24184e-14 0)
(3 4.42336e-14 0)
(3 -4.5061e-16 0)
(3 -8.93414e-15 0)
(3 -1.19214e-14 0)
(3 4.69609e-16 0)
(3 2.34503e-14 0)
(3 1.16887e-13 0)
(3 1.47542e-13 0)
(3 9.25359e-14 0)
(3 6.77732e-14 0)
(3 9.9965e-14 0)
(3 8.54712e-14 0)
(3 1.70625e-14 0)
(3 2.06037e-15 0)
(3 3.86928e-14 0)
(3 1.12229e-13 0)
(3 1.05999e-13 0)
(3 1.50399e-14 0)
(1.98614 0.164746 0)
(0.828134 0.171382 0)
(0.733132 0.166115 0)
(0.701586 0.161168 0)
(0.670198 0.16197 0)
(0.641164 0.165199 0)
(0.612731 0.170064 0)
(0.584208 0.174955 0)
(0.554963 0.178634 0)
(0.524874 0.180456 0)
(0.494313 0.18136 0)
(0.463718 0.185024 0)
(0.432956 0.192105 0)
(0.40103 0.199575 0)
(0.367701 0.205668 0)
(0.333347 0.211845 0)
(0.297855 0.218387 0)
(0.261085 0.225786 0)
(0.222841 0.231763 0)
(0.184605 0.240653 0)
(0.144518 0.246687 0)
(0.106943 0.265394 0)
(0.0642843 0.278861 0)
(0.0229975 0.279703 0)
(3 -2.7871e-15 0)
(3 1.10653e-14 0)
(3 -1.10178e-16 0)
(3 -1.60749e-15 0)
(3 5.91259e-15 0)
(3 1.00138e-14 0)
(3 2.364e-14 0)
(3 3.12695e-14 0)
(3 1.2385e-14 0)
(3 -1.34289e-15 0)
(3 7.40864e-14 0)
(3 9.5704e-14 0)
(3 1.2937e-13 0)
(3 1.26637e-13 0)
(3 8.40478e-14 0)
(3 7.5099e-14 0)
(3 6.39132e-14 0)
(3 3.41117e-14 0)
(3 8.81146e-15 0)
(3 4.21466e-14 0)
(3 -1.61935e-14 0)
(3 -5.03946e-14 0)
(3 -5.31624e-14 0)
(3 -5.45366e-14 0)
(2.18888 0.178177 0)
(0.852214 0.203632 0)
(0.732541 0.196487 0)
(0.701155 0.187901 0)
(0.669533 0.187672 0)
(0.64056 0.190422 0)
(0.612419 0.195369 0)
(0.584523 0.20092 0)
(0.556159 0.205624 0)
(0.527005 0.208542 0)
(0.497291 0.209999 0)
(0.467646 0.214039 0)
(0.438218 0.222078 0)
(0.407756 0.231079 0)
(0.375531 0.238758 0)
(0.341801 0.246571 0)
(0.306369 0.254758 0)
(0.269241 0.264062 0)
(0.229946 0.271322 0)
(0.190247 0.281778 0)
(0.147858 0.287905 0)
(0.108171 0.307758 0)
(0.0657303 0.323493 0)
(0.0288129 0.324577 0)
(3 -1.48435e-15 0)
(3 1.4877e-14 0)
(3 5.98402e-15 0)
(3 3.5294e-14 0)
(3 7.75496e-14 0)
(3 4.84298e-14 0)
(3 2.75337e-14 0)
(3 5.0297e-15 0)
(3 -3.26564e-14 0)
(3 -6.39562e-14 0)
(3 -1.0903e-14 0)
(3 8.51594e-14 0)
(3 8.98458e-14 0)
(3 7.05155e-14 0)
(3 1.84153e-14 0)
(3 8.78395e-15 0)
(3 -3.15476e-14 0)
(3 -2.93407e-14 0)
(3 1.83734e-14 0)
(3 9.18669e-15 0)
(3 -9.49702e-14 0)
(3 -1.26179e-13 0)
(3 -7.62585e-14 0)
(3 -4.17375e-14 0)
(2.42624 0.189243 0)
(0.89039 0.243493 0)
(0.742842 0.22612 0)
(0.714591 0.21654 0)
(0.681772 0.215494 0)
(0.651334 0.217609 0)
(0.621517 0.222254 0)
(0.592338 0.22787 0)
(0.563164 0.232949 0)
(0.53352 0.236529 0)
(0.503448 0.238226 0)
(0.473719 0.24215 0)
(0.444913 0.250744 0)
(0.415722 0.261252 0)
(0.384769 0.27078 0)
(0.352115 0.280671 0)
(0.317353 0.291033 0)
(0.280636 0.302901 0)
(0.24092 0.312158 0)
(0.200193 0.324978 0)
(0.155132 0.332247 0)
(0.11205 0.353783 0)
(0.0664135 0.367515 0)
(0.0430797 0.37044 0)
(3 -2.12542e-14 0)
(3 -1.01331e-14 0)
(3 -1.10757e-15 0)
(3 2.61547e-14 0)
(3 5.31609e-14 0)
(3 6.40422e-14 0)
(3 3.50326e-14 0)
(3 1.94349e-14 0)
(3 -4.0628e-14 0)
(3 -2.41561e-14 0)
(3 -4.71508e-14 0)
(3 3.49391e-14 0)
(3 2.88739e-14 0)
(3 1.21209e-14 0)
(3 7.94487e-15 0)
(3 1.11003e-14 0)
(3 -2.19857e-14 0)
(3 -1.84644e-14 0)
(3 1.42646e-14 0)
(3 2.36768e-14 0)
(3 4.4589e-14 0)
(3 1.19573e-14 0)
(3 1.38862e-14 0)
(3 3.70293e-14 0)
(2.69698 0.185982 0)
(0.963075 0.279325 0)
(0.776581 0.241369 0)
(0.749788 0.23993 0)
(0.713815 0.241561 0)
(0.680293 0.244599 0)
(0.646793 0.249592 0)
(0.614074 0.255713 0)
(0.581747 0.261544 0)
(0.54946 0.266018 0)
(0.517048 0.268021 0)
(0.485303 0.271377 0)
(0.455234 0.279794 0)
(0.425931 0.291304 0)
(0.395453 0.302465 0)
(0.363621 0.314498 0)
(0.329561 0.327313 0)
(0.293404 0.342352 0)
(0.253186 0.354426 0)
(0.211759 0.370521 0)
(0.164913 0.380298 0)
(0.1199 0.404235 0)
(0.0708653 0.414827 0)
(0.0468574 0.420173 0)
(3 -4.34017e-15 0)
(3 -3.40199e-14 0)
(3 -4.88332e-15 0)
(3 6.64957e-15 0)
(3 -1.20371e-14 0)
(3 1.22112e-15 0)
(3 -1.77739e-14 0)
(3 3.03537e-15 0)
(3 5.36339e-14 0)
(3 1.68546e-14 0)
(3 -2.1938e-14 0)
(3 3.39059e-14 0)
(3 5.24616e-14 0)
(3 7.6204e-14 0)
(3 8.66793e-14 0)
(3 4.63899e-14 0)
(3 2.55335e-14 0)
(3 -3.99818e-16 0)
(3 -2.76199e-14 0)
(3 7.31986e-14 0)
(3 1.04988e-13 0)
(3 6.80107e-14 0)
(3 7.58137e-14 0)
(3 6.83085e-14 0)
(2.95064 0.0805443 0)
(1.0597 0.292833 0)
(0.806277 0.25745 0)
(0.789216 0.263223 0)
(0.752788 0.26842 0)
(0.71738 0.273673 0)
(0.680932 0.279901 0)
(0.645262 0.286623 0)
(0.610135 0.292769 0)
(0.575038 0.29792 0)
(0.539665 0.300376 0)
(0.504872 0.302946 0)
(0.472051 0.310453 0)
(0.441102 0.322251 0)
(0.409865 0.334467 0)
(0.37803 0.34836 0)
(0.344298 0.3636 0)
(0.309098 0.382138 0)
(0.2693 0.397497 0)
(0.22844 0.417068 0)
(0.180886 0.430237 0)
(0.133877 0.457719 0)
(0.0799343 0.467468 0)
(0.05324 0.475266 0)
(3 8.64845e-15 0)
(3 7.40579e-16 0)
(3 2.96642e-14 0)
(3 7.56323e-15 0)
(3 -3.9794e-14 0)
(3 -7.90117e-14 0)
(3 -6.66565e-14 0)
(3 -4.80924e-14 0)
(3 2.6329e-14 0)
(3 2.39794e-14 0)
(3 7.05697e-14 0)
(3 7.98683e-14 0)
(3 9.17681e-14 0)
(3 1.21424e-13 0)
(3 1.22736e-13 0)
(3 8.93175e-14 0)
(3 9.31233e-14 0)
(3 7.53111e-14 0)
(3 7.40919e-14 0)
(3 1.14199e-13 0)
(3 1.04075e-13 0)
(3 1.10373e-13 0)
(3 1.06522e-13 0)
(3 8.22911e-14 0)
(3.01824 0.007414 0)
(1.14861 0.288373 0)
(0.808328 0.271263 0)
(0.798577 0.293107 0)
(0.769634 0.300816 0)
(0.740757 0.305276 0)
(0.709408 0.31047 0)
(0.676515 0.317485 0)
(0.642205 0.325303 0)
(0.606756 0.332024 0)
(0.569957 0.335567 0)
(0.532635 0.337747 0)
(0.49661 0.343899 0)
(0.462928 0.355333 0)
(0.429774 0.3679 0)
(0.39705 0.383066 0)
(0.363078 0.400104 0)
(0.328694 0.421938 0)
(0.288866 0.441309 0)
(0.247195 0.465859 0)
(0.196515 0.484928 0)
(0.146925 0.518256 0)
(0.0862986 0.529054 0)
(0.0558742 0.538585 0)
(3 3.20528e-15 0)
(3 1.31153e-14 0)
(3 2.07579e-14 0)
(3 -4.14764e-15 0)
(3 -1.50429e-14 0)
(3 -2.18645e-15 0)
(3 1.6846e-14 0)
(3 1.97739e-16 0)
(3 1.57337e-14 0)
(3 5.20189e-14 0)
(3 3.67923e-14 0)
(3 4.00765e-14 0)
(3 1.36578e-13 0)
(3 1.68353e-13 0)
(3 1.27716e-13 0)
(3 1.08325e-13 0)
(3 1.17061e-13 0)
(3 1.10205e-13 0)
(3 9.49462e-14 0)
(3 9.91373e-14 0)
(3 9.06477e-14 0)
(3 7.56715e-14 0)
(3 7.88463e-14 0)
(3 5.72756e-14 0)
(3.00063 1.7991e-05 0)
(1.27967 0.306807 0)
(0.798041 0.278587 0)
(0.781739 0.308649 0)
(0.759502 0.325254 0)
(0.737191 0.332784 0)
(0.715419 0.339129 0)
(0.693032 0.346517 0)
(0.667651 0.355103 0)
(0.63758 0.364304 0)
(0.603304 0.371016 0)
(0.566148 0.37478 0)
(0.52829 0.380341 0)
(0.491989 0.391371 0)
(0.456376 0.403691 0)
(0.422006 0.419445 0)
(0.386753 0.437706 0)
(0.352474 0.462794 0)
(0.313013 0.487095 0)
(0.272065 0.517335 0)
(0.222129 0.542451 0)
(0.172548 0.582887 0)
(0.104312 0.598346 0)
(0.0702111 0.611981 0)
(3 1.61854e-14 0)
(3 2.67497e-14 0)
(3 -1.44395e-17 0)
(3 3.95893e-16 0)
(3 2.64623e-14 0)
(3 6.76258e-16 0)
(3 4.20369e-14 0)
(3 5.27725e-14 0)
(3 1.42143e-14 0)
(3 -2.28179e-14 0)
(3 -3.96575e-14 0)
(3 2.11532e-14 0)
(3 6.92014e-14 0)
(3 8.96412e-14 0)
(3 8.49122e-14 0)
(3 5.6166e-14 0)
(3 2.89884e-14 0)
(3 6.36999e-14 0)
(3 5.07244e-14 0)
(3 1.02941e-14 0)
(3 -3.80025e-14 0)
(3 -2.39855e-14 0)
(3 5.44443e-14 0)
(3 7.13992e-14 0)
(3 -6.8192e-08 0)
(1.4968 0.335497 0)
(0.808291 0.308847 0)
(0.753447 0.317947 0)
(0.736906 0.332207 0)
(0.719814 0.342349 0)
(0.704881 0.353489 0)
(0.688816 0.365377 0)
(0.673034 0.379269 0)
(0.654014 0.392556 0)
(0.62887 0.403625 0)
(0.597552 0.411312 0)
(0.562281 0.418239 0)
(0.526271 0.42978 0)
(0.489408 0.441909 0)
(0.45343 0.458198 0)
(0.416986 0.476869 0)
(0.383058 0.504325 0)
(0.344561 0.532983 0)
(0.304832 0.569584 0)
(0.251989 0.605358 0)
(0.196941 0.660634 0)
(0.116935 0.687712 0)
(0.0718005 0.708861 0)
(3 6.72226e-15 0)
(3 1.3049e-15 0)
(3 -2.83294e-14 0)
(3 2.28955e-15 0)
(3 3.55022e-14 0)
(3 4.28891e-14 0)
(3 1.51355e-14 0)
(3 3.55449e-14 0)
(3 -2.4094e-15 0)
(3 -9.36186e-15 0)
(3 2.67679e-14 0)
(3 3.96442e-14 0)
(3 -4.17451e-15 0)
(3 -3.98649e-14 0)
(3 -5.5459e-14 0)
(3 -3.90044e-14 0)
(3 -4.76773e-14 0)
(3 -4.81518e-14 0)
(3 -4.1122e-14 0)
(3 -5.85939e-14 0)
(3 -8.36286e-14 0)
(3 -2.02786e-14 0)
(3 4.46042e-14 0)
(3 9.5151e-14 0)
(3 -8.83808e-08 0)
(1.82854 0.374193 0)
(0.835638 0.367956 0)
(0.744996 0.34747 0)
(0.725982 0.349656 0)
(0.710799 0.356726 0)
(0.696515 0.365616 0)
(0.682734 0.377314 0)
(0.669221 0.392354 0)
(0.656549 0.410652 0)
(0.64121 0.428428 0)
(0.619357 0.442617 0)
(0.591326 0.453862 0)
(0.560259 0.468077 0)
(0.525251 0.481973 0)
(0.490192 0.499349 0)
(0.453422 0.517987 0)
(0.419572 0.547113 0)
(0.382226 0.580721 0)
(0.344878 0.626361 0)
(0.295981 0.674867 0)
(0.250333 0.744157 0)
(0.167785 0.788802 0)
(0.111093 0.822594 0)
(3 -2.57951e-15 0)
(3 -8.71951e-15 0)
(3 -9.73528e-15 0)
(3 5.25417e-15 0)
(3 2.29219e-14 0)
(3 2.52269e-14 0)
(3 3.63235e-14 0)
(3 -1.06852e-14 0)
(3 1.02371e-14 0)
(3 1.61562e-14 0)
(3 1.13965e-14 0)
(3 -1.25588e-14 0)
(3 -4.91482e-14 0)
(3 -9.31414e-14 0)
(3 -6.14088e-14 0)
(3 -9.72448e-15 0)
(3 3.17837e-15 0)
(3 -1.60856e-14 0)
(3 -7.41224e-15 0)
(3 1.22011e-14 0)
(3 2.33752e-14 0)
(3 2.54435e-15 0)
(3 4.30509e-15 0)
(3 7.84137e-14 0)
(3 -1.89137e-08 0)
(2.31276 0.375687 0)
(0.908267 0.437368 0)
(0.784297 0.376125 0)
(0.75266 0.373623 0)
(0.725529 0.376718 0)
(0.70378 0.383862 0)
(0.686295 0.394321 0)
(0.67111 0.407654 0)
(0.658374 0.425032 0)
(0.646622 0.44532 0)
(0.633031 0.465548 0)
(0.613325 0.483008 0)
(0.589886 0.501712 0)
(0.561398 0.519844 0)
(0.530491 0.540167 0)
(0.495508 0.559895 0)
(0.46329 0.590799 0)
(0.428936 0.628175 0)
(0.399593 0.679962 0)
(0.356763 0.73711 0)
(0.316344 0.835556 0)
(0.206566 0.945071 0)
(0.16075 1.03861 0)
(3 1.67002e-15 0)
(3 -3.25172e-15 0)
(3 1.55284e-14 0)
(3 3.30526e-14 0)
(3 5.28058e-14 0)
(3 4.31785e-14 0)
(3 3.89748e-14 0)
(3 1.18607e-14 0)
(3 -5.82289e-15 0)
(3 -5.76865e-15 0)
(3 9.59207e-15 0)
(3 -5.62141e-14 0)
(3 -1.38292e-13 0)
(3 -8.43383e-14 0)
(3 7.85704e-15 0)
(3 4.36461e-14 0)
(3 2.43404e-15 0)
(3 -1.73502e-14 0)
(3 -3.34167e-14 0)
(3 -6.31417e-14 0)
(3 -4.12741e-14 0)
(3 -3.41723e-14 0)
(3 -2.21318e-14 0)
(3 9.78612e-14 0)
(3 -1.96501e-09 0)
(2.90621 0.192949 0)
(1.07425 0.46497 0)
(0.860454 0.399382 0)
(0.823269 0.394968 0)
(0.776827 0.400237 0)
(0.738523 0.405225 0)
(0.709354 0.413342 0)
(0.686572 0.425047 0)
(0.669065 0.441076 0)
(0.655566 0.461009 0)
(0.644246 0.483281 0)
(0.630684 0.505651 0)
(0.613933 0.529408 0)
(0.593986 0.55328 0)
(0.570307 0.578791 0)
(0.540649 0.601606 0)
(0.513184 0.634519 0)
(0.483053 0.673197 0)
(0.462285 0.731103 0)
(0.426977 0.809797 0)
(0.410576 0.944587 0)
(0.395015 1.09487 0)
(0.538964 1.34722 0)
(3 -8.88482e-15 0)
(3 6.1183e-15 0)
(3 3.27576e-15 0)
(3 7.10272e-15 0)
(3 2.44475e-14 0)
(3 3.42311e-14 0)
(3 -1.89623e-14 0)
(3 1.52549e-14 0)
(3 2.18389e-14 0)
(3 1.96152e-14 0)
(3 2.53274e-14 0)
(3 -1.67807e-14 0)
(3 -1.39301e-14 0)
(3 2.78244e-14 0)
(3 3.95417e-14 0)
(3 -4.40183e-14 0)
(3 -5.9208e-14 0)
(3 5.45963e-15 0)
(3 3.57568e-14 0)
(3 -4.25183e-14 0)
(3 -9.69514e-14 0)
(3 -4.41136e-14 0)
(3 5.49742e-14 0)
(3 1.1485e-13 0)
(3 -8.06779e-11 0)
(3.04755 0.0120133 0)
(1.26747 0.428651 0)
(0.884312 0.430287 0)
(0.858004 0.447288 0)
(0.821891 0.445125 0)
(0.782573 0.441941 0)
(0.746107 0.44333 0)
(0.71519 0.448937 0)
(0.690658 0.460163 0)
(0.672749 0.477329 0)
(0.659798 0.499228 0)
(0.648204 0.523608 0)
(0.637034 0.550751 0)
(0.623899 0.57942 0)
(0.609439 0.610748 0)
(0.587721 0.638812 0)
(0.567951 0.674868 0)
(0.544529 0.715324 0)
(0.532972 0.777736 0)
(0.523698 0.869341 0)
(0.537879 1.00914 0)
(0.624584 1.16055 0)
(0.931672 1.34999 0)
(3 2.97831e-15 0)
(3 4.48356e-14 0)
(3 1.99343e-14 0)
(3 3.21949e-16 0)
(3 -2.68315e-14 0)
(3 -7.22385e-14 0)
(3 -4.07989e-14 0)
(3 -4.24266e-15 0)
(3 2.79793e-14 0)
(3 3.10904e-14 0)
(3 3.61891e-14 0)
(3 1.64729e-14 0)
(3 3.93795e-14 0)
(3 1.65197e-14 0)
(3 -2.6072e-14 0)
(3 -6.36349e-14 0)
(3 -1.99797e-14 0)
(3 7.4479e-14 0)
(3 2.74229e-14 0)
(3 -2.93649e-14 0)
(3 -2.10567e-14 0)
(3 1.78059e-14 0)
(3 1.7909e-14 0)
(3 1.82413e-14 0)
(3 -1.72384e-12 0)
(3.00177 -7.58618e-06 0)
(1.49095 0.424811 0)
(0.866451 0.459836 0)
(0.845035 0.470787 0)
(0.823461 0.4745 0)
(0.801084 0.475485 0)
(0.774591 0.477193 0)
(0.745773 0.480245 0)
(0.718846 0.486468 0)
(0.696328 0.49854 0)
(0.680499 0.517464 0)
(0.667948 0.540892 0)
(0.659892 0.569205 0)
(0.651039 0.600827 0)
(0.645532 0.636563 0)
(0.633579 0.670793 0)
(0.623983 0.710734 0)
(0.611041 0.753593 0)
(0.610303 0.815635 0)
(0.625448 0.905818 0)
(0.672885 1.0285 0)
(0.822872 1.16511 0)
(1.15995 1.27921 0)
(3 2.52235e-14 0)
(3 1.39721e-14 0)
(3 1.44823e-14 0)
(3 4.0839e-15 0)
(3 -6.65449e-14 0)
(3 -8.17823e-14 0)
(3 -4.59116e-14 0)
(3 -3.59583e-14 0)
(3 -2.13325e-15 0)
(3 2.24137e-14 0)
(3 -1.03768e-14 0)
(3 -3.43339e-14 0)
(3 8.64887e-15 0)
(3 3.75708e-14 0)
(3 -4.31414e-14 0)
(3 -4.11731e-14 0)
(3 7.29331e-15 0)
(3 4.59642e-14 0)
(3 -2.62627e-14 0)
(3 -3.31539e-14 0)
(3 -3.57436e-14 0)
(3 -2.15619e-14 0)
(3 2.45312e-16 0)
(3 2.84862e-14 0)
(3 3.93742e-14 0)
(3 -2.07526e-07 0)
(1.92913 0.451741 0)
(0.894697 0.491435 0)
(0.831614 0.477334 0)
(0.826121 0.487823 0)
(0.812553 0.496057 0)
(0.79552 0.502825 0)
(0.774042 0.508289 0)
(0.750714 0.514143 0)
(0.727327 0.522143 0)
(0.709049 0.5374 0)
(0.693849 0.557739 0)
(0.686277 0.584767 0)
(0.679666 0.616763 0)
(0.680025 0.65469 0)
(0.677437 0.69434 0)
(0.679098 0.738038 0)
(0.678867 0.783802 0)
(0.69057 0.842406 0)
(0.721668 0.923665 0)
(0.798216 1.02938 0)
(0.969401 1.13823 0)
(1.25078 1.20932 0)
(3 -1.80112e-15 0)
(3 -3.02174e-14 0)
(3 -2.34775e-14 0)
(3 -7.61566e-14 0)
(3 -5.68628e-14 0)
(3 -1.36363e-14 0)
(3 -2.30894e-14 0)
(3 -1.18221e-14 0)
(3 3.47842e-14 0)
(3 5.35546e-14 0)
(3 -5.34595e-14 0)
(3 -6.68747e-14 0)
(3 -7.347e-14 0)
(3 -4.75991e-14 0)
(3 2.18016e-14 0)
(3 8.37724e-14 0)
(3 7.38706e-14 0)
(3 2.00238e-14 0)
(3 1.22544e-14 0)
(3 -9.90219e-15 0)
(3 1.18171e-14 0)
(3 3.4346e-14 0)
(3 3.72759e-14 0)
(3 7.39196e-14 0)
(3 8.62723e-14 0)
(3 -2.65061e-07 0)
(2.60445 0.359152 0)
(1.01348 0.54611 0)
(0.873787 0.484636 0)
(0.855372 0.494434 0)
(0.837925 0.509166 0)
(0.82101 0.521756 0)
(0.802165 0.532145 0)
(0.782898 0.541564 0)
(0.761542 0.549377 0)
(0.742659 0.562457 0)
(0.725731 0.57871 0)
(0.716353 0.602621 0)
(0.710751 0.632369 0)
(0.713965 0.669183 0)
(0.71851 0.711036 0)
(0.730285 0.757375 0)
(0.74347 0.805941 0)
(0.767661 0.861058 0)
(0.810964 0.930926 0)
(0.903316 1.01674 0)
(1.06909 1.09665 0)
(1.30369 1.14514 0)
(3 -2.36485e-14 0)
(3 -3.59239e-14 0)
(3 -3.90776e-14 0)
(3 -2.2687e-14 0)
(3 3.84323e-14 0)
(3 6.5145e-14 0)
(3 4.75084e-14 0)
(3 2.92488e-14 0)
(3 2.47403e-14 0)
(3 7.80662e-16 0)
(3 -1.63858e-14 0)
(3 6.21011e-15 0)
(3 9.37466e-15 0)
(3 2.1892e-15 0)
(3 -1.45385e-14 0)
(3 2.47943e-14 0)
(3 5.48381e-14 0)
(3 7.70593e-14 0)
(3 1.18702e-13 0)
(3 6.43918e-14 0)
(3 4.89868e-14 0)
(3 6.16473e-14 0)
(3 3.50656e-14 0)
(3 8.25899e-14 0)
(3 7.02785e-14 0)
(3 -5.59775e-08 0)
(3.08205 0.0491972 0)
(1.26675 0.524951 0)
(0.929548 0.513259 0)
(0.897086 0.5231 0)
(0.872724 0.531349 0)
(0.851847 0.540511 0)
(0.833685 0.551092 0)
(0.817364 0.562887 0)
(0.798848 0.572621 0)
(0.781416 0.58599 0)
(0.764466 0.599843 0)
(0.752758 0.620345 0)
(0.746472 0.646653 0)
(0.749754 0.680354 0)
(0.75825 0.72075 0)
(0.776571 0.767061 0)
(0.801182 0.817151 0)
(0.836683 0.87027 0)
(0.890652 0.930868 0)
(0.987565 0.99711 0)
(1.13694 1.0525 0)
(1.32421 1.08441 0)
(3 -1.36764e-14 0)
(3 -3.65414e-15 0)
(3 -1.54131e-14 0)
(3 -1.13248e-14 0)
(3 -1.29476e-14 0)
(3 2.63366e-14 0)
(3 6.64323e-14 0)
(3 7.66555e-14 0)
(3 4.43882e-14 0)
(3 -1.05276e-14 0)
(3 -3.4159e-14 0)
(3 -3.50791e-14 0)
(3 5.14789e-14 0)
(3 5.24106e-14 0)
(3 2.4459e-15 0)
(3 -4.48163e-14 0)
(3 -2.16024e-14 0)
(3 2.00241e-14 0)
(3 8.04333e-14 0)
(3 2.237e-13 0)
(3 2.29987e-13 0)
(3 1.45307e-13 0)
(3 9.83472e-14 0)
(3 1.13462e-13 0)
(3 8.46357e-14 0)
(3 -5.71948e-09 0)
(3.00952 0.000132912 0)
(1.49386 0.506994 0)
(0.919324 0.570679 0)
(0.892719 0.555722 0)
(0.876849 0.557616 0)
(0.862244 0.564109 0)
(0.849479 0.574102 0)
(0.83868 0.586801 0)
(0.8261 0.598159 0)
(0.814221 0.61226 0)
(0.801384 0.625566 0)
(0.791181 0.642947 0)
(0.785045 0.664645 0)
(0.787812 0.693635 0)
(0.798318 0.729571 0)
(0.819651 0.771906 0)
(0.851111 0.819723 0)
(0.895555 0.870815 0)
(0.958556 0.925281 0)
(1.05487 0.97743 0)
(1.18632 1.01614 0)
(1.34119 1.03591 0)
(3 2.75585e-15 0)
(3 1.38276e-14 0)
(3 3.23528e-14 0)
(3 -6.28845e-15 0)
(3 -6.82799e-14 0)
(3 -9.64454e-14 0)
(3 -4.15689e-14 0)
(3 -2.37785e-14 0)
(3 2.33277e-14 0)
(3 2.98024e-14 0)
(3 3.12522e-14 0)
(3 -1.81923e-14 0)
(3 -4.11992e-14 0)
(3 -4.81905e-14 0)
(3 1.7937e-14 0)
(3 3.14885e-14 0)
(3 2.4385e-14 0)
(3 -3.4548e-15 0)
(3 -2.19963e-14 0)
(3 9.06084e-14 0)
(3 1.72348e-13 0)
(3 1.95301e-13 0)
(3 1.35429e-13 0)
(3 1.19033e-13 0)
(3 7.52565e-14 0)
(3 -1.82514e-10 0)
(3.00007 -2.56534e-06 0)
(2.05685 0.511759 0)
(0.966053 0.602712 0)
(0.904197 0.567209 0)
(0.894003 0.572493 0)
(0.881924 0.579686 0)
(0.871064 0.588896 0)
(0.862507 0.601875 0)
(0.853549 0.614831 0)
(0.846205 0.630332 0)
(0.838204 0.645325 0)
(0.831576 0.662561 0)
(0.826922 0.681302 0)
(0.828976 0.706053 0)
(0.83985 0.737226 0)
(0.861665 0.774202 0)
(0.895144 0.816737 0)
(0.943714 0.863145 0)
(1.01142 0.911 0)
(1.10507 0.954741 0)
(1.22157 0.984048 0)
(1.35245 0.995173 0)
(3 3.23456e-14 0)
(3 3.91868e-14 0)
(3 2.32602e-14 0)
(3 2.54281e-14 0)
(3 -1.84864e-14 0)
(3 -2.98996e-14 0)
(3 -6.36074e-14 0)
(3 -6.26014e-14 0)
(3 -2.2114e-14 0)
(3 2.9161e-14 0)
(3 4.76634e-14 0)
(3 1.06855e-15 0)
(3 -8.83143e-14 0)
(3 -1.22698e-13 0)
(3 -1.35977e-14 0)
(3 8.29616e-15 0)
(3 4.43197e-15 0)
(3 3.13862e-15 0)
(3 -4.93363e-15 0)
(3 4.32957e-15 0)
(3 5.85777e-14 0)
(3 1.2869e-13 0)
(3 1.057e-13 0)
(3 2.43661e-15 0)
(3 -2.28147e-15 0)
(3 -4.8664e-13 0)
(3.00001 -3.38414e-06 0)
(2.86953 0.250113 0)
(1.15161 0.617251 0)
(0.961424 0.572842 0)
(0.936949 0.57996 0)
(0.916386 0.593057 0)
(0.900261 0.603645 0)
(0.889374 0.617099 0)
(0.88033 0.630609 0)
(0.875092 0.646788 0)
(0.870986 0.663405 0)
(0.868978 0.681671 0)
(0.86817 0.699782 0)
(0.871283 0.720709 0)
(0.882304 0.746955 0)
(0.903775 0.778242 0)
(0.937134 0.814195 0)
(0.986154 0.85412 0)
(1.0537 0.894046 0)
(1.14396 0.932661 0)
(1.2479 0.956864 0)
(1.36367 0.965148 0)
(3 4.91631e-15 0)
(3 -1.49719e-14 0)
(3 -2.90726e-14 0)
(3 -2.38973e-14 0)
(3 3.35705e-14 0)
(3 6.28936e-14 0)
(3 5.83043e-14 0)
(3 4.21427e-14 0)
(3 3.39192e-15 0)
(3 -1.83467e-14 0)
(3 -9.18744e-15 0)
(3 -6.94553e-14 0)
(3 -5.69516e-14 0)
(3 -8.81201e-14 0)
(3 -1.5575e-13 0)
(3 -1.44419e-13 0)
(3 -1.01617e-13 0)
(3 -4.36018e-14 0)
(3 2.14451e-15 0)
(3 1.45021e-14 0)
(3 6.33293e-15 0)
(3 2.26624e-14 0)
(3 2.7952e-14 0)
(3 -6.56021e-14 0)
(3 -8.8807e-14 0)
(3 -5.24926e-14 0)
(3 -7.16942e-07 0)
(3.05727 0.0134809 0)
(1.40235 0.574797 0)
(0.992342 0.623475 0)
(0.964392 0.620527 0)
(0.938883 0.623112 0)
(0.92303 0.626648 0)
(0.912487 0.636407 0)
(0.904434 0.647392 0)
(0.90093 0.661795 0)
(0.900091 0.678 0)
(0.902329 0.696394 0)
(0.906584 0.71528 0)
(0.913003 0.734389 0)
(0.924808 0.75635 0)
(0.945757 0.782191 0)
(0.978161 0.811573 0)
(1.02462 0.843482 0)
(1.08731 0.876332 0)
(1.16974 0.90828 0)
(1.26212 0.928132 0)
(1.36716 0.935746 0)
(3 -1.69538e-14 0)
(3 -2.7439e-14 0)
(3 -1.31023e-14 0)
(3 3.03154e-14 0)
(3 3.6215e-14 0)
(3 2.6795e-14 0)
(3 1.18461e-14 0)
(3 -9.34605e-15 0)
(3 -2.91089e-14 0)
(3 -2.669e-14 0)
(3 -2.24979e-15 0)
(3 8.49398e-15 0)
(3 -5.07741e-14 0)
(3 -4.49125e-14 0)
(3 -4.92705e-14 0)
(3 -2.74536e-14 0)
(3 -9.20639e-15 0)
(3 5.88315e-14 0)
(3 1.06527e-13 0)
(3 9.43341e-14 0)
(3 3.16709e-14 0)
(3 -1.85618e-14 0)
(3 -4.86375e-14 0)
(3 -6.42041e-14 0)
(3 -1.20208e-13 0)
(3 -1.15306e-13 0)
(3 -7.2815e-08 0)
(3.00192 -1.07245e-07 0)
(1.86155 0.566476 0)
(0.999786 0.661217 0)
(0.965928 0.638803 0)
(0.958299 0.64384 0)
(0.948963 0.645752 0)
(0.939159 0.653055 0)
(0.931536 0.661792 0)
(0.927871 0.674303 0)
(0.928264 0.689477 0)
(0.932761 0.707329 0)
(0.94068 0.726843 0)
(0.951686 0.746472 0)
(0.965275 0.766158 0)
(0.986783 0.788488 0)
(1.01895 0.812586 0)
(1.06248 0.83799 0)
(1.11956 0.865033 0)
(1.19365 0.889494 0)
(1.27717 0.904783 0)
(1.37143 0.912229 0)
(3 -5.6726e-15 0)
(3 9.20139e-16 0)
(3 2.64253e-14 0)
(3 3.96568e-14 0)
(3 4.21046e-14 0)
(3 2.09826e-14 0)
(3 -1.30571e-14 0)
(3 -4.09517e-14 0)
(3 -4.88885e-14 0)
(3 -3.30186e-14 0)
(3 -1.61981e-15 0)
(3 -1.74163e-15 0)
(3 5.17219e-15 0)
(3 4.19733e-14 0)
(3 6.81179e-14 0)
(3 6.13086e-14 0)
(3 4.19622e-14 0)
(3 1.29532e-13 0)
(3 1.18042e-13 0)
(3 1.26013e-13 0)
(3 -1.50065e-14 0)
(3 -5.69394e-14 0)
(3 -5.55804e-14 0)
(3 -2.27105e-14 0)
(3 -1.42514e-14 0)
(3 -2.29983e-14 0)
(3 -2.3122e-09 0)
(3 -1.7949e-07 0)
(2.73292 0.332392 0)
(1.14986 0.674465 0)
(1.00117 0.638724 0)
(0.990002 0.650326 0)
(0.979333 0.65961 0)
(0.968831 0.668774 0)
(0.960564 0.677087 0)
(0.95601 0.687827 0)
(0.955991 0.701021 0)
(0.961404 0.717281 0)
(0.970636 0.735568 0)
(0.985554 0.755529 0)
(1.00217 0.774239 0)
(1.0256 0.792661 0)
(1.05739 0.81255 0)
(1.09778 0.832528 0)
(1.14901 0.852981 0)
(1.2146 0.870726 0)
(1.28702 0.881904 0)
(1.37133 0.888288 0)
(3 4.78e-15 0)
(3 -1.49577e-14 0)
(3 -9.65168e-15 0)
(3 -9.09034e-15 0)
(3 1.71028e-14 0)
(3 -8.60462e-15 0)
(3 5.20307e-15 0)
(3 -8.70796e-16 0)
(3 -1.99302e-14 0)
(3 -3.86309e-14 0)
(3 -6.06463e-15 0)
(3 3.83373e-14 0)
(3 1.11225e-13 0)
(3 1.55941e-13 0)
(3 9.57565e-14 0)
(3 4.773e-14 0)
(3 1.72592e-14 0)
(3 8.18171e-14 0)
(3 5.291e-14 0)
(3 5.5419e-14 0)
(3 -7.68427e-14 0)
(3 -1.36374e-13 0)
(3 -1.12315e-13 0)
(3 -3.86445e-14 0)
(3 4.91719e-14 0)
(3 4.40359e-14 0)
(3 -5.48493e-12 0)
(3 -2.39304e-07 0)
(3.07017 0.0249711 0)
(1.44083 0.641491 0)
(1.04728 0.682381 0)
(1.01611 0.679508 0)
(1.00095 0.683525 0)
(0.99093 0.689984 0)
(0.984744 0.695179 0)
(0.982038 0.703291 0)
(0.982975 0.713121 0)
(0.988809 0.726729 0)
(0.99866 0.742888 0)
(1.01487 0.761199 0)
(1.03454 0.779875 0)
(1.06052 0.798098 0)
(1.09258 0.815807 0)
(1.13105 0.832423 0)
(1.17871 0.848176 0)
(1.23738 0.861192 0)
(1.30102 0.868755 0)
(1.37687 0.873684 0)
(3 1.2845e-16 0)
(3 -1.67006e-14 0)
(3 -1.89617e-14 0)
(3 -3.5546e-14 0)
(3 -3.47124e-14 0)
(3 -3.32623e-14 0)
(3 -3.0103e-14 0)
(3 -3.96564e-15 0)
(3 -2.36169e-14 0)
(3 -1.83251e-14 0)
(3 1.11387e-14 0)
(3 3.43561e-14 0)
(3 7.70302e-14 0)
(3 1.04655e-13 0)
(3 9.41878e-14 0)
(3 6.51992e-14 0)
(3 5.72453e-14 0)
(3 1.64523e-14 0)
(3 5.79253e-14 0)
(3 5.73989e-14 0)
(3 8.63667e-15 0)
(3 -9.01125e-14 0)
(3 -1.02775e-13 0)
(3 -8.69856e-14 0)
(3 -2.57293e-15 0)
(3 1.05077e-14 0)
(3 1.13966e-13 0)
(3 -5.13892e-08 0)
(3.00361 8.00611e-05 0)
(1.99597 0.610391 0)
(1.07327 0.728026 0)
(1.03595 0.699489 0)
(1.03141 0.698681 0)
(1.02261 0.704443 0)
(1.01524 0.708909 0)
(1.01231 0.716353 0)
(1.01294 0.724716 0)
(1.01787 0.736384 0)
(1.02702 0.749235 0)
(1.04225 0.765939 0)
(1.06339 0.782249 0)
(1.09039 0.798757 0)
(1.1225 0.814459 0)
(1.15971 0.828448 0)
(1.20517 0.840783 0)
(1.25786 0.85044 0)
(1.31517 0.855471 0)
(1.38321 0.858359 0)
(3 -1.76625e-14 0)
(3 -2.665e-15 0)
(3 3.23474e-15 0)
(3 1.29803e-14 0)
(3 -3.71414e-15 0)
(3 2.16695e-14 0)
(3 9.65421e-15 0)
(3 3.54261e-14 0)
(3 3.46839e-14 0)
(3 2.91895e-14 0)
(3 2.30901e-14 0)
(3 3.78896e-14 0)
(3 6.4929e-14 0)
(3 7.56268e-14 0)
(3 9.34187e-14 0)
(3 3.17415e-14 0)
(3 3.25982e-14 0)
(3 1.23876e-14 0)
(3 5.35081e-14 0)
(3 5.11053e-14 0)
(3 8.53284e-14 0)
(3 5.1026e-14 0)
(3 4.47281e-14 0)
(3 1.14858e-14 0)
(3 -9.77381e-15 0)
(3 -4.32126e-15 0)
(3 7.86166e-14 0)
(3 -4.40636e-09 0)
(3.00001 -2.0993e-07 0)
(2.94792 0.217736 0)
(1.28238 0.697942 0)
(1.0795 0.69735 0)