/*--------------------------------*- C++ -*----------------------------------*\
  =========                 |
  \\      /  F ield         | OpenFOAM: The Open Source CFD Toolbox
   \\    /   O peration     | Website:  https://openfoam.org
    \\  /    A nd           | Version:  10
     \\/     M anipulation  |
\*---------------------------------------------------------------------------*/
FoamFile
{
    format      ascii;
    class       volVectorField;
    location    "62";
    object      U;
}
// * * * * * * * * * * * * * * * * * * * * * * * * * * * * * * * * * * * * * //

dimensions      [0 1 -1 0 0 0 0];

internalField   nonuniform List<vector> 
918
(
(0.985161 -0.000506659 0)
(0.00501481 2.96625 0)
(0.00731125 0.887739 0)
(0.979704 0.00214609 0)
(-0.0142042 2.05814 3.30505e-20)
(-0.00704899 2.9488 -2.46613e-18)
(0.818697 1.16145 4.48169e-19)
(0.13888 0.0783479 -1.49138e-20)
(0.999909 -0.000277493 0)
(0.062014 0.733509 0)
(0.0137441 0.525106 0)
(0.73564 -0.0146972 0)
(0.0111257 2.93037 0)
(0.00253652 2.79523 0)
(-0.0178372 3.14964 7.8056e-19)
(-0.0188713 1.91418 8.90987e-21)
(0.28024 0.0452096 1.01773e-18)
(0.188391 1.13852 3.17498e-19)
(0.962732 0.00501779 0)
(0.00809888 0.492539 0)
(-0.0116942 0.105111 -7.02643e-19)
(1.00197 -0.00497605 0)
(1.00022 -0.0097855 0)
(0.975737 -0.00643899 0)
(0.598805 0.0138729 0)
(0.0152996 2.64096 0)
(-0.0149055 2.91003 9.06998e-19)
(0.0104118 0.937876 0)
(-0.0151032 1.18141 0)
(0.0115963 0.919967 0)
(-0.0169052 2.59472 0)
(-0.00302317 2.10912 -2.63939e-20)
(-0.0100192 1.89225 0)
(-0.020598 2.98761 -8.86369e-23)
(-0.0166838 3.00529 1.91651e-18)
(0.00209839 3.00017 0)
(0.871304 -0.00964801 0)
(0.402967 0.933739 1.79615e-19)
(0.803219 1.17604 -5.11142e-19)
(0.955115 1.02063 5.54836e-19)
(0.672253 1.26778 -1.03752e-19)
(0.673497 1.24235 5.97912e-19)
(0.177476 0.133573 1.45498e-20)
(0.15764 0.0571278 0)
(1.15646 0.561293 0)
(0.152297 0.118344 6.63233e-20)
(0.115615 0.0724977 -6.88193e-20)
(0.919891 -0.00745573 0)
(1.00027 0.000160393 0)
(0.999909 0.000338234 0)
(1.00363 -0.00776093 0)
(1.00096 -0.000920516 0)
(1.00017 3.58772e-05 0)
(0.0733978 1.82589 -7.72085e-19)
(0.0286257 0.945988 0)
(0.0982983 0.809283 0)
(0.00893733 0.90088 0)
(0.0360396 0.660415 0)
(0.00664892 2.01201 0)
(-0.00102975 0.814212 0)
(0.0117967 0.541575 0)
(-0.0030671 0.806206 0)
(0.00768437 0.515405 0)
(0.841408 -0.0157298 0)
(0.838992 0.0329844 0)
(0.766712 -0.00905292 0)
(0.803435 0.0372903 0)
(0.701784 -0.00234184 0)
(0.0146828 3.00041 9.14096e-19)
(0.0114854 3.00809 0)
(0.00610249 3.00274 0)
(0.0135436 2.99738 1.0369e-23)
(0.00795787 2.95847 -1.35857e-18)
(0.0145057 2.98202 0)
(0.0108943 2.90354 0)
(0.0241761 2.93076 2.07918e-24)
(0.00473779 2.82522 0)
(0.0305011 2.91666 0)
(-0.00462165 2.74536 0)
(0.305551 3.54302 0)
(-0.131611 3.62377 0)
(0.137923 3.23978 -7.26384e-19)
(-0.0136269 2.97792 0)
(-0.022541 1.98378 0)
(-0.00780234 2.16441 -8.78773e-21)
(-0.0130576 1.92296 2.69245e-21)
(0.354179 0.145069 -3.53376e-19)
(0.30913 0.0265546 -3.43169e-19)
(0.311786 0.151408 -1.05792e-18)
(0.244058 0.0533461 -6.88764e-19)
(0.228924 0.982104 0)
(0.272142 1.28948 -3.68133e-19)
(0.365747 1.22559 6.14086e-19)
(0.98744 0.00856983 0)
(0.941868 0.00582923 0)
(1.0003 0.000580487 0)
(1.00286 0.00930881 0)
(1.00301 0.00847017 -2.74216e-18)
(0.991909 0.009696 2.07078e-18)
(-0.00785324 0.793718 0)
(0.00764182 0.502515 0)
(-0.0427655 1.00677 0)
(-0.0216539 0.834571 0)
(0.00668257 0.491334 0)
(-0.00779341 0.118107 2.16839e-19)
(0.0761521 0.0865541 0)
(0.993552 -0.00837178 0)
(0.95446 -0.00653002 0)
(0.74564 0.0335219 0)
(0.680188 0.0284044 0)
(0.663738 0.0072031 0)
(0.970119 -0.00749741 0)
(0.597091 0.0724339 0)
(0.44811 -0.0108072 1.5395e-18)
(-0.037227 2.8617 6.69494e-19)
(0.0409567 2.90999 0)
(0.0536449 2.8862 0)
(-0.00434679 2.70053 0)
(-0.0130863 2.98522 8.58454e-19)
(-0.0178398 2.89507 0)
(-0.0153971 2.98804 -2.66252e-18)
(-0.0132726 2.92519 9.11709e-19)
(-0.0239887 1.34334 0)
(-0.00144164 1.37196 0)
(-0.0081144 2.12931 5.02329e-22)
(-0.00726529 2.09057 0)
(-0.0210273 1.90085 0)
(0.938554 -0.00740966 0)
(0.857416 -0.00996424 0)
(0.863267 0.00571545 0)
(0.949569 -0.00782995 0)
(0.88403 -0.00818615 0)
(0.514479 1.12675 -2.26853e-19)
(0.563638 1.17782 0)
(0.367564 0.878672 3.35578e-20)
(0.31015 0.737356 0)
(0.915405 1.05878 -1.52912e-19)
(1.03266 0.867722 3.10029e-19)
(0.358849 1.35194 0)
(0.524784 1.32386 0)
(0.54774 1.2622 0)
(0.120783 0.184786 -3.02004e-19)
(0.200332 0.132926 0)
(0.186876 0.0731285 1.92015e-19)
(1.00375 0.922425 0)
(1.07724 0.776353 0)
(1.1023 0.717808 -2.45604e-19)
(1.13588 0.620801 0)
(1.18668 0.404859 5.69972e-20)
(0.957742 -0.00871195 0)
(0.962504 -0.01004 0)
(0.901737 -0.00798054 0)
(0.984201 -0.00914818 0)
(0.974706 -0.00933612 0)
(0.937131 -0.00637172 0)
(1.00019 0.00233923 0)
(1.0009 0.00141367 0)
(0.99991 0.000854604 0)
(0.0354375 2.07385 4.27961e-19)
(0.118954 1.76877 0)
(0.0178602 2.18796 6.57464e-19)
(0.0462367 1.87981 -5.4818e-19)
(0.105642 1.14525 -2.60055e-19)
(0.0479136 1.02504 0)
(0.142982 0.973833 0)
(0.00181077 0.861138 0)
(0.0157982 0.607601 0)
(-0.00135004 2.2419 -8.30172e-22)
(0.0158092 2.01678 0)
(-0.00220339 2.24388 -3.00975e-20)
(0.00825424 2.02087 4.70733e-20)
(2.75046e-05 0.83751 0)
(-0.000267909 0.822667 0)
(0.00906148 0.570408 0)
(-0.00288248 0.797639 0)
(0.00256197 0.506401 0)
(0.938218 0.0097358 0)
(0.849869 -0.0146854 0)
(0.927447 0.000386287 0)
(0.842381 -0.0129165 0)
(0.812272 -0.00175219 0)
(0.899044 0.0220682 0)
(0.872502 0.0278532 0)
(0.788636 -0.00552553 0)
(0.00558217 3.06472 -8.51948e-21)
(0.0166965 3.0578 0)
(0.0146574 2.96901 0)
(0.00862795 2.87617 0)
(0.921248 3.95601 0)
(1.23469 3.28951 9.27329e-19)
(0.0690416 3.07026 0)
(-0.0292676 2.90306 0)
(-0.00907278 1.39342 0)
(-0.026182 1.69428 0)
(-0.0148479 1.52916 0)
(-0.029198 2.55535 -1.18379e-20)
(-0.01361 2.24691 0)
(-0.0190911 2.39337 0)
(-6.25803e-05 1.94856 7.52521e-22)
(-0.00410285 2.23763 -6.38409e-21)
(-0.00633116 2.19926 -2.88086e-21)
(-0.00747433 1.9344 0)
(0.405565 0.125526 5.39074e-19)
(0.35728 0.0153772 -5.29001e-19)
(0.259012 1.58515 0)
(0.277137 0.755155 -3.15615e-19)
(0.177146 1.67241 -1.04864e-18)
(0.226085 1.21917 1.05095e-18)
(0.902028 0.0063745 0)
(0.967402 0.0111253 0)
(0.974548 0.0108096 0)
(0.923308 0.00641704 0)
(-0.00881676 0.793828 0)
(-0.00868716 0.792261 0)
(0.00581823 0.497451 0)
(0.136053 0.106573 6.14232e-19)
(0.118109 0.0962649 -7.25434e-19)
(0.0965521 0.0731331 0)
(1.09776 0.0858808 2.70985e-20)
(1.07986 0.039257 0)
(1.01238 0.039839 0)
(0.906668 -0.00565471 0)
(0.455852 0.10544 0)
(0.515341 0.0869202 -2.45966e-18)
(0.402225 0.0106043 9.19605e-19)
(0.00870269 2.98055 7.18585e-19)
(-0.0331234 2.86508 4.60905e-20)
(0.00363996 3.05023 -1.80394e-20)
(0.0202223 3.04337 6.41993e-19)
(-0.015006 2.99657 2.99434e-20)
(-0.0129617 2.94949 -1.20472e-22)
(-0.0172639 3.01191 -5.5423e-19)
(0.0148946 3.0237 4.01127e-19)
(0.00739717 3.03684 -6.35474e-19)
(0.933909 -0.00123351 0)
(0.939409 -0.00322145 0)
(0.845879 -0.00946076 0)
(0.956534 0.0119088 0)
(0.942665 0.0132455 0)
(0.881583 0.00585897 0)
(0.916741 0.0174574 0)
(0.925842 0.0150744 0)
(0.838515 0.00223266 0)
(0.716963 1.40404 4.12177e-20)
(0.750273 1.51276 0)
(0.181786 0.315804 7.05299e-20)
(0.228086 0.668613 5.67891e-19)
(0.262315 0.720649 -3.31728e-19)
(0.26336 0.522207 6.59943e-19)
(0.345678 0.810337 1.58958e-18)
(0.140168 0.229854 3.75394e-19)
(0.270441 0.153806 7.29384e-19)
(0.232963 0.148575 1.89134e-19)
(0.213815 0.0646538 3.58781e-19)
(1.17579 0.462957 6.15475e-20)
(1.1917 0.256276 5.6893e-20)
(0.00996556 2.23657 2.53165e-19)
(0.0404365 1.94758 0)
(0.970186 0.0292397 0)
(0.943027 0.0138281 0)
(0.868626 -0.0179681 0)
(0.0112917 3.07435 0)
(0.0196475 2.94398 1.17419e-18)
(0.0164323 2.95631 0)
(0.00638169 2.85062 -1.1649e-18)
(0.00623732 3.09075 2.84799e-19)
(0.00724548 3.08257 0)
(0.783085 1.81441 -1.59282e-19)
(1.24253 2.4903 4.05059e-19)
(0.765108 1.9538 -1.23118e-18)
(0.0198059 2.98066 -6.18958e-19)
(0.0352602 2.99977 0)
(-0.034268 2.8772 0)
(-0.00429714 2.22295 -1.30797e-20)
(-0.00355549 2.24382 9.24057e-21)
(0.00206511 1.98241 -7.26105e-21)
(0.278157 1.39415 1.02475e-18)
(0.238101 0.549114 -7.02666e-19)
(0.0637557 1.99843 7.62743e-19)
(0.135378 1.88458 -9.1041e-19)
(0.180308 1.51114 9.49491e-20)
(0.00164391 3.11896 -1.77421e-18)
(0.0154288 3.11825 1.90665e-18)
(-0.00906548 2.98117 7.88108e-19)
(-0.00382302 2.97747 -7.44173e-19)
(-0.0209775 2.88109 -8.02669e-19)
(0.00863372 3.10001 -2.11777e-18)
(0.00235988 3.10582 2.07258e-18)
(0.281702 0.694891 0)
(0.248281 0.684089 -1.18007e-18)
(0.0958818 0.225276 5.23971e-19)
(0.35737 0.937199 1.11203e-18)
(0.195257 0.275715 -1.71446e-18)
(1.18382 0.17453 6.32869e-20)
(1.19215 0.310822 0)
(1.17218 0.122373 -6.93932e-21)
(0.00114657 2.25424 -1.47462e-21)
(0.00458285 2.24595 0)
(0.0246494 1.9828 0)
(0.340115 1.30297 -3.67995e-19)
(0.374456 1.14911 -7.99714e-19)
(0.209837 0.377431 1.4257e-18)
(1.00588 -0.0108334 0)
(1.00767 -0.00763656 5.05879e-19)
(-0.0211438 1.32403 0)
(-0.0367823 1.32197 0)
(1.00221 0.00351191 1.81013e-21)
(1.00366 0.00946602 1.03287e-18)
(-0.0200454 2.53965 1.50055e-20)
(-0.0245529 2.58193 0)
(0.034484 3.17727 4.0912e-19)
(0.391231 3.4847 0)
(1.17301 0.661732 -5.82968e-20)
(1.01286 0.0131322 -2.13715e-21)
(1.02133 -0.0103005 0)
(1.0017 0.000127566 7.8309e-23)
(0.110212 1.36663 0)
(0.144161 2.57088 0)
(0.0250053 1.30773 0)
(-0.000579931 2.62293 2.84867e-20)
(-0.0216105 2.57992 4.56772e-21)
(0.998859 0.0265687 1.71272e-21)
(1.06298 0.00458932 0)
(1.09738 0.0249795 0)
(-0.0279284 1.73668 0)
(-0.0186216 2.58158 0)
(-0.00471131 1.30865 0)
(0.312776 1.47989 -1.68958e-19)
(1.0113 -0.00962061 0)
(1.0094 -0.0149178 0)
(1.00237 0.000750607 6.46517e-19)
(1.00547 -0.00480262 -7.59846e-19)
(1.00118 -0.000973634 0)
(-0.013329 1.46039 0)
(-0.00678794 1.37228 0)
(-0.00589937 1.41782 0)
(-0.0083633 1.29651 0)
(-0.0172196 1.28397 0)
(-0.00912582 1.2657 0)
(1.03499 -0.00607136 0)
(1.01977 0.015616 -8.33036e-22)
(0.820408 1.27324 2.59657e-19)
(1.00223 0.000317692 -6.43939e-19)
(1.00406 0.00525831 7.53972e-19)
(1.00118 0.0020734 0)
(1.01274 0.010353 6.40909e-19)
(1.00799 0.00831066 -7.76564e-19)
(1.00856 0.0146947 0)
(-0.0237965 2.60959 0)
(-0.0257637 2.58931 -1.96585e-20)
(-0.023263 2.60315 1.39278e-20)
(1.23662 0.266938 5.82076e-19)
(1.16172 0.0867294 0)
(0.0411265 3.07783 -9.15282e-19)
(0.0648313 2.85617 -6.65869e-20)
(0.138538 3.19243 1.39699e-18)
(0.13383 3.22026 -1.9814e-19)
(0.132828 3.23118 0)
(0.0199497 3.13744 2.3618e-19)
(0.0748371 3.16011 9.0271e-19)
(0.0675782 3.18539 -4.45182e-19)
(0.0224862 3.12983 0)
(0.595273 0.280009 0)
(0.522926 0.302328 0)
(1.14397 0.697787 1.33466e-19)
(1.13825 0.819216 -1.18302e-19)
(1.2009 0.584546 0)
(1.22884 0.519275 0)
(1.01605 0.0133679 -1.19466e-18)
(1.01498 0.0142777 1.49965e-18)
(1.02536 -0.00981946 0)
(1.02343 -0.0118604 0)
(1.00642 0.00262105 0)
(1.01041 0.00373495 0)
(1.00458 0.00186095 0)
(1.00979 0.00624317 0)
(1.00781 0.00596353 0)
(1.00451 0.00471338 0)
(0.0990368 1.36469 0)
(0.0937392 1.32878 0)
(0.132059 1.40341 0)
(0.149564 1.40754 0)
(0.145764 2.59581 0)
(0.185548 2.66565 -4.23458e-19)
(0.101586 2.6514 0)
(0.0852975 2.65427 1.97746e-19)
(0.0385392 2.67723 -1.48515e-19)
(0.0159063 1.31968 0)
(0.0216825 1.24422 0)
(0.0188805 1.32914 0)
(0.0333945 1.26725 0)
(0.00318175 1.98422 2.62436e-21)
(-0.0205232 2.6077 -1.77384e-20)
(-0.00889974 2.66435 1.4104e-20)
(-0.018608 2.68316 0)
(-0.0232768 2.61353 -6.93816e-21)
(-0.0231825 2.6084 1.15212e-20)
(0.0120489 1.98272 8.0117e-22)
(-0.00755669 2.39587 2.3799e-20)
(-0.0135755 2.41785 -1.59956e-20)
(1.00901 0.0384582 1.20972e-18)
(1.00538 0.0166861 -1.50946e-18)
(1.00322 0.0457196 -1.23333e-18)
(0.976671 0.0339586 1.55124e-18)
(1.06421 0.00839665 0)
(1.04935 -0.00827728 0)
(1.09436 0.0351327 0)
(1.07432 0.012942 0)
(1.07215 0.000514452 0)
(1.14032 0.0830179 0)
(1.11178 0.044559 0)
(1.11547 0.0324521 0)
(-0.0252226 2.43199 1.3815e-21)
(-0.0131467 2.01296 0)
(-0.0152552 2.2162 0)
(-0.0205538 2.60226 -1.06995e-20)
(-0.0176516 2.61205 1.7219e-22)
(0.00329987 1.5716 -3.5245e-20)
(-0.00510113 1.49991 3.5906e-20)
(-0.0145822 1.38909 0)
(-0.0180963 1.39568 0)
(-0.0228385 1.39025 0)
(-0.00302822 1.3097 0)
(0.00845587 1.23662 0)
(0.387125 1.4975 2.74927e-19)
(0.430091 1.4984 1.44957e-19)
(0.59764 2.44517 -2.40214e-19)
(0.398725 2.54237 7.07059e-19)
(0.350109 2.05451 7.1381e-20)
(1.02106 -0.00811766 0)
(1.0155 -0.00974962 0)
(1.01492 -0.0155038 0)
(1.00741 -0.00108462 0)
(1.00493 -0.000912467 0)
(1.00778 -0.00469452 0)
(1.00927 -0.00361796 0)
(1.01422 -0.00438002 0)
(1.02053 0.0163152 1.17037e-18)
(1.01769 0.0155556 -1.49664e-18)
(1.02081 0.0183286 -1.17921e-18)
(1.0184 0.0162889 1.47939e-18)
(0.783969 1.32443 0)
(0.720645 1.3745 2.46102e-19)
(0.895342 1.22363 9.69639e-20)
(0.941064 1.16849 -1.29007e-19)
(1.15478 2.60034 2.76415e-19)
(0.771329 0.122624 5.98643e-19)
(1.16339 0.108742 0)
(1.21206 0.194179 -4.68327e-19)
(1.19911 0.15513 -1.99168e-20)
(1.00636 0.156439 0)
(0.129808 2.95894 5.32329e-19)
(0.106328 2.86496 -1.15825e-18)
(0.0153622 2.37352 7.75129e-19)
(0.0941532 -0.140272 -3.33118e-19)
(0.336093 3.41466 -2.15144e-19)
(0.190911 3.30923 0)
(0.234704 3.34989 2.80194e-19)
(0.24015 3.03133 -1.77772e-18)
(0.333734 3.1896 0)
(0.00641172 3.12105 4.6062e-20)
(0.0158187 3.12987 -5.43779e-19)
(0.0145733 3.12594 8.00336e-19)
(0.0350776 3.13998 0)
(0.0335437 3.15031 0)
(1.2107 2.59814 0)
(0.544466 0.808432 -5.28149e-19)
(1.06458 0.992488 -7.3155e-21)
(0.998975 1.07743 0)
(0.852047 0.973477 -1.10177e-19)
(1.08968 0.893567 2.80036e-20)
(0.318858 0.342656 -8.60578e-19)
(0.662174 0.322346 -1.76726e-20)
(0.573498 0.222432 4.08999e-19)
(0.549797 0.339005 3.01347e-20)
(0.442122 0.282305 -1.21113e-18)
(0.624143 0.32426 0)
(0.706107 0.420994 6.97057e-19)
(0.71043 0.42399 0)
(0.587437 0.339373 0)
(0.522593 0.248174 0)
(0.822828 0.622353 4.12271e-19)
(1.23764 0.289208 -4.90162e-19)
(1.2374 0.427618 0)
(1.24592 0.368437 0)
(0.693966 0.195338 6.19692e-19)
(0.870695 0.551162 -3.78082e-19)
(0.767899 0.521796 6.72119e-19)
(0.961498 0.443857 -7.38674e-19)
(1.01926 0.0149375 8.02495e-19)
(1.0176 0.0143401 -8.07816e-19)
(1.0159 0.0153976 0)
(1.03646 -0.00561218 0)
(1.02989 -0.00838389 -7.56656e-19)
(1.02793 -0.0119679 7.49132e-19)
(1.02487 0.0104616 0)
(1.02338 0.0141996 0)
(1.01141 0.00415016 0)
(1.0142 0.00914193 0)
(1.01515 0.00415518 0)
(1.01426 0.00288064 0)
(0.0659518 1.34771 0)
(0.0698449 1.29545 0)
(0.147788 1.38563 1.21266e-20)
(0.282909 1.47833 9.05311e-20)
(0.177819 1.4495 1.91017e-19)
(0.210925 1.45431 -3.11095e-19)
(0.173844 1.41009 0)
(0.136986 1.60002 -7.12476e-20)
(0.1194 1.5783 0)
(0.34684 2.00459 -1.03788e-19)
(0.342592 2.3401 6.14764e-19)
(0.194321 1.46347 6.21052e-20)
(0.26909 1.39595 2.38485e-20)
(0.202953 1.38823 -1.9284e-20)
(0.279143 1.33886 -1.02482e-19)
(0.244041 1.58029 0)
(0.268021 1.61744 1.11863e-19)
(0.0310224 2.26185 -2.85885e-20)
(0.0435869 2.66643 0)
(0.066679 2.39807 1.34036e-19)
(0.0632914 2.41893 0)
(0.0695891 2.66792 -2.1914e-19)
(0.049084 2.69647 0)
(0.0263054 1.43059 3.12896e-20)
(0.0342689 1.48271 0)
(0.0282018 1.39824 0)
(0.0230445 1.40248 -3.53061e-20)
(9.65117e-05 2.65059 -1.72977e-20)
(0.0294835 2.6958 1.66665e-19)
(0.0100337 2.72075 1.17585e-21)
(0.00295411 1.83498 -2.05773e-21)
(-0.00268418 1.68791 -2.94406e-21)
(0.0134565 1.29961 0)
(0.0214568 1.22187 0)
(0.0468949 1.59082 -2.7276e-20)
(0.030406 1.46438 -3.3453e-20)
(0.0364005 1.52905 4.17987e-20)
(0.0403153 1.61499 0)
(-0.029496 2.2703 9.57799e-20)
(-0.0305593 2.5492 -4.03609e-20)
(-0.0161772 2.44664 3.8661e-21)
(-0.00350177 1.85115 2.49309e-21)
(-0.0253532 2.4986 1.6847e-21)
(-0.0206018 2.44209 1.90372e-21)
(1.01862 0.0212178 -8.03754e-19)
(1.01416 0.0276205 8.0256e-19)
(1.01342 0.0174491 0)
(1.01139 0.0711586 1.12498e-18)
(0.991697 0.058797 -1.26198e-18)
(0.950367 0.0548552 1.41067e-18)
(1.01395 0.112454 -1.50276e-19)
(1.04288 -0.00561008 0)
(1.05126 -0.0012482 7.21626e-19)
(1.03916 -0.00978179 -7.23115e-19)
(1.07169 0.0427456 -4.29095e-20)
(1.06485 0.02408 3.70019e-19)
(1.06345 0.0569242 0)
(1.05375 0.0502674 -1.33073e-19)
(1.03257 0.0432849 0)
(1.02572 0.0398266 0)
(1.02783 0.0135544 0)
(1.02382 0.016198 0)
(1.04024 0.0328472 2.74133e-19)
(1.03908 0.0277834 -6.06232e-19)
(1.05117 0.0345011 -2.90487e-19)
(1.04833 0.034551 -3.20021e-19)
(1.07149 0.0651744 6.24118e-19)
(1.09697 0.0528472 0)
(1.10582 0.0969279 0)
(-0.0249638 2.27548 5.43657e-20)
(-0.0235889 2.01794 9.65286e-22)
(-0.0196377 2.0254 0)
(-0.0271656 2.44494 -5.41196e-20)
(-0.0221725 2.40112 -2.28091e-21)
(-0.032677 2.47276 5.71856e-21)
(-0.0206589 2.621 -1.04021e-20)
(-0.0231442 2.56276 -6.65419e-24)
(-0.0212546 2.51435 -2.74022e-21)
(-0.0158689 2.61499 9.50015e-21)
(-0.0207304 2.61691 -1.00688e-20)
(-0.0053221 1.49272 -5.46969e-22)
(0.00402212 1.62021 -3.30543e-20)
(0.372414 1.44534 -1.16423e-19)
(0.371953 1.38115 3.57172e-20)
(0.661344 1.42504 -2.38039e-19)
(0.529175 1.49145 -1.42647e-19)
(0.58743 1.45742 0)
(0.593462 2.42213 2.0693e-19)
(0.661772 2.41734 3.375e-19)
(0.411363 2.51189 8.77259e-20)
(0.402757 2.53637 -6.09446e-19)
(0.510474 2.47768 6.13617e-19)
(0.553329 2.45896 0)
(0.488258 2.51654 -5.59329e-19)
(0.248688 2.58919 1.14361e-18)
(0.354928 2.56113 -7.76316e-20)
(0.284197 2.65087 -1.58643e-18)
(0.947995 2.37507 7.26293e-19)
(0.838239 2.38024 0)
(1.01107 0.000519843 2.62253e-20)
(1.01534 -0.00538268 -2.12748e-20)
(1.01767 -0.00349341 -3.8857e-19)
(1.01503 -0.000853908 3.9064e-19)
(1.01245 0.00124013 0)
(0.646908 1.28979 0)
(0.669172 1.18407 0)
(0.78293 1.10305 0)
(0.662169 1.14739 0)
(1.18484 2.6139 5.9746e-20)
(1.07285 2.36106 0)
(0.83454 2.16673 3.82105e-21)
(0.823978 2.43177 0)
(0.921924 2.52537 -4.21411e-19)
(0.957135 2.4815 2.80335e-19)
(0.799126 0.182174 0)
(0.744896 0.15503 1.62605e-19)
(0.909971 0.151624 9.46307e-19)
(0.825644 0.155593 -3.54485e-19)
(0.781579 0.0909972 -1.0931e-18)
(1.08206 0.240341 -8.92066e-19)
(0.999449 0.302363 -1.7285e-20)
(0.929549 0.305802 8.60333e-19)
(1.00792 0.232909 7.20883e-19)
(0.949056 0.197641 -1.25276e-18)
(0.912258 0.202118 1.56673e-19)
(0.951132 0.267769 -3.32369e-19)
(0.927775 0.22903 0)
(0.995715 0.193846 6.17759e-19)
(1.04736 0.193498 0)
(1.04485 0.221605 0)
(1.10727 0.120933 2.89687e-19)
(1.0715 0.180456 -1.49749e-20)
(1.07568 0.240513 -1.57679e-19)
(1.10184 0.206676 0)
(1.02334 0.0468087 6.16586e-19)
(1.03923 0.0602426 7.7104e-19)
(1.03453 0.0461955 -6.11755e-19)
(1.04326 0.06772 -5.16847e-19)
(1.02116 0.0758269 -7.92414e-19)
(0.986416 0.160418 0)
(0.992105 0.106295 0)
(0.964666 0.0724098 -5.01429e-19)
(0.905789 0.0975145 1.99207e-19)
(1.03977 0.107617 7.15511e-19)
(1.06963 0.124495 -8.35582e-19)
(1.07613 0.156856 7.46175e-19)
(1.03082 0.149695 0)
(1.07536 0.112002 0)
(1.05485 0.0931828 -3.42472e-19)
(1.04336 0.0970781 -5.84473e-19)
(0.578697 1.05726 1.39112e-19)
(0.6051 1.38389 -4.06517e-20)
(1.15468 2.72986 -2.26221e-19)
(1.22041 3.07211 1.65708e-21)
(1.24654 2.71279 -1.21828e-19)
(1.27515 2.69619 -3.29413e-20)
(1.20269 2.33641 -1.09981e-20)
(1.20807 2.97596 -9.23803e-20)
(1.22815 2.94141 2.32772e-19)
(1.21063 3.22505 -1.43449e-19)
(1.37042 2.95604 1.98237e-19)
(1.35931 2.87413 0)
(0.56082 0.817091 -5.01796e-20)
(0.113144 1.2294 5.6924e-19)
(0.553561 0.36933 5.61552e-19)
(0.391698 0.116517 6.1167e-19)
(0.484265 0.322684 6.85788e-19)
(0.543575 0.438975 -1.10616e-18)
(0.545821 0.43577 9.05258e-19)
(0.469453 0.32715 -3.43768e-19)
(0.353131 0.256112 7.79609e-19)
(0.715698 0.267746 -3.57669e-19)
(0.675975 0.29164 0)
(0.623077 0.208231 7.0513e-21)
(0.740759 0.505758 3.67042e-19)
(0.716885 0.476537 -1.33557e-18)
(0.620889 0.447878 1.18756e-20)
(0.620385 0.437871 0)
(0.690169 0.719032 3.97063e-19)
(0.851336 0.777793 3.95942e-19)
(0.775285 0.860853 -4.6328e-19)
(0.897792 0.815533 -1.55083e-19)
(0.929172 0.86067 -3.75226e-20)
(0.936251 0.860511 3.84257e-20)
(0.864266 0.65733 -6.82595e-19)
(0.944414 0.711276 1.44022e-19)
(1.00408 0.726976 0)
(0.994997 0.703638 -1.94722e-19)
(1.02898 0.342479 2.12638e-19)
(1.1487 0.305192 2.88374e-19)
(1.06981 0.277569 3.64645e-19)
(1.0178 0.374802 -4.31309e-19)
(1.06644 0.43733 0)
(1.12227 0.420344 0)
(0.923791 0.378227 2.01823e-21)
(0.841111 0.313989 0)
(0.885044 0.309874 4.06473e-19)
(0.910974 0.31415 -7.60291e-21)
(0.955394 0.44704 2.05774e-18)
(0.91586 0.502269 5.30133e-19)
(0.921298 0.469359 -5.64793e-19)
(0.838285 0.455018 6.05558e-19)
(0.821811 0.447383 3.62989e-19)
(0.792017 0.429794 -3.57088e-19)
(1.02738 -0.000231708 6.47274e-19)
(1.01999 6.74067e-05 0)
(1.01853 0.000994944 4.22059e-19)
(1.02173 -0.00154719 -9.56076e-19)
(1.02235 0.00448659 4.64467e-19)
(1.02032 0.0115036 -9.7263e-19)
(1.02122 0.0108697 0)
(1.02047 0.0110856 -2.0272e-19)
(1.01594 0.00783703 5.08571e-19)
(1.01661 0.0106184 -2.53767e-19)
(1.01731 0.0099689 1.86884e-19)
(0.0273899 1.32158 0)
(0.0337201 1.3722 0)
(0.0435712 1.3231 0)
(0.0478799 1.27309 0)
(0.0727605 1.39671 -5.20635e-20)
(0.0797306 1.36445 2.27909e-20)
(0.118346 1.54113 -1.23871e-20)
(0.1021 1.38774 -7.49673e-21)
(0.0357187 1.47019 1.66893e-20)
(0.0397944 1.46404 -1.2749e-20)
(0.0638164 1.38187 -9.37133e-21)
(0.0552966 1.38295 4.57579e-20)
(0.0477155 1.35762 6.72991e-21)
(0.0389803 1.37995 3.50765e-21)
(0.107971 2.36685 -1.4795e-19)
(0.0969341 2.41473 0)
(0.17158 2.04145 1.07559e-19)
(0.114345 1.70824 3.84826e-20)
(0.234414 2.03624 -8.95623e-20)
(0.20127 2.4274 0)
(0.26321 2.37731 -6.05039e-19)
(0.303383 2.37494 4.27646e-19)
(0.230599 1.99693 -2.48352e-19)
(0.156161 2.15602 1.69436e-19)
(0.142295 2.26332 0)
(0.0185381 1.87947 6.4083e-21)
(-0.000117041 2.39213 -3.38611e-20)
(0.00610968 2.14946 0)
(0.0114059 2.45499 -1.36199e-20)
(0.0284602 2.29856 8.45382e-21)
(0.0151719 1.41065 -6.57432e-21)
(0.0139946 1.39426 1.10997e-19)
(0.0137053 1.40009 -3.62819e-20)
(0.0206697 1.40292 -3.13355e-20)
(0.02499 1.43429 0)
(0.00989664 1.3819 0)
(0.00215871 1.2952 -4.45632e-20)
(0.00596861 1.37347 1.25018e-20)
(0.00943555 1.37371 0)
(0.00861026 1.28826 -3.37264e-20)
(0.0180958 1.21314 6.83037e-20)
(1.04079 0.0120524 0)
(1.04697 0.00828798 -6.77043e-20)
(1.03866 0.022149 -4.88765e-19)
(1.04844 0.0210118 0)
(1.05244 0.0208989 0)
(1.03633 0.0122518 -6.83293e-21)
(1.03097 0.0120705 7.85575e-19)
(1.03166 0.0170412 9.52345e-19)
(1.02543 0.0209241 0)
(1.02218 0.0212827 0)
(1.03515 0.0259123 4.87444e-19)
(1.02547 0.0276325 0)
(1.02353 0.027753 0)
(-0.0183897 2.02242 0)
(0.00118385 1.65076 -4.32036e-21)
(-0.00443444 1.75881 -3.04096e-20)
(-0.000258636 1.38328 0)
(-0.00666351 1.55122 -1.75763e-20)
(-0.00809576 1.46062 1.12936e-20)
(-0.00399403 1.39657 0)
(0.389332 1.64576 0)
(0.374679 1.30808 -7.04541e-20)
(0.301797 1.34203 0)
(0.427039 1.30599 5.54756e-21)
(0.476886 1.46878 0)
(0.457338 1.41366 2.55535e-20)
(1.03652 2.67603 -1.53536e-20)
(0.968472 2.40384 -9.12843e-19)
(0.921491 2.19193 1.02417e-18)
(0.852241 2.37214 2.41951e-19)
(0.84792 2.48575 0)
(0.917696 2.48193 0)
(0.931341 2.36861 0)
(0.910279 2.35775 -9.43883e-19)
(0.687251 2.44989 -3.94124e-19)
(0.800295 2.43943 -9.76096e-20)
(0.810613 2.41354 7.41759e-20)
(0.695694 2.39047 0)
(0.800861 2.3857 0)
(0.759058 2.39913 -3.68587e-19)
(0.767841 2.47559 0)
(0.628125 1.09362 0)
(0.480586 0.903038 -5.0942e-19)
(0.565095 0.945984 -3.22635e-20)
(0.519076 1.03596 0)
(0.51949 0.980008 7.63157e-19)
(0.796042 0.883841 -1.30185e-19)
(0.806409 1.02042 0)
(0.781363 0.986807 1.86146e-19)
(0.664438 1.03389 0)
(0.666082 0.936077 0)
(1.16366 2.75277 -2.29249e-19)
(1.1411 2.81613 -9.66392e-20)
(0.92923 2.33095 9.95475e-20)
(0.897062 2.31024 -8.3077e-20)
(1.12919 2.72572 0)
(1.08301 2.6952 9.99507e-20)
(1.08915 2.47907 -3.13432e-19)
(0.983649 2.23182 -3.04013e-20)
(0.492554 1.33215 0)
(0.507981 1.06183 -1.22617e-19)
(0.575347 1.16742 0)
(0.854676 0.2475 0)
(0.763724 0.196832 0)
(0.679521 0.155516 0)
(0.84555 0.249435 -6.39795e-19)
(0.736943 0.240082 3.73136e-19)
(0.92277 0.0881233 -4.10865e-19)
(0.92911 0.131679 0)
(0.915668 0.140978 1.77279e-19)
(0.851479 0.118616 7.09267e-19)
(0.81606 0.0789122 -4.44533e-19)
(1.15619 3.35004 -7.19345e-19)
(1.205 3.26953 0)
(1.154 3.37889 -1.48948e-18)
(0.642283 3.54032 1.26399e-18)
(0.864266 3.1089 7.29615e-20)
(0.521153 0.806217 6.04025e-19)
(0.424813 0.803094 0)
(0.311479 0.400004 -1.49238e-19)
(0.469794 0.654285 8.5715e-19)
(0.556507 0.372359 -1.97442e-19)
(0.513781 0.470137 2.31902e-19)
(0.672632 0.513045 4.95565e-19)
(0.710416 0.549375 0)
(0.660874 0.579664 0)
(0.624238 0.529165 0)
(1.0058 0.61339 8.9387e-20)
(0.920783 0.551946 -5.16111e-19)
(0.94604 0.583877 3.89164e-19)
(0.977261 0.52355 -3.99218e-19)
(1.08463 0.493437 0)
(1.09316 0.583892 -9.74699e-20)
(0.858568 0.408027 -8.3178e-19)
(0.858019 0.397318 -1.03185e-18)
(0.794412 0.39205 6.48319e-19)
(0.804582 0.369436 -6.58656e-19)
(0.846276 0.332599 -5.2008e-19)
(0.794737 0.334323 6.36526e-19)
(1.02667 0.00605669 -4.93434e-19)
(1.02637 0.00627887 1.00328e-18)
(1.02944 0.000215468 6.27253e-19)
(1.03366 0.00112694 -7.55404e-19)
(1.03378 0.00926603 0)
(1.03004 0.00996433 -1.23016e-18)
(0.0641706 1.64437 1.93883e-20)
(0.0493568 1.58909 0)
(0.0895514 1.69433 1.17352e-19)
(0.0991473 1.67605 -1.02982e-19)
(0.0924206 1.54811 2.32098e-20)
(0.0921586 1.54402 0)
(0.0110845 1.68403 0)
(-0.00383209 1.49089 6.74481e-21)
(-0.00195401 1.43668 -6.06636e-21)
(-0.00722791 1.54788 5.4368e-21)
(0.00173868 1.88327 1.00876e-20)
(-0.0102518 1.93635 -1.36366e-21)
(0.49696 1.35867 -2.74693e-19)
(0.490521 1.35935 3.01754e-19)
(0.453764 1.30141 -3.05029e-20)
(0.436889 1.28534 7.72239e-21)
(0.639092 1.30744 0)
(0.555463 1.39745 1.05602e-19)
(0.570532 1.40514 -1.02797e-19)
(0.46747 1.29002 2.97156e-20)
(0.521134 1.24064 0)
(0.572706 1.20322 0)
(0.654226 2.40949 5.78969e-19)
(0.669756 2.45087 1.25967e-18)
(0.714209 2.46156 -8.67934e-19)
(0.610461 2.43559 -2.01832e-19)
(0.560315 2.5259 2.83523e-19)
(0.509525 2.50063 -7.56454e-19)
(0.978247 2.37527 -5.73126e-19)
(1.01253 2.3875 0)
(0.925761 2.16993 -6.59023e-19)
(1.05395 2.67421 0)
(1.05622 2.6608 0)
(0.600326 2.25911 -1.23897e-19)
(1.03723 3.15476 1.31044e-19)
(0.908394 3.02513 -3.47836e-20)
(0.266184 0.855779 0)
(0.294245 0.701225 -3.16953e-19)
(0.463349 0.66044 -3.18273e-19)
(0.380066 2.00372 0)
(0.462557 2.77949 -5.07891e-20)
(0.416575 2.54223 0)
(0.712434 0.66882 -8.39263e-19)
(0.796161 0.683559 1.12696e-18)
(0.817086 0.625485 -1.11356e-18)
(0.690615 0.632009 -1.07773e-19)
(0.745407 0.588847 -4.42363e-19)
(1.0008 2.75431 -9.96604e-20)
(1.0413 2.815 -1.63256e-19)
(0.632753 2.12472 6.90558e-19)
(0.585603 1.69259 -4.9212e-19)
(0.694343 1.89101 -4.04803e-19)
(0.987029 2.43806 -1.12886e-19)
(0.993789 2.43118 2.94707e-19)
(0.650925 1.82542 2.8122e-20)
(0.442084 1.31293 1.43606e-19)
)
;

boundaryField
{
    wall-4
    {
        type            noSlip;
    }
    velocity-inlet-5
    {
        type            fixedValue;
        value           uniform (1 0 0);
    }
    velocity-inlet-6
    {
        type            fixedValue;
        value           uniform (0 3 0);
    }
    pressure-outlet-7
    {
        type            zeroGradient;
    }
    wall-8
    {
        type            noSlip;
    }
    frontAndBackPlanes
    {
        type            empty;
    }
}


// ************************************************************************* //
