/*--------------------------------*- C++ -*----------------------------------*\
  =========                 |
  \\      /  F ield         | OpenFOAM: The Open Source CFD Toolbox
   \\    /   O peration     | Website:  https://openfoam.org
    \\  /    A nd           | Version:  10
     \\/     M anipulation  |
\*---------------------------------------------------------------------------*/
FoamFile
{
    format      ascii;
    class       surfaceScalarField;
    location    "9";
    object      phi;
}
// * * * * * * * * * * * * * * * * * * * * * * * * * * * * * * * * * * * * * //

dimensions      [0 3 -1 0 0 0 0];

internalField   nonuniform List<scalar> 
17370
(
-0.0915701
0.0960654
0.284516
-0.0776932
0.0595607
0.364908
-0.0432053
0.0318182
0.427555
-0.0225606
0.0165198
0.505293
-0.0118833
0.00890885
0.602377
-0.00655373
0.00496326
0.720648
-0.00365693
0.00275264
0.863811
-0.00198174
0.00142362
1.03601
-0.000937723
0.000579138
1.24286
-0.000259622
-3.39668e-05
1.49148
0.000329237
-0.000660067
1.49152
0.00101628
-0.00149705
1.24317
0.00204948
-0.00281413
1.0364
0.00371459
-0.00501794
0.86421
0.00660542
-0.00895658
0.721409
0.0119261
-0.0165562
0.603845
0.0225907
-0.0318412
0.50869
0.0432221
-0.0595725
0.432519
0.0777026
-0.0960704
0.365143
0.0915781
0.197433
-0.127279
0.0883228
0.0389558
-0.364575
0.354335
-0.0711859
0.081426
-0.446713
0.454648
-0.0788803
0.070945
-0.521068
0.529525
-0.0627509
0.0542938
-0.612911
0.620796
-0.0466925
0.0388081
-0.72704
0.733377
-0.0322147
0.0258784
-0.867544
0.872045
-0.020958
0.0164568
-1.03848
1.04158
-0.0130214
0.00992463
-1.24459
1.24684
-0.00754449
0.00529834
-1.49268
1.4946
-0.00344989
0.00152527
-1.49253
1.49431
0.000243319
-0.00202352
-1.24399
1.24581
0.00391933
-0.00574452
-1.03753
1.03989
0.00796577
-0.0103187
-0.866163
0.869562
0.0133836
-0.0167825
-0.724558
0.729448
0.0212469
-0.0261363
-0.608968
0.615537
0.0324444
-0.0390132
-0.515133
0.52271
0.0468714
-0.0544482
-0.439943
0.448106
0.0628766
-0.0710391
-0.374924
0.37747
0.0789294
-0.0814749
-0.257188
0.224935
0.0712231
-0.0389694
-0.0692951
0.0600174
0.00927766
-0.0502665
0.0567213
-0.375105
0.36865
-0.0558889
0.0522582
-0.454117
0.457748
-0.0472286
0.0429569
-0.527895
0.532166
-0.0385679
0.0346347
-0.620814
0.624747
-0.030337
0.0263013
-0.734344
0.73838
-0.0219521
0.0181294
-0.873544
0.877367
-0.0142462
0.0109894
-1.04297
1.04622
-0.00774111
0.00499113
-1.24823
1.25098
-0.00216285
-0.000410369
-1.49647
1.49905
0.00296586
-0.0057711
-1.49694
1.49974
0.00847785
-0.0116652
-1.24967
1.25285
0.0148699
-0.0187002
-1.04525
1.04908
0.0224858
-0.0267928
-0.876762
0.881069
0.0307923
-0.0350447
-0.738878
0.74313
0.0389299
-0.0432734
-0.626275
0.630618
0.0475104
-0.0525072
-0.535372
0.540369
0.0561047
-0.0569015
-0.458409
0.459206
0.050399
-0.0308722
-0.337528
0.318001
0.00930045
-0.0692309
0.0599304
-0.0546771
0.0510444
0.00363277
-0.0299262
0.0391774
-0.360052
0.350801
-0.0420731
0.0411474
-0.459607
0.460533
-0.038138
0.0351073
-0.535786
0.538817
-0.0317289
0.0286983
-0.628097
0.631128
-0.0254697
0.0226727
-0.741607
0.744404
-0.0196926
0.0170323
-0.880556
0.883216
-0.0141054
0.0114207
-1.04925
1.05194
-0.00843918
0.00566182
-1.25384
1.25662
-0.00247323
-0.000660664
-1.50203
1.50517
0.0037757
-0.00691248
-1.50286
1.50599
0.00963483
-0.0125533
-1.256
1.25892
0.0151663
-0.0179981
-1.05244
1.05527
0.0205671
-0.0234523
-0.884504
0.887389
0.026181
-0.0293508
-0.746618
0.749788
0.0322959
-0.0355934
-0.634457
0.637755
0.0385707
-0.0415261
-0.544313
0.547269
0.0423972
-0.0394279
-0.457809
0.45484
0.0300943
-0.0145316
-0.300071
0.284509
0.00365966
-0.0545657
0.0509061
-0.0484945
0.0469534
0.00154116
-0.015337
0.0231799
-0.341796
0.333953
-0.0278628
0.0289052
-0.460543
0.459501
-0.0281873
0.0267098
-0.541217
0.542695
-0.0250079
0.0233926
-0.633545
0.635161
-0.0215856
0.0197883
-0.746852
0.748649
-0.0176166
0.015479
-0.885623
0.88776
-0.0129962
0.0106089
-1.05442
1.05681
-0.00787597
0.00524699
-1.25926
1.26189
-0.00218061
-0.000839509
-1.50818
1.5112
0.00383123
-0.00683574
-1.509
1.512
0.00939361
-0.0120312
-1.26164
1.26428
0.0143236
-0.0167007
-1.05784
1.06022
0.0187376
-0.0207953
-0.889943
0.892001
0.0225068
-0.0242606
-0.752363
0.754117
0.0257948
-0.0273752
-0.640344
0.641924
0.0287618
-0.029382
-0.549233
0.549853
0.0282528
-0.0234669
-0.450698
0.445912
0.0155279
-0.00635752
-0.271911
0.262741
0.00157302
-0.04833
0.046757
-0.0462151
0.0458883
0.000326752
-0.00595916
0.011026
-0.327628
0.322561
-0.0158452
0.0185833
-0.457542
0.454804
-0.0201137
0.0205444
-0.543116
0.542685
-0.0206881
0.020475
-0.636004
0.636217
-0.0196973
0.0186673
-0.74987
0.7509
-0.0172244
0.0155985
-0.889548
0.891174
-0.013468
0.011211
-1.0591
1.06136
-0.00840139
0.00556249
-1.26461
1.26745
-0.0022029
-0.00107789
-1.51435
1.51763
0.00434323
-0.00763791
-1.51514
1.51843
0.0103756
-0.0130482
-1.26691
1.26958
0.0151771
-0.0171644
-1.06233
1.06432
0.0186671
-0.01999
-0.893503
0.894826
0.0209279
-0.0215605
-0.755183
0.755816
0.0215879
-0.0213452
-0.642446
0.642203
0.0208181
-0.0191725
-0.54926
0.547614
0.0163271
-0.0113828
-0.440965
0.436021
0.00619855
-0.00200295
-0.256565
0.25237
0.000366908
-0.0459808
0.0456138
-0.0457219
0.0456564
6.5558e-05
-0.00268142
0.00605857
-0.318411
0.315034
-0.0106594
0.0145579
-0.451366
0.447468
-0.017864
0.0198629
-0.541488
0.539489
-0.0208212
0.0209931
-0.636062
0.635891
-0.0207291
0.0199459
-0.751855
0.752638
-0.0185583
0.0168563
-0.89287
0.894572
-0.0145335
0.0120546
-1.06371
1.06619
-0.00896754
0.00584615
-1.27043
1.27355
-0.00211309
-0.0015647
-1.52109
1.52477
0.00521078
-0.00883443
-1.52189
1.52552
0.0117943
-0.0146709
-1.27235
1.27523
0.0169495
-0.0190452
-1.06638
1.06848
0.0205409
-0.0217289
-0.896169
0.897357
0.0223116
-0.0223778
-0.755908
0.755974
0.022046
-0.0209091
-0.641623
0.640486
0.0187627
-0.015308
-0.544968
0.541513
0.0112686
-0.00650558
-0.431088
0.426325
0.00298007
-0.000815192
-0.249376
0.247211
0.000113856
-0.0454048
0.0452909
-0.0456527
0.0456594
-6.68906e-06
-0.00122361
0.00330311
-0.312351
0.310271
-0.00686461
0.0105781
-0.443478
0.439764
-0.0143045
0.0170281
-0.536957
0.534233
-0.0189741
0.0198226
-0.635481
0.634633
-0.0198573
0.0192803
-0.753247
0.753824
-0.0180178
0.0163997
-0.89628
0.897898
-0.0141661
0.0117387
-1.06871
1.07114
-0.0086901
0.00556514
-1.27674
1.27986
-0.00173586
-0.00210052
-1.5286
1.53244
0.00588059
-0.00956102
-1.52924
1.53292
0.0125263
-0.0153514
-1.27814
1.28096
0.0175156
-0.0194517
-1.07055
1.07249
0.0207951
-0.0217157
-0.898331
0.899252
0.0219984
-0.0217563
-0.756031
0.755789
0.0206921
-0.0184997
-0.63871
0.636518
0.0155508
-0.0115892
-0.537598
0.533637
0.00766567
-0.00388024
-0.421956
0.418171
0.00160505
-0.000416358
-0.245633
0.244444
5.57392e-05
-0.045232
0.0451762
-0.0456632
0.0456789
-1.57697e-05
-0.000523789
0.00161749
-0.308723
0.307629
-0.00374308
0.00623861
-0.436607
0.434111
-0.00904392
0.0112763
-0.531662
0.529429
-0.0130935
0.0141714
-0.63357
0.632493
-0.0146831
0.0145877
-0.754202
0.754297
-0.013924
0.0128498
-0.899264
0.900338
-0.0111828
0.0092526
-1.07335
1.07528
-0.00671391
0.00403532
-1.2828
1.28548
-0.000688346
-0.00269161
-1.53612
1.5395
0.00600183
-0.00916639
-1.53641
1.53957
0.0116449
-0.0139052
-1.28356
1.28582
0.0155085
-0.0167868
-1.07414
1.07542
0.0175076
-0.0177977
-0.899953
0.900243
0.0175622
-0.0166576
-0.755138
0.754233
0.015253
-0.0130922
-0.634247
0.632086
0.0105623
-0.00745196
-0.52999
0.52688
0.00469556
-0.00230028
-0.415081
0.412686
0.000976074
-0.000293604
-0.243537
0.242854
5.82264e-05
-0.0451126
0.0450543
-0.045713
0.0457582
-4.52716e-05
-5.22285e-05
0.000504808
-0.306903
0.30645
-0.00151811
0.00282666
-0.432257
0.430948
-0.00443537
0.00582356
-0.527616
0.526228
-0.00709746
0.00796194
-0.631484
0.63062
-0.00853817
0.00871088
-0.754207
0.754034
-0.00849402
0.00792172
-0.901133
0.901705
-0.00687909
0.00555657
-1.0769
1.07822
-0.00371018
0.00169143
-1.28784
1.28986
0.000841887
-0.00338703
-1.54248
1.54502
0.0058493
-0.0081414
-1.54232
1.54461
0.00983497
-0.0112667
-1.28768
1.28911
0.0121822
-0.0127357
-1.07631
1.07686
0.0128529
-0.0125743
-0.900199
0.89992
0.0119621
-0.0109225
-0.753213
0.752173
0.00966006
-0.00798005
-0.630135
0.628455
0.00624602
-0.00428438
-0.524366
0.522404
0.00267166
-0.00133842
-0.410889
0.409556
0.000606004
-0.000203969
-0.242341
0.241939
4.59079e-05
-0.0450056
0.0449597
-0.0458127
0.0458767
-6.39794e-05
0.000202025
-9.94005e-05
-0.30619
0.306087
-0.00028774
0.000852266
-0.430066
0.429501
-0.00160107
0.00229178
-0.52522
0.52453
-0.00297117
0.00346467
-0.629937
0.629444
-0.0038236
0.00395716
-0.753857
0.753724
-0.00385774
0.0035215
-0.902128
0.902464
-0.00286011
0.00198173
-1.07929
1.08017
-0.000714583
-0.000699173
-1.29156
1.29297
0.00245978
-0.00420538
-1.54715
1.54889
0.00585635
-0.00731355
-1.54647
1.54792
0.00831373
-0.00903338
-1.29015
1.29087
0.00936841
-0.00942484
-1.07714
1.0772
0.00919708
-0.00868715
-0.899496
0.898986
0.00801437
-0.00709174
-0.751177
0.750255
0.00611598
-0.00494848
-0.627049
0.625881
0.00384298
-0.00266992
-0.520893
0.51972
0.00173848
-0.000962095
-0.408555
0.407778
0.000499816
-0.000200436
-0.241603
0.241304
5.43755e-05
-0.0449107
0.0448563
-0.0459499
0.0460307
-8.08139e-05
0.000392452
-0.000464437
-0.30609
0.306162
0.00042549
-0.000272021
-0.429171
0.429018
2.68194e-05
0.000210818
-0.524092
0.523855
-0.000444289
0.000602599
-0.629127
0.628969
-0.00068835
0.000664462
-0.753662
0.753685
-0.000499444
0.000200299
-0.902763
0.903062
0.000314109
-0.000961625
-1.08091
1.08156
0.00186825
-0.00285673
-1.29414
1.29513
0.00406053
-0.00521313
-1.55031
1.55147
0.0062427
-0.00707284
-1.54903
1.54986
0.00752665
-0.00773088
-1.29132
1.29153
0.00773729
-0.00750539
-1.07709
1.07686
0.00711874
-0.00654085
-0.898431
0.897854
0.00590669
-0.00513349
-0.749412
0.748638
0.00438496
-0.00354957
-0.624905
0.624069
0.00280085
-0.00203173
-0.518788
0.518018
0.00141873
-0.000878162
-0.407148
0.406607
0.000512479
-0.000230645
-0.24102
0.240739
6.90768e-05
-0.0447953
0.0447262
-0.0461206
0.0462202
-9.95991e-05
0.000545363
-0.000757962
-0.306308
0.306521
0.000911615
-0.000997897
-0.428998
0.429084
0.00105664
-0.00110841
-0.523777
0.523829
0.00118467
-0.00128738
-0.62895
0.629053
0.00145038
-0.00165861
-0.753802
0.75401
0.00196733
-0.00233586
-0.903387
0.903756
0.00284699
-0.00341575
-1.08215
1.08272
0.00414697
-0.00489257
-1.29598
1.29673
0.00574749
-0.00650541
-1.5524
1.55316
0.00710726
-0.00750025
-1.55046
1.55086
0.00763089
-0.00754834
-1.29155
1.29147
0.00727444
-0.00684287
-1.07651
1.07608
0.00634712
-0.00572499
-0.897255
0.896633
0.00511292
-0.00441946
-0.747916
0.747222
0.00378456
-0.00310517
-0.62333
0.622651
0.00251334
-0.00191034
-0.517354
0.516751
0.00141658
-0.000948665
-0.406117
0.405649
0.00059306
-0.000283491
-0.240447
0.240138
8.90618e-05
-0.0446477
0.0445587
-0.0463326
0.0464594
-0.000126831
0.000727264
-0.00105125
-0.306789
0.307113
0.00136566
-0.00162034
-0.429259
0.429513
0.00188716
-0.0021421
-0.523988
0.524243
0.00244738
-0.0027572
-0.629263
0.629573
0.00313674
-0.00352586
-0.754309
0.754698
0.00400467
-0.00449373
-0.90418
0.904669
0.00508778
-0.00567829
-1.08329
1.08388
0.00636436
-0.00699988
-1.2974
1.29804
0.00765773
-0.00815979
-1.55377
1.55428
0.00846576
-0.00853397
-1.55107
1.55114
0.00839207
-0.00806577
-1.29127
1.29095
0.00763258
-0.00705534
-1.07558
1.075
0.00646473
-0.00578059
-0.895984
0.8953
0.00514301
-0.00444965
-0.746538
0.745845
0.00383414
-0.00318984
-0.622001
0.621357
0.00263537
-0.00206894
-0.516178
0.515611
0.00159171
-0.00111283
-0.405184
0.404705
0.000719923
-0.000353921
-0.239803
0.239437
0.00011357
-0.044458
0.0443444
-0.0466025
0.0467633
-0.000160796
0.000942468
-0.00138586
-0.307495
0.307938
0.00184792
-0.00225322
-0.429843
0.430249
0.00270038
-0.00313133
-0.524587
0.525018
0.00363903
-0.00413845
-0.629978
0.630477
0.00472634
-0.00530118
-0.755179
0.755754
0.005971
-0.00661537
-0.905231
0.905876
0.00734838
-0.00802772
-1.08451
1.08519
0.0087578
-0.00937569
-1.29866
1.29927
0.00994284
-0.0102896
-1.55469
1.55504
0.0103899
-0.010222
-1.55108
1.55091
0.00986591
-0.00931454
-1.2905
1.28995
0.00871011
-0.00797006
-1.07435
1.07361
0.00725755
-0.00646349
-0.894567
0.893773
0.00574506
-0.00498075
-0.745124
0.74436
0.00431306
-0.00362171
-0.620698
0.620006
0.00302963
-0.00242225
-0.515033
0.514425
0.00190019
-0.00135741
-0.4042
0.403657
0.000892599
-0.000444471
-0.239033
0.238585
0.000143936
-0.0442165
0.0440725
-0.0469456
0.0471507
-0.000205104
0.00121367
-0.0017976
-0.308448
0.309032
0.00242293
-0.00298653
-0.430729
0.431293
0.00361845
-0.00422934
-0.525536
0.526147
0.00494484
-0.00564236
-0.631073
0.631771
0.00645314
-0.00723314
-0.756428
0.757208
0.00812369
-0.008959
-0.906611
0.907446
0.00988005
-0.0107018
-1.08593
1.08675
0.0115431
-0.0122096
-1.29991
1.30058
0.0127588
-0.0130132
-1.55533
1.55559
0.0129571
-0.0125831
-1.55064
1.55027
0.0120263
-0.0112506
-1.28929
1.28852
0.0104488
-0.0095105
-1.07277
1.07183
0.00863228
-0.00767351
-0.892904
0.891945
0.00681936
-0.00592069
-0.743536
0.742638
0.00514178
-0.00433948
-0.619267
0.618465
0.00365381
-0.00294835
-0.513776
0.51307
0.00233503
-0.00168504
-0.403066
0.402416
0.00111623
-0.000558823
-0.238086
0.237529
0.000181592
-0.0439108
0.0437292
-0.0473851
0.0476483
-0.000263253
0.00156333
-0.00232241
-0.309697
0.310457
0.00314467
-0.00389395
-0.43194
0.43269
0.00473847
-0.00555492
-0.526854
0.52767
0.00650746
-0.00743208
-0.632578
0.633503
0.00850081
-0.00952199
-0.758105
0.759126
0.0106773
-0.0117484
-0.908394
0.909465
0.012911
-0.0139272
-1.08767
1.08868
0.014938
-0.015705
-1.30129
1.30205
0.0162867
-0.0164842
-1.55581
1.55601
0.0162906
-0.0157081
-1.54979
1.54921
0.0149337
-0.0139049
-1.28762
1.28659
0.0128685
-0.0116802
-1.07078
1.06959
0.0105837
-0.00939942
-0.890881
0.889697
0.0083527
-0.00725764
-0.741648
0.740553
0.00631222
-0.00534072
-0.617586
0.616615
0.004511
-0.0036557
-0.512298
0.511442
0.00290763
-0.00210737
-0.401697
0.400897
0.00140005
-0.000702133
-0.236905
0.236207
0.000228337
-0.0435257
0.0432974
-0.0479517
0.0482924
-0.000340684
0.00202156
-0.00300608
-0.311317
0.312302
0.00407832
-0.00505914
-0.433535
0.434516
0.00616349
-0.0072282
-0.528601
0.529665
0.00846483
-0.00966193
-0.634564
0.635761
0.011042
-0.0123572
-0.760293
0.761608
0.0138392
-0.0152048
-0.910675
0.912041
0.0166736
-0.0179411
-1.08981
1.09108
0.0191788
-0.0200907
-1.30289
1.3038
0.0207403
-0.020896
-1.55618
1.55634
0.020559
-0.0197413
-1.54851
1.5477
0.0187092
-0.0173741
-1.28542
1.28408
0.0160485
-0.0145444
-1.06825
1.06675
0.0131675
-0.011689
-0.888372
0.886894
0.0103877
-0.00903012
-0.739334
0.737976
0.00785995
-0.00665825
-0.615538
0.614336
0.00563151
-0.00457153
-0.510496
0.509436
0.0036418
-0.0026434
-0.400006
0.399008
0.00175766
-0.000881615
-0.235426
0.23455
0.000286616
-0.0430423
0.0427557
-0.0486865
0.0491334
-0.000446948
0.00263456
-0.00391565
-0.313412
0.314693
0.0053132
-0.00658805
-0.435607
0.436882
0.00801274
-0.00937888
-0.530879
0.532246
0.0109584
-0.0124873
-0.637143
0.638672
0.0142517
-0.0159349
-0.76311
0.764794
0.0178292
-0.0195682
-0.913576
0.915315
0.0214257
-0.0230123
-1.09249
1.09408
0.0245386
-0.0256367
-1.30479
1.30589
0.0263781
-0.0264893
-1.55647
1.55658
0.0259815
-0.0248775
-1.54674
1.54564
0.0235278
-0.0218112
-1.28256
1.28085
0.0201237
-0.0182219
-1.06505
1.06315
0.0164904
-0.0146383
-0.885231
0.883379
0.0130126
-0.0113191
-0.736455
0.734761
0.00985961
-0.00835922
-0.612998
0.611498
0.00707468
-0.00574538
-0.508264
0.506934
0.00457739
-0.00332214
-0.397897
0.396642
0.00220879
-0.00110772
-0.233571
0.23247
0.000360293
-0.0424376
0.0420773
-0.0496456
0.0502429
-0.000597242
0.00347383
-0.0051501
-0.316126
0.317802
0.00696917
-0.0086079
-0.438295
0.439934
0.0104137
-0.0121357
-0.533843
0.535565
0.0141264
-0.0160659
-0.640474
0.642413
0.0183196
-0.0204793
-0.766715
0.768875
0.0229094
-0.0251307
-0.917246
0.919467
0.0274839
-0.0294711
-1.09581
1.0978
0.0313535
-0.0326755
-1.30707
1.30839
0.0335198
-0.0335648
-1.55665
1.5567
0.0328355
-0.0313693
-1.54436
1.54289
0.0296204
-0.0274253
-1.2789
1.2767
0.0252848
-0.0228855
-1.061
1.0586
0.0207106
-0.0183924
-0.881283
0.878965
0.0163628
-0.0142512
-0.732849
0.730737
0.0124303
-0.0105535
-0.609825
0.607948
0.00893956
-0.00726077
-0.505477
0.503798
0.00578118
-0.00419118
-0.395256
0.393666
0.0027855
-0.00139766
-0.231243
0.229856
0.000456071
-0.0416841
0.0412281
-0.0509121
0.0517219
-0.000809775
0.0046332
-0.00683501
-0.319661
0.321863
0.00918846
-0.0112638
-0.441801
0.443876
0.0135159
-0.0156621
-0.5377
0.539846
0.0181692
-0.0206488
-0.644761
0.64724
0.0235655
-0.0263647
-0.771305
0.774105
0.0294937
-0.032327
-0.921865
0.924698
0.0352967
-0.0377685
-1.09992
1.10239
0.0400665
-0.0416343
-1.30978
1.31134
0.0425668
-0.0424949
-1.55666
1.55659
0.0414638
-0.0395296
-1.54119
1.53925
0.037276
-0.0344821
-1.27421
1.27142
0.0317774
-0.0287608
-1.05588
1.05286
0.0260378
-0.0231462
-0.876316
0.873425
0.0206228
-0.0180029
-0.72832
0.7257
0.0157431
-0.0134067
-0.605845
0.603509
0.0113831
-0.00925752
-0.501988
0.499862
0.00736874
-0.00533276
-0.391949
0.389913
0.00354148
-0.00177899
-0.22833
0.226567
0.000584335
-0.0407494
0.0401651
-0.0526145
0.0537247
-0.00111025
0.0062571
-0.00917097
-0.324307
0.32722
0.0122208
-0.0148479
-0.446386
0.449013
0.0176665
-0.0203694
-0.542713
0.545416
0.0235845
-0.0268101
-0.650263
0.653488
0.0306203
-0.0342584
-0.777132
0.78077
0.0382778
-0.0418582
-0.927656
0.931237
0.0455452
-0.0485545
-1.10495
1.10796
0.0512832
-0.0530727
-1.31291
1.3147
0.0540228
-0.0537328
-1.55635
1.55606
0.0522757
-0.0497299
-1.53699
1.53445
0.0468394
-0.0433008
-1.26824
1.2647
0.0399002
-0.0361249
-1.04943
1.04565
0.0327289
-0.0291359
-0.870082
0.866489
0.0260126
-0.0227822
-0.722636
0.719406
0.0200009
-0.0171218
-0.600846
0.597967
0.0146087
-0.0119316
-0.497609
0.494932
0.00951345
-0.00687596
-0.387809
0.385172
0.0045587
-0.00228828
-0.224689
0.222418
0.000755741
-0.0395918
0.0388361
-0.0549492
0.0565196
-0.00157047
0.00870398
-0.0126398
-0.330461
0.334397
0.0166411
-0.0200057
-0.452408
0.455772
0.0235878
-0.0270725
-0.549227
0.552712
0.0312931
-0.0355456
-0.657327
0.661579
0.0405207
-0.0451804
-0.784533
0.789193
0.0502306
-0.0546342
-0.934862
0.939266
0.0590716
-0.0626051
-1.111
1.11453
0.0657029
-0.0676169
-1.31642
1.31833
0.0684363
-0.0677593
-1.5555
1.55483
0.0656968
-0.0623539
-1.53147
1.52813
0.0586661
-0.0542138
-1.26068
1.25623
0.0499677
-0.0452722
-1.04136
1.03666
0.0410562
-0.0366034
-0.862299
0.857846
0.0327431
-0.0287666
-0.715528
0.711551
0.0253564
-0.0218355
-0.59457
0.591049
0.0187495
-0.0154217
-0.492098
0.488771
0.0123532
-0.00893971
-0.382612
0.379199
0.00591499
-0.00295305
-0.220137
0.217175
0.000971363
-0.0381507
0.0371794
-0.0582289
0.0606028
-0.00237392
0.0127706
-0.0181852
-0.338751
0.344166
0.0234214
-0.0277334
-0.460429
0.464741
0.0323434
-0.0369228
-0.557763
0.562342
0.0425224
-0.0480963
-0.66643
0.672004
0.0544654
-0.0602659
-0.793889
0.79969
0.0663975
-0.0716189
-0.943663
0.948884
0.0767517
-0.080711
-1.11801
1.12197
0.0840185
-0.0858685
-1.32004
1.32189
0.0863187
-0.085014
-1.55374
1.55244
0.082115
-0.0777541
-1.52424
1.51988
0.0730901
-0.0675476
-1.2512
1.24566
0.062304
-0.0565248
-1.03135
1.02557
0.0513369
-0.04585
-0.852663
0.847176
0.0410862
-0.0361797
-0.706701
0.701795
0.0319796
-0.0276576
-0.58673
0.582408
0.0238705
-0.0197699
-0.485153
0.481053
0.015932
-0.0115893
-0.376023
0.371681
0.0076711
-0.00380366
-0.214394
0.210527
0.00123428
-0.0363364
0.0351021
-0.0630429
0.0669372
-0.00389434
0.0199065
-0.0274941
-0.350266
0.357853
0.0344184
-0.0400579
-0.471273
0.476913
0.0461477
-0.0522719
-0.569
0.575124
0.0596556
-0.0667557
-0.678132
0.685233
0.0745652
-0.0814421
-0.805476
0.812353
0.0885045
-0.0943468
-0.954003
0.959845
0.099891
-0.103967
-1.12568
1.12975
0.107107
-0.108534
-1.32332
1.32474
0.108222
-0.105953
-1.55052
1.54825
0.10193
-0.0963091
-1.51482
1.5092
0.0904975
-0.0837134
-1.23946
1.23268
0.0773549
-0.0703753
-1.01911
1.01213
0.0641101
-0.0574641
-0.84088
0.834235
0.0516676
-0.0456709
-0.695847
0.68985
0.0405187
-0.0352101
-0.577
0.571691
0.0305582
-0.0255022
-0.476404
0.471348
0.0206803
-0.0151463
-0.367593
0.362059
0.0100537
-0.00496976
-0.207035
0.201951
0.00158899
-0.0340294
0.0324404
-0.07062
0.0778795
-0.00725954
0.0337975
-0.0448541
-0.367078
0.378134
0.054054
-0.0612964
-0.486118
0.493361
0.0692639
-0.0772526
-0.583676
0.591665
0.0865168
-0.0949645
-0.692731
0.701178
0.103855
-0.111388
-0.819083
0.826615
0.118837
-0.124727
-0.965332
0.971222
0.130014
-0.133575
-1.13326
1.13682
0.135882
-0.136301
-1.32543
1.32585
0.134667
-0.130977
-1.5451
1.54141
0.125473
-0.118338
-1.50271
1.49557
0.11122
-0.103093
-1.22515
1.21703
0.0955649
-0.0873599
-1.00444
0.996232
0.0800123
-0.0722143
-0.826751
0.818953
0.0653912
-0.0582945
-0.682709
0.675612
0.0521604
-0.0458201
-0.565036
0.558696
0.0402595
-0.0341606
-0.465386
0.459287
0.0281273
-0.0207743
-0.356674
0.349321
0.0137154
-0.00660474
-0.197347
0.190236
0.00201487
-0.0310843
0.0290694
-0.0850313
0.0881146
-0.0030833
0.0217698
-0.0312112
-0.392408
0.401849
0.0398774
-0.0476437
-0.505985
0.513751
0.0569308
-0.0666747
-0.601599
0.611343
0.0773848
-0.0869485
-0.709343
0.718906
0.0975959
-0.107016
-0.833424
0.842844
0.116801
-0.125194
-0.976212
0.984605
0.133544
-0.140238
-1.13934
1.14604
0.146207
-0.15012
-1.32514
1.32906
0.152229
-0.151655
-1.53653
1.53596
0.148264
-0.142441
-1.48739
1.48157
0.13555
-0.126751
-1.20809
1.19929
0.118094
-0.107647
-0.987307
0.97686
0.098
-0.0873252
-0.810339
0.799664
0.0777191
-0.0674601
-0.667358
0.657099
0.0581486
-0.0485751
-0.550806
0.541233
0.0403401
-0.0311176
-0.451755
0.442533
0.0225773
-0.0136892
-0.342118
0.333229
0.00700069
-0.00224612
-0.183715
0.17896
0.000179418
-0.027177
0.0269976
-0.0953246
0.0913287
0.0039959
-0.00193726
-0.00348892
-0.414469
0.419896
0.0108938
-0.0179482
-0.525565
0.532619
0.0268205
-0.0352717
-0.621268
0.629719
0.0448632
-0.0536097
-0.72847
0.737216
0.0629371
-0.0713944
-0.851842
0.860299
0.0801951
-0.0874767
-0.992762
1.00004
0.0949465
-0.100648
-1.15262
1.15833
0.105733
-0.108853
-1.33281
1.33593
0.110018
-0.108838
-1.53478
1.5336
0.105029
-0.0989985
-1.4752
1.46917
0.0919334
-0.0832101
-1.19024
1.18151
0.0748022
-0.0651731
-0.966381
0.956752
0.0561465
-0.0461238
-0.788467
0.778444
0.0371573
-0.0279558
-0.645267
0.636066
0.0201044
-0.0120224
-0.52932
0.521238
0.00511278
0.00152424
-0.430758
0.424121
-0.0062646
0.00912845
-0.322923
0.32006
-0.00876801
0.00586572
-0.172205
0.175107
-0.00251368
-0.0255983
0.028112
-0.0933941
0.0893739
0.00402024
-0.00915463
0.00692939
-0.429069
0.431294
-0.0020609
-0.00366378
-0.542174
0.547899
0.0108269
-0.0179601
-0.638365
0.645499
0.0260257
-0.0334346
-0.745487
0.752896
0.0415644
-0.0488066
-0.868128
0.87537
0.0561486
-0.0625978
-1.0072
1.01365
0.0690625
-0.0741236
-1.16372
1.16878
0.0782941
-0.0807155
-1.33857
1.34099
0.0816466
-0.080338
-1.53202
1.53071
0.0767145
-0.0712428
-1.463
1.45753
0.0650358
-0.0576878
-1.17323
1.16589
0.0504134
-0.0424598
-0.947471
0.939518
0.0351581
-0.0272077
-0.769296
0.761346
0.02043
-0.0135114
-0.626843
0.619924
0.00785752
-0.00211192
-0.511929
0.506184
-0.00229442
0.00613576
-0.415581
0.41174
-0.00850497
0.00896317
-0.313542
0.313084
-0.00714967
0.00412502
-0.172806
0.175831
-0.00164712
-0.0281591
0.0298063
-0.0901404
0.0864554
0.00368506
-0.0110764
0.0106976
-0.438199
0.438578
-0.00752034
0.00292977
-0.555112
0.559702
0.003123
-0.00892813
-0.652366
0.658171
0.0156474
-0.021852
-0.760027
0.766231
0.0286393
-0.0347306
-0.882164
0.888255
0.0413068
-0.0467496
-1.01974
1.02518
0.0524413
-0.0565262
-1.17358
1.17766
0.0602444
-0.0624474
-1.34341
1.34562
0.0632274
-0.0618931
-1.52934
1.52801
0.0589067
-0.0543995
-1.45206
1.44756
0.0492534
-0.042926
-1.15894
1.15261
0.0370454
-0.0307252
-0.931981
0.925661
0.0248562
-0.018843
-0.754108
0.748095
0.0134345
-0.00818356
-0.61287
0.607619
0.00394087
-4.25014e-05
-0.499548
0.49565
-0.00274725
0.00505721
-0.405513
0.403203
-0.00637711
0.00614098
-0.308388
0.308624
-0.00472824
0.00270594
-0.173788
0.175811
-0.00111654
-0.0293049
0.0304214
-0.0872308
0.0842764
0.00295442
-0.010599
0.0113801
-0.443994
0.443213
-0.00890041
0.00532243
-0.565674
0.569252
-0.000520908
-0.00456691
-0.663963
0.66905
0.0100733
-0.015419
-0.772047
0.777392
0.0211801
-0.026387
-0.893987
0.899194
0.0319744
-0.0368088
-1.03053
1.03537
0.0416553
-0.0455011
-1.18172
1.18557
0.0488345
-0.0508533
-1.34767
1.34969
0.0516655
-0.0506211
-1.52682
1.52578
0.048179
-0.0442678
-1.44285
1.43894
0.039968
-0.0348245
-1.14675
1.14161
0.0299656
-0.0246592
-0.919581
0.914275
0.0199547
-0.0150593
-0.742322
0.737427
0.0108665
-0.00671097
-0.602387
0.598232
0.00346308
-0.000535846
-0.490662
0.487735
-0.00166883
0.00333132
-0.398549
0.396886
-0.00410841
0.00421118
-0.304757
0.304654
-0.00338714
0.00189216
-0.17324
0.174735
-0.000843203
-0.0296302
0.0304734
-0.0850615
0.0826794
0.00238205
-0.00931104
0.0102282
-0.447664
0.446747
-0.00881124
0.00579572
-0.573769
0.576785
-0.00140674
-0.00280875
-0.673646
0.677862
0.00742915
-0.0119755
-0.782211
0.786758
0.0169916
-0.0215613
-0.904126
0.908695
0.0266099
-0.0308189
-1.03996
1.04417
0.0352095
-0.0387574
-1.18922
1.19277
0.0418555
-0.0438005
-1.35163
1.35357
0.0446833
-0.0442358
-1.5249
1.52445
0.0421846
-0.0389921
-1.43493
1.43174
0.0352734
-0.0308175
-1.13662
1.13217
0.0268269
-0.0221421
-0.909178
0.904493
0.0180519
-0.0139428
-0.732715
0.728606
0.01036
-0.00679416
-0.594128
0.590562
0.00394859
-0.00120595
-0.483801
0.481058
-0.000548816
0.00198798
-0.393046
0.391607
-0.00295949
0.00317566
-0.301118
0.300901
-0.00256716
0.00151256
-0.171941
0.172996
-0.000670311
-0.0295296
0.0301999
-0.0836014
0.0818082
0.00179322
-0.00757251
0.0085877
-0.450267
0.449252
-0.00734165
0.00501709
-0.580789
0.583113
-0.001177
-0.00249802
-0.68186
0.685535
0.00678355
-0.0105984
-0.791105
0.79492
0.0149068
-0.0188861
-0.91329
0.91727
0.0236291
-0.0274291
-1.04844
1.05224
0.0313392
-0.0347517
-1.1962
1.19961
0.038095
-0.0400401
-1.35565
1.35759
0.0411949
-0.0409493
-1.52381
1.52357
0.0395569
-0.0365958
-1.42855
1.42559
0.0334737
-0.0296494
-1.12775
1.12393
0.0259735
-0.0219276
-0.900019
0.895973
0.0181959
-0.0142912
-0.72438
0.720475
0.0112316
-0.00786088
-0.586846
0.583476
0.0050807
-0.00261949
-0.47761
0.475149
0.000766773
0.000852099
-0.388276
0.386657
-0.00176805
0.00214801
-0.297767
0.297387
-0.00182423
0.00112594
-0.170314
0.171013
-0.00052977
-0.0292112
0.029741
-0.0828562
0.0814648
0.0013914
-0.00596178
0.00695011
-0.452289
0.451301
-0.00575746
0.00358468
-0.586732
0.588904
-0.000222689
-0.00294442
-0.689033
0.6922
0.00650158
-0.0101038
-0.798815
0.802417
0.0139867
-0.0180333
-0.92111
0.925156
0.0220329
-0.0256322
-1.05616
1.05976
0.029661
-0.0328654
-1.20296
1.20617
0.0358174
-0.038254
-1.35953
1.36197
0.0397355
-0.0399253
-1.52351
1.5237
0.0388376
-0.0365388
-1.42294
1.42064
0.0337718
-0.0302652
-1.11989
1.11639
0.0269213
-0.0231023
-0.891866
0.888047
0.0195784
-0.0159991
-0.716643
0.713063
0.0127615
-0.00954751
-0.579931
0.576717
0.00691101
-0.00425411
-0.471977
0.46932
0.00223263
-0.00072708
-0.383472
0.381967
-0.000347968
0.0010379
-0.294315
0.293625
-0.00111239
0.000750362
-0.1684
0.168762
-0.000404355
-0.0287474
0.0291517
-0.0827264
0.0815516
0.00117482
-0.00440462
0.00506439
-0.454185
0.453526
-0.00409244
0.00203038
-0.591995
0.594057
0.000872996
-0.00382175
-0.695482
0.698431
0.00713843
-0.0103023
-0.805915
0.809079
0.0142381
-0.0174968
-0.928695
0.931953
0.0214238
-0.0248203
-1.06354
1.06693
0.0287261
-0.0321244
-1.20941
1.2128
0.0353847
-0.0376771
-1.36425
1.36654
0.0395849
-0.0402676
-1.52391
1.5246
0.0398709
-0.0378843
-1.4183
1.41631
0.0354852
-0.0322325
-1.11298
1.10972
0.029083
-0.0253289
-0.884012
0.880258
0.021964
-0.0182909
-0.709239
0.705566
0.0150522
-0.0117269
-0.57327
0.569944
0.00888965
-0.00630697
-0.46616
0.463577
0.00407425
-0.00231655
-0.378649
0.376891
0.000944623
-1.52357e-05
-0.29061
0.289681
-0.00034686
0.000454752
-0.166068
0.16596
-0.000288671
-0.0280923
0.028381
-0.0828602
0.0819939
0.000866288
-0.00318342
0.00333363
-0.456302
0.456152
-0.00258285
0.000610104
-0.596415
0.598388
0.00187111
-0.0046203
-0.701264
0.704013
0.00770466
-0.0109295
-0.812182
0.815407
0.01423
-0.0175908
-0.935422
0.938783
0.0214401
-0.0246098
-1.07077
1.07394
0.0285779
-0.0319268
-1.21607
1.21942
0.0352699
-0.038114
-1.36931
1.37215
0.0405691
-0.0416186
-1.5254
1.52645
0.0415391
-0.0402577
-1.41455
1.41326
0.0383117
-0.0352492
-1.10633
1.10327
0.0321284
-0.0286053
-0.876378
0.872855
0.0248926
-0.021296
-0.701607
0.69801
0.0179716
-0.0144395
-0.566571
0.563039
0.0115888
-0.0086809
-0.460173
0.457266
0.00632038
-0.00410707
-0.373785
0.371572
0.00257282
-0.00133815
-0.286562
0.285328
0.000451571
8.80676e-05
-0.163302
0.162762
-0.000198072
-0.0272023
0.0274004
-0.0833528
0.0826002
0.000752583
-0.00228937
0.00243832
-0.458616
0.458467
-0.00121831
-0.00042357
-0.600755
0.602397
0.00295115
-0.00550563
-0.706426
0.708981
0.00838474
-0.0111841
-0.818371
0.82117
0.0145425
-0.0175547
-0.942151
0.945163
0.021302
-0.0248423
-1.07755
1.08109
0.0284415
-0.0320983
-1.22287
1.22652
0.035859
-0.0388393
-1.375
1.37798
0.0417374
-0.0436411
-1.52783
1.52974
0.0440876
-0.0434745
-1.41192
1.41131
0.041721
-0.0389901
-1.10023
1.0975
0.0360774
-0.0324487
-0.868895
0.865266
0.0288188
-0.025015
-0.693865
0.690061
0.0215403
-0.0177421
-0.559273
0.555475
0.0145669
-0.0114729
-0.453835
0.450741
0.00869578
-0.0061848
-0.368328
0.365817
0.00427634
-0.00266059
-0.281983
0.280367
0.00143169
-0.000383552
-0.16006
0.159012
-4.82222e-05
-0.0261439
0.0261921
-0.0840127
0.0833932
0.00061949
-0.00139867
0.00134665
-0.461028
0.46108
-0.000360859
-0.00146557
-0.604543
0.60637
0.00381346
-0.00614499
-0.711232
0.713564
0.00903952
-0.0116443
-0.823973
0.826577
0.0148006
-0.0178745
-0.948618
0.951692
0.0214683
-0.0249241
-1.08449
1.08795
0.0286923
-0.0323606
-1.23015
1.23381
0.0363158
-0.0400605
-1.38136
1.3851
0.0434794
-0.0457961
-1.53175
1.53407
0.0470487
-0.0468709
-1.41067
1.4105
0.0457117
-0.0434731
-1.09473
1.09249
0.0405244
-0.0369178
-0.861348
0.857742
0.0332361
-0.0291269
-0.685822
0.681713
0.0255223