/*--------------------------------*- C++ -*----------------------------------*\
  =========                 |
  \\      /  F ield         | OpenFOAM: The Open Source CFD Toolbox
   \\    /   O peration     | Website:  https://openfoam.org
    \\  /    A nd           | Version:  10
     \\/     M anipulation  |
\*---------------------------------------------------------------------------*/
FoamFile
{
    format      ascii;
    class       volVectorField;
    location    "9";
    object      U;
}
// * * * * * * * * * * * * * * * * * * * * * * * * * * * * * * * * * * * * * //

dimensions      [0 1 -1 0 0 0 0];

internalField   nonuniform List<vector> 
8800
(
(0.979656 -0.0914808 0)
(1.00207 -0.0589106 0)
(0.999425 -0.0322624 0)
(1.00004 -0.0167419 0)
(1.00027 -0.00899421 0)
(1.00023 -0.00501019 0)
(1.00018 -0.00279062 0)
(1.00011 -0.00148221 0)
(1.00004 -0.000657269 0)
(1.00004 -0.000117058 0)
(1.00003 0.000425353 0)
(1.00009 0.00109282 0)
(1.00016 0.00212012 0)
(1.00019 0.00379963 0)
(1.00028 0.00674563 0)
(1.00021 0.0122501 0)
(0.999783 0.023305 0)
(0.998941 0.043283 0)
(1.00679 0.079106 0)
(0.774935 0.0478415 0)
(0.359856 -0.0146887 0)
(1.04718 -0.0719144 0)
(1.08905 -0.0654571 0)
(1.05005 -0.0498821 0)
(1.02555 -0.0362981 0)
(1.01237 -0.0245174 0)
(1.00635 -0.0158486 0)
(1.00346 -0.00983434 0)
(1.00198 -0.00552677 0)
(1.00131 -0.00213304 0)
(1.00122 0.000958513 0)
(1.00157 0.00416806 0)
(1.0026 0.00786569 0)
(1.00465 0.0128615 0)
(1.00876 0.0200339 0)
(1.01781 0.030241 0)
(1.03623 0.0432504 0)
(1.06818 0.0571962 0)
(1.09541 0.0701826 0)
(0.847036 0.0553686 0)
(0.219964 -0.00125389 0)
(1.07677 -0.0487209 0)
(1.09945 -0.0470978 0)
(1.06466 -0.0388093 0)
(1.03986 -0.0315813 0)
(1.0231 -0.0242717 0)
(1.01321 -0.0170656 0)
(1.00788 -0.0106972 0)
(1.00524 -0.0053863 0)
(1.00422 -0.000723482 0)
(1.00449 0.00370729 0)
(1.00619 0.00853457 0)
(1.00994 0.0142576 0)
(1.01724 0.0210331 0)
(1.03032 0.028325 0)
(1.05091 0.035408 0)
(1.08047 0.0428086 0)
(1.10633 0.0497976 0)
(0.946221 0.0397141 0)
(0.219704 0.00126182 0)
(0.181637 -0.000523757 0)
(1.02504 -0.0320447 0)
(1.10606 -0.036663 0)
(1.07713 -0.0314884 0)
(1.05203 -0.0259482 0)
(1.03524 -0.0207127 0)
(1.02356 -0.0157888 0)
(1.01564 -0.0109323 0)
(1.01093 -0.00601873 0)
(1.00881 -0.000783041 0)
(1.00948 0.00458015 0)
(1.01274 0.00948692 0)
(1.01888 0.0142377 0)
(1.02853 0.018921 0)
(1.04242 0.0238031 0)
(1.06295 0.0291245 0)
(1.09349 0.0347499 0)
(1.09733 0.0371634 0)
(0.840857 0.0204781 0)
(0.181206 0.000533034 0)
(0.16451 -0.000254745 0)
(0.97364 -0.017723 0)
(1.10621 -0.0252523 0)
(1.08582 -0.0237298 0)
(1.05779 -0.020938 0)
(1.03934 -0.0178796 0)
(1.02709 -0.0142458 0)
(1.01906 -0.0101426 0)
(1.01419 -0.00562055 0)
(1.01214 -0.000558798 0)
(1.01261 0.00457149 0)
(1.01589 0.00920277 0)
(1.02215 0.0133378 0)
(1.03202 0.0170287 0)
(1.04695 0.0201835 0)
(1.0699 0.0229909 0)
(1.10106 0.0254248 0)
(1.07779 0.0238922 0)
(0.76882 0.00908466 0)
(0.163888 0.000264547 0)
(0.159167 -5.88523e-06 0)
(0.936774 -0.00749659 0)
(1.09678 -0.0154204 0)
(1.08809 -0.017702 0)
(1.0617 -0.0179409 0)
(1.04424 -0.0166551 0)
(1.03223 -0.0142444 0)
(1.02414 -0.0106794 0)
(1.01899 -0.00601618 0)
(1.01659 -0.000465623 0)
(1.01718 0.00515591 0)
(1.0207 0.0101185 0)
(1.02703 0.0140121 0)
(1.03677 0.0167732 0)
(1.05125 0.0184887 0)
(1.07232 0.0186619 0)
(1.09892 0.0176091 0)
(1.05377 0.0127026 0)
(0.732766 0.00298983 0)
(0.158289 1.73023e-05 0)
(0.15802 2.53901e-05 0)
(0.912814 -0.0035896 0)
(1.08005 -0.0112105 0)
(1.08289 -0.0165606 0)
(1.06103 -0.0182383 0)
(1.04621 -0.0177489 0)
(1.03575 -0.0153944 0)
(1.02857 -0.0115266 0)
(1.02385 -0.00640712 0)
(1.02142 -0.000227223 0)
(1.02193 0.00606414 0)
(1.02513 0.0114584 0)
(1.03077 0.0156224 0)
(1.03932 0.018398 0)
(1.0513 0.019428 0)
(1.07004 0.018887 0)
(1.08798 0.0151616 0)
(1.02995 0.00785985 0)
(0.715508 0.00123854 0)
(0.156842 -1.19151e-05 0)
(0.157953 2.51194e-05 0)
(0.897283 -0.00171634 0)
(1.06087 -0.00764149 0)
(1.07281 -0.0137442 0)
(1.05972 -0.0170295 0)
(1.04792 -0.0170634 0)
(1.03957 -0.0149812 0)
(1.03317 -0.0112582 0)
(1.02862 -0.00619049 0)
(1.02614 0.000161909 0)
(1.02653 0.00669826 0)
(1.02949 0.0121022 0)
(1.03456 0.0160659 0)
(1.04153 0.0185112 0)
(1.05137 0.0191312 0)
(1.06421 0.0172408 0)
(1.07235 0.0120991 0)
(1.00892 0.00490328 0)
(0.706345 0.000624953 0)
(0.156391 -5.18515e-06 0)
(0.158008 1.5983e-05 0)
(0.8884 -0.000765116 0)
(1.04571 -0.00432769 0)
(1.06249 -0.00895398 0)
(1.05611 -0.0119575 0)
(1.04909 -0.0127891 0)
(1.04295 -0.0116835 0)
(1.03774 -0.00891035 0)
(1.03372 -0.0046916 0)
(1.03147 0.000872491 0)
(1.03159 0.0066008 0)
(1.03401 0.0111253 0)
(1.038 0.0140645 0)
(1.04329 0.0154012 0)
(1.04962 0.0150116 0)
(1.05659 0.0124696 0)
(1.05775 0.00794131 0)
(0.994111 0.00290494 0)
(0.70116 0.000416185 0)
(0.155981 7.14504e-06 0)
(0.158239 2.071e-05 0)
(0.884199 -0.00015321 0)
(1.03679 -0.00185935 0)
(1.05522 -0.00451725 0)
(1.05273 -0.00661201 0)
(1.04876 -0.00755646 0)
(1.04466 -0.00718728 0)
(1.0407 -0.00544775 0)
(1.03733 -0.00237301 0)
(1.03526 0.00183127 0)
(1.03507 0.0060955 0)
(1.03681 0.00919182 0)
(1.03956 0.0108749 0)
(1.04307 0.0111084 0)
(1.04675 0.0100185 0)
(1.05007 0.00773701 0)
(1.04768 0.00460235 0)
(0.985468 0.00165181 0)
(0.698192 0.000282845 0)
(0.15564 7.79495e-06 0)
(0.15862 2.2953e-05 0)
(0.88271 0.000176195 0)
(1.03256 -0.000474474 0)
(1.05119 -0.00171187 0)
(1.05047 -0.00283132 0)
(1.0483 -0.00342039 0)
(1.04569 -0.00324976 0)
(1.04284 -0.00214408 0)
(1.04013 -3.24657e-05 0)
(1.03819 0.00288275 0)
(1.03764 0.00574241 0)
(1.03855 0.00758019 0)
(1.04015 0.00820795 0)
(1.04212 0.0078129 0)
(1.04399 0.00660072 0)
(1.04538 0.00483584 0)
(1.04163 0.00283024 0)
(0.980658 0.00112428 0)
(0.696257 0.000267649 0)
(0.155302 1.30279e-05 0)
(0.159124 2.56647e-05 0)
(0.882729 0.000388144 0)
(1.03097 0.000314837 0)
(1.04944 -8.73262e-05 0)
(1.04941 -0.000471909 0)
(1.04812 -0.00061123 0)
(1.04637 -0.000332693 0)
(1.04425 0.000518832 0)
(1.042 0.00202331 0)
(1.04007 0.00401558 0)
(1.0391 0.0057955 0)
(1.03926 0.00665152 0)
(1.03992 0.00664044 0)
(1.04082 0.00595734 0)
(1.04164 0.00481304 0)
(1.04211 0.00345569 0)
(1.03789 0.00209459 0)
(0.977627 0.000972139 0)
(0.694623 0.000300888 0)
(0.154879 1.88047e-05 0)
(0.159745 3.12801e-05 0)
(0.883579 0.000578379 0)
(1.03088 0.000835179 0)
(1.04913 0.000934991 0)
(1.04935 0.00106203 0)
(1.04845 0.00133202 0)
(1.04713 0.00184345 0)
(1.0454 0.00268957 0)
(1.04337 0.00389904 0)
(1.04133 0.00530863 0)
(1.03991 0.00635715 0)
(1.0393 0.00664764 0)
(1.03926 0.00615619 0)
(1.03943 0.00525056 0)
(1.03963 0.00414457 0)
(1.03965 0.00299294 0)
(1.03523 0.0019161 0)
(0.97527 0.0010131 0)
(0.692941 0.000365149 0)
(0.154336 2.55973e-05 0)
(0.160525 3.91804e-05 0)
(0.885125 0.000778562 0)
(1.03173 0.00129814 0)
(1.04977 0.00174462 0)
(1.05006 0.00225061 0)
(1.04929 0.00287832 0)
(1.04812 0.00366923 0)
(1.0465 0.00464942 0)
(1.04446 0.00577956 0)
(1.04216 0.00685887 0)
(1.04019 0.00739033 0)
(1.03897 0.00713586 0)
(1.03828 0.00638102 0)
(1.03792 0.00531919 0)
(1.03772 0.00416399 0)
(1.03747 0.00304739 0)
(1.03294 0.00203811 0)
(0.973031 0.00116611 0)
(0.691011 0.00045319 0)
(0.153639 3.33832e-05 0)
(0.161514 4.92273e-05 0)
(0.887328 0.00101437 0)
(1.03331 0.0017799 0)
(1.05115 0.00252577 0)
(1.05141 0.00336763 0)
(1.05063 0.00433961 0)
(1.04943 0.00544538 0)
(1.04772 0.00665268 0)
(1.04546 0.00785182 0)
(1.04271 0.00877552 0)
(1.04011 0.00894927 0)
(1.03825 0.00831707 0)
(1.03701 0.00723641 0)
(1.03622 0.005953 0)
(1.03571 0.004652 0)
(1.03527 0.00344048 0)
(1.03061 0.00236254 0)
(0.970602 0.00140916 0)
(0.688681 0.000567683 0)
(0.152753 4.26879e-05 0)
(0.162774 6.25406e-05 0)
(0.890265 0.00130915 0)
(1.03562 0.00234622 0)
(1.05322 0.00339879 0)
(1.05339 0.00458597 0)
(1.0525 0.00592659 0)
(1.05113 0.00739612 0)
(1.04915 0.00891206 0)
(1.04647 0.010291 0)
(1.0431 0.0111794 0)
(1.03974 0.0110834 0)
(1.03718 0.0100941 0)
(1.03539 0.00865465 0)
(1.0342 0.0070699 0)
(1.03341 0.0055232 0)
(1.0328 0.00410998 0)
(1.02801 0.00286137 0)
(0.967759 0.00174175 0)
(0.6858 0.000713102 0)
(0.151633 5.40049e-05 0)
(0.164389 8.01675e-05 0)
(0.894088 0.00168765 0)
(1.03871 0.00305214 0)
(1.05603 0.00445798 0)
(1.05606 0.00603898 0)
(1.05497 0.00780604 0)
(1.05331 0.00971231 0)
(1.0509 0.011625 0)
(1.0476 0.0132802 0)
(1.04338 0.0142165 0)
(1.03908 0.0138838 0)
(1.03571 0.0125055 0)
(1.03333 0.0106421 0)
(1.03172 0.0086619 0)
(1.03065 0.0067661 0)
(1.02986 0.00505083 0)
(1.02491 0.00353981 0)
(0.964299 0.00217441 0)
(0.682202 0.000895912 0)
(0.150222 6.79008e-05 0)
(0.166473 0.0001039 0)
(0.899021 0.00218233 0)
(1.04272 0.00396253 0)
(1.05969 0.0058002 0)
(1.05953 0.00785307 0)
(1.05815 0.0101349 0)
(1.05606 0.0125798 0)
(1.05303 0.0149956 0)
(1.04889 0.0170214 0)
(1.04357 0.0180635 0)
(1.03811 0.0174845 0)
(1.03379 0.0156453 0)
(1.03072 0.0132605 0)
(1.02863 0.0107729 0)
(1.02725 0.00841568 0)
(1.02625 0.00629258 0)
(1.02111 0.00442275 0)
(0.960009 0.00272591 0)
(0.677688 0.00112526 0)
(0.148452 8.51145e-05 0)
(0.169187 0.00013718 0)
(0.905386 0.00284228 0)
(1.04788 0.00516357 0)
(1.06441 0.00753369 0)
(1.06399 0.0101559 0)
(1.0622 0.0130735 0)
(1.0595 0.0161985 0)
(1.05564 0.0192533 0)
(1.05038 0.0217512 0)
(1.04365 0.0229382 0)
(1.03674 0.0220659 0)
(1.03128 0.0196577 0)
(1.0274 0.0166201 0)
(1.02474 0.0134905 0)
(1.023 0.0105452 0)
(1.02177 0.00789723 0)
(1.01639 0.00555804 0)
(0.954639 0.00342633 0)
(0.67201 0.00141405 0)
(0.146234 0.000106974 0)
(0.172761 0.000185638 0)
(0.913661 0.00374267 0)
(1.05456 0.00676476 0)
(1.07056 0.00976794 0)
(1.06975 0.0130718 0)
(1.06737 0.0168001 0)
(1.06382 0.0208083 0)
(1.05882 0.0246782 0)
(1.0521 0.0277592 0)
(1.04358 0.0291092 0)
(1.03489 0.0278569 0)
(1.02804 0.0247326 0)
(1.02317 0.0208771 0)
(1.01984 0.0169449 0)
(1.01767 0.0132673 0)
(1.01617 0.00996376 0)
(1.01049 0.00702549 0)
(0.947874 0.00432537 0)
(0.664838 0.00178301 0)
(0.143454 0.000135956 0)
(0.177529 0.000255663 0)
(0.92454 0.00498229 0)
(1.06339 0.00889331 0)
(1.07874 0.0126352 0)
(1.07732 0.0167933 0)
(1.07407 0.0216196 0)
(1.06933 0.0267756 0)
(1.0628 0.0316603 0)
(1.05415 0.0354235 0)
(1.04334 0.0369129 0)
(1.03245 0.0351426 0)
(1.0239 0.031111 0)
(1.01783 0.0262359 0)
(1.01369 0.0213106 0)
(1.01097 0.016737 0)
(1.00914 0.0126378 0)
(1.00309 0.00895613 0)
(0.939318 0.00551046 0)
(0.655739 0.00226585 0)
(0.139967 0.000175895 0)
(0.184002 0.000355787 0)
(0.938967 0.00671533 0)
(1.07516 0.0117847 0)
(1.08964 0.0164581 0)
(1.08729 0.0217872 0)
(1.08283 0.0280993 0)
(1.07648 0.0347142 0)
(1.06785 0.0407777 0)
(1.05666 0.0452509 0)
(1.04294 0.0467659 0)
(1.02933 0.0442638 0)
(1.01872 0.0390827 0)
(1.01118 0.0329466 0)
(1.00601 0.0268005 0)
(1.00259 0.0211381 0)
(1.00031 0.016093 0)
(0.993765 0.011525 0)
(0.928524 0.00711806 0)
(0.644196 0.00291142 0)
(0.135592 0.000229858 0)
(0.193002 0.00051123 0)
(0.958076 0.00932002 0)
(1.09056 0.0159589 0)
(1.10387 0.0218904 0)
(1.10028 0.0288947 0)
(1.09415 0.0371145 0)
(1.08559 0.0454286 0)
(1.07416 0.0527317 0)
(1.05966 0.0578184 0)
(1.04232 0.0591178 0)
(1.02541 0.0555735 0)
(1.01231 0.0489477 0)
(1.00298 0.0412749 0)
(0.996506 0.0336384 0)
(0.992161 0.0266372 0)
(0.989215 0.0204503 0)
(0.982047 0.0148455 0)
(0.915068 0.00926377 0)
(0.629746 0.00376577 0)
(0.130133 0.000294853 0)
(0.205872 0.000785835 0)
(0.98352 0.0135862 0)
(1.11072 0.0222341 0)
(1.12232 0.0299045 0)
(1.11685 0.0391937 0)
(1.10824 0.0496911 0)
(1.09652 0.0597899 0)
(1.08137 0.0682529 0)
(1.06276 0.073695 0)
(1.04111 0.0743877 0)
(1.02036 0.0693975 0)
(1.00437 0.0609947 0)
(0.992896 0.0515036 0)
(0.984826 0.0420968 0)
(0.979274 0.033452 0)
(0.975423 0.0258298 0)
(0.967432 0.0189504 0)
(0.898454 0.0119885 0)
(0.612004 0.00487583 0)
(0.123375 0.000367113 0)
(0.224876 0.00130391 0)
(1.01851 0.0208587 0)
(1.13774 0.0322028 0)
(1.14643 0.0425154 0)
(1.1376 0.0547092 0)
(1.12499 0.0675741 0)
(1.10874 0.0792367 0)
(1.08875 0.0884007 0)
(1.06522 0.09358 0)
(1.03866 0.0930168 0)
(1.01368 0.0860755 0)
(0.994489 0.0755747 0)
(0.980577 0.064046 0)
(0.970592 0.0526723 0)
(0.963518 0.0421426 0)
(0.958457 0.0327905 0)
(0.949314 0.0243176 0)
(0.877689 0.0156089 0)
(0.590149 0.0063925 0)
(0.115006 0.000457699 0)
(0.253489 0.0024962 0)
(1.06858 0.034543 0)
(1.17401 0.0495544 0)
(1.1774 0.0634049 0)
(1.16285 0.0786316 0)
(1.14422 0.0933123 0)
(1.12182 0.105641 0)
(1.09579 0.11439 0)
(1.06649 0.118191 0)
(1.03454 0.115423 0)
(1.00507 0.1059 0)
(0.982473 0.0930045 0)
(0.965878 0.079337 0)
(0.953639 0.0659861 0)
(0.94461 0.053578 0)
(0.937796 0.0424283 0)
(0.926826 0.0322756 0)
(0.85122 0.021322 0)
(0.562668 0.00860971 0)
(0.105163 0.000532987 0)
(0.294411 0.0100446 -1.44818e-20)
(1.13506 0.0629008 -1.10047e-20)
(1.21927 0.0810643 3.05347e-21)
(1.21273 0.0984966 0)
(1.19018 0.114911 8.6483e-36)
(1.16401 0.129296 3.73736e-23)
(1.13443 0.140466 -1.05661e-21)
(1.10163 0.147373 0)
(1.066 0.14877 4.38977e-35)
(1.02813 0.143118 -3.40338e-21)
(0.993671 0.130697 0)
(0.967157 0.115388 -4.97528e-21)
(0.94727 0.0997573 -1.52803e-20)
(0.932044 0.0847546 -7.41744e-21)
(0.920145 0.0709911 -2.34771e-21)
(0.910393 0.0587646 -1.42633e-21)
(0.896243 0.0477126 0)
(0.816416 0.034947 1.0338e-21)
(0.527095 0.0183996 1.22606e-21)
(0.0953249 0.00296595 2.18299e-20)
(0.317744 0.0279473 -2.62219e-20)
(1.18839 0.110636 5.1542e-22)
(1.26063 0.131362 -1.46085e-21)
(1.2448 0.147556 0)
(1.21445 0.162143 2.52627e-21)
(1.18092 0.174576 1.59089e-21)
(1.14441 0.183694 -5.72732e-22)
(1.10496 0.188404 -5.34056e-21)
(1.06281 0.187443 0)
(1.01836 0.179268 1.43399e-20)
(0.977801 0.164534 1.60564e-20)
(0.946091 0.147536 5.19839e-21)
(0.921615 0.130808 2.07456e-20)
(0.902113 0.115129 3.0808e-20)
(0.886056 0.101023 0)
(0.87207 0.0889304 4.62369e-20)
(0.853043 0.0783477 6.80973e-20)
(0.774887 0.0645916 7.63373e-20)
(0.503183 0.0413662 -8.94255e-20)
(0.0936033 0.00809021 -1.62328e-21)
(0.308401 0.0449979 0)
(1.21897 0.172078 -7.72964e-21)
(1.29174 0.19448 0)
(1.26964 0.206652 1.24652e-20)
(1.23308 0.217346 0)
(1.19334 0.226097 6.94192e-21)
(1.15072 0.231838 3.13175e-22)
(1.10529 0.233337 -7.22426e-21)
(1.05724 0.229277 -1.53441e-21)
(1.00687 0.218165 6.83227e-21)
(0.960897 0.201154 3.74689e-20)
(0.924769 0.182908 -2.48813e-22)
(0.896644 0.165842 -1.55893e-20)
(0.873998 0.150583 -3.04414e-20)
(0.855248 0.137446 3.711e-20)
(0.839066 0.126643 -6.67734e-20)
(0.819438 0.11771 -9.19673e-21)
(0.749573 0.103593 0)
(0.502455 0.0704656 3.88934e-22)
(0.100725 0.0145925 0)
(0.295524 0.059535 -1.93161e-19)
(1.23213 0.236522 7.91921e-20)
(1.31079 0.261676 4.19665e-20)
(1.28525 0.270329 -8.10349e-21)
(1.24458 0.276623 1.24269e-20)
(1.20037 0.281095 -1.67078e-20)
(1.15306 0.282834 -3.7967e-22)
(1.10278 0.280609 0)
(1.04976 0.273059 -2.55168e-20)
(0.994378 0.258761 0)
(0.944062 0.23937 -1.88995e-20)
(0.904703 0.219828 -2.70616e-20)
(0.874239 0.202351 -1.74151e-20)
(0.84998 0.18727 -2.26094e-20)
(0.830196 0.174664 0)
(0.813449 0.164622 0)
(0.794688 0.156504 -6.15024e-20)
(0.731619 0.141603 1.23227e-20)
(0.498809 0.097652 -7.23328e-21)
(0.10249 0.0203739 -8.47608e-21)
(0.283936 0.0723893 1.41187e-19)
(1.23374 0.300007 0)
(1.3202 0.329114 -1.16599e-19)
(1.29285 0.334641 -3.02661e-20)
(1.24949 0.33679 -2.35481e-20)
(1.20215 0.337156 0)
(1.15135 0.334883 -4.09531e-21)
(1.09734 0.328817 5.55437e-21)
(1.04043 0.31764 1.06444e-20)
(0.980991 0.299967 3.42689e-20)
(0.927097 0.277961 0)
(0.885211 0.2568 -5.8673e-20)
(0.853164 0.238467 -3.77937e-20)
(0.827985 0.223085 -2.28243e-20)
(0.807771 0.210504 1.50611e-19)
(0.791041 0.200623 1.85196e-20)
(0.773212 0.192511 8.87672e-20)
(0.714484 0.175982 -4.31403e-19)
(0.490735 0.121573 2.58064e-19)
(0.101817 0.0254475 -3.12002e-19)
(0.274545 0.0840333 1.47893e-19)
(1.22802 0.360588 -2.73437e-20)
(1.32234 0.395021 2.03599e-20)
(1.29413 0.397827 5.56227e-20)
(1.24897 0.39616 3.46165e-20)
(1.19945 0.392652 1.58821e-21)
(1.14609 0.386531 3.94792e-21)
(1.08915 0.376752 2.99817e-21)
(1.02901 0.362046 -2.31606e-20)
(0.96615 0.340965 0)
(0.909331 0.316107 -2.49988e-20)
(0.865553 0.292954 -1.48508e-21)
(0.832454 0.273345 -4.23417e-20)
(0.806836 0.257166 0)
(0.786622 0.244058 -3.28423e-20)
(0.770219 0.233742 -8.00065e-20)
(0.753175 0.22509 2.22153e-19)
(0.697057 0.206495 -2.22748e-19)
(0.480297 0.142648 3.17752e-19)
(0.0998599 0.0298384 -3.31384e-19)
(0.267286 0.0948389 -4.7382e-22)
(1.21799 0.417783 3.31919e-20)
(1.31916 0.458238 9.6998e-20)
(1.29067 0.458808 -3.38681e-20)
(1.2443 0.453713 1.9743e-20)
(1.19319 0.446653 0)
(1.13791 0.436999 1.01292e-20)
(1.0787 0.423731 -1.17786e-21)
(1.016 0.405635 -1.00586e-20)
(0.950357 0.381221 0)
(0.891084 0.353371 -2.4071e-20)
(0.845714 0.327952 -3.44466e-20)
(0.811825 0.306678 4.63167e-20)
(0.785957 0.289267 -2.98154e-20)
(0.765849 0.275222 -1.44809e-19)
(0.749785 0.264105 8.92598e-20)
(0.733362 0.254617 2.84489e-20)
(0.679202 0.233868 0)
(0.468572 0.161344 -3.08688e-19)
(0.0971941 0.0336064 -1.13561e-20)
(0.261788 0.105179 2.39828e-20)
(1.20556 0.471434 -3.79948e-20)
(1.31198 0.518165 -5.28484e-20)
(1.28353 0.516884 -1.04423e-19)
(1.23642 0.508801 9.52105e-20)
(1.18426 0.498572 -5.24129e-20)
(1.12764 0.485715 -2.17349e-20)
(1.06674 0.469297 -7.71361e-22)
(1.00189 0.448047 1.11712e-20)
(0.933761 0.420431 -8.25104e-20)
(0.872236 0.389545 -2.99585e-20)
(0.825425 0.361606 0)
(0.790842 0.33833 5.07583e-20)
(0.764819 0.319334 6.30484e-20)
(0.744882 0.304021 7.78407e-20)
(0.729195 0.291839 -9.7654e-20)
(0.713355 0.281308 -2.94864e-20)
(0.660777 0.258378 3.51129e-20)
(0.455712 0.177744 0)
(0.0939987 0.0367544 -2.48412e-20)
(0.25761 0.115161 -2.76453e-19)
(1.19204 0.52165 1.73863e-19)
(1.30195 0.574524 5.78934e-20)
(1.27371 0.571679 -7.94554e-20)
(1.22621 0.560988 5.66181e-20)
(1.1734 0.548021 -3.7631e-21)
(1.1158 0.532375 2.19538e-20)
(1.05355 0.513144 -7.34302e-22)
(0.986925 0.489047 -1.78248e-20)
(0.916548 0.458425 1.12677e-22)
(0.852869 0.424542 -8.85962e-20)
(0.804613 0.393902 8.85311e-20)
(0.769321 0.36833 -5.71926e-20)
(0.743137 0.34742 7.14866e-20)
(0.723392 0.330543 0)
(0.708104 0.317073 -5.32783e-20)
(0.692835 0.305283 -1.33654e-21)
(0.641703 0.280094 -1.54184e-19)
(0.441858 0.191945 -2.28311e-20)
(0.0903015 0.0392806 0)
(0.254389 0.124802 0)
(1.17812 0.568621 1.87236e-19)
(1.28995 0.627247 1.34507e-19)
(1.26195 0.623092 8.94331e-20)
(1.2143 0.610154 5.50276e-20)
(1.16113 0.594819 0)
(1.10288 0.576765 1.91894e-20)
(1.03958 0.555082 -1.31161e-21)
(0.971481 0.528516 3.71105e-20)
(0.899024 0.495175 -9.78737e-21)
(0.833123 0.458386 -6.51482e-20)
(0.783267 0.424927 4.41074e-20)
(0.747129 0.396779 -2.05369e-21)
(0.720706 0.373643 7.55053e-20)
(0.701139 0.354929 4.96365e-20)
(0.686276 0.339935 -1.16384e-19)
(0.67161 0.326722 1.41421e-19)
(0.621738 0.298883 4.25232e-20)
(0.426775 0.203885 1.76263e-19)
(0.085986 0.0409822 -4.71411e-19)
(0.251908 0.134172 -7.01918e-20)
(1.1642 0.612525 1.07729e-19)
(1.27664 0.676404 -8.32667e-20)
(1.24893 0.671169 -1.03359e-19)
(1.20132 0.656307 0)
(1.14801 0.638937 4.48505e-20)
(1.08936 0.618807 -5.68288e-20)
(1.02525 0.595043 -4.18649e-21)
(0.955823 0.566362 0)
(0.881434 0.5307 -1.53893e-19)
(0.813162 0.49117 1.78208e-19)
(0.76142 0.454858 0)
(0.724195 0.423884 6.83814e-20)
(0.697373 0.398192 -2.12927e-21)
(0.677909 0.377334 -1.58033e-19)
(0.663479 0.360551 6.20572e-20)
(0.649412 0.345692 0)
(0.600674 0.315057 2.31239e-19)
(0.410407 0.213513 0)
(0.0811536 0.0419933 -2.25976e-19)
(0.249902 0.143283 7.78949e-20)
(1.1505 0.653566 1.22833e-19)
(1.26253 0.722132 -8.72154e-20)
(1.23512 0.715996 0)
(1.18767 0.699485 7.50935e-20)
(1.13438 0.680357 0)
(1.07554 0.658453 7.2857e-20)
(1.01086 0.632957 9.49478e-21)
(0.94027 0.60258 2.62304e-21)
(0.863983 0.565029 -7.58674e-20)
(0.793178 0.523061 1.70986e-20)
(0.739167 0.483909 0)
(0.700497 0.449932 -1.46259e-19)
(0.673035 0.42134 2.226e-21)
(0.653551 0.397945 0)
(0.639499 0.379055 2.49635e-21)
(0.626004 0.362308 2.10722e-19)
(0.578277 0.3286 -2.04271e-19)
(0.392586 0.220742 6.03536e-20)
(0.075663 0.0422197 0)
(0.248016 0.151958 0)
(1.13709 0.691938 1.36836e-19)
(1.24805 0.764615 1.01816e-19)
(1.22084 0.757729 -2.02551e-21)
(1.17366 0.739766 4.64652e-20)
(1.12057 0.719108 1.06424e-19)
(1.06169 0.695704 -2.40522e-20)
(0.996651 0.668804 5.44318e-21)
(0.925096 0.637149 1.90936e-20)
(0.846842 0.598194 -1.17258e-19)
(0.773316 0.554227 -3.44511e-21)
(0.716655 0.512378 -5.92111e-20)
(0.676069 0.475261 2.41365e-19)
(0.647587 0.443464 -2.72572e-21)
(0.627893 0.417064 -1.26644e-19)
(0.614117 0.395603 -2.31466e-19)
(0.601111 0.376634 0)
(0.554376 0.339555 0)
(0.373085 0.225437 6.71955e-20)
(0.0694703 0.0415375 -3.92033e-20)
(0.246506 0.160301 9.60905e-20)
(1.12409 0.727522 -2.98386e-19)
(1.23344 0.804042 -1.08838e-19)
(1.20639 0.796504 0)
(1.15955 0.777251 -1.44196e-21)
(1.10677 0.755251 1.26742e-19)
(1.04806 0.730586 -7.83313e-20)
(0.982834 0.702579 -4.3199e-20)
(0.910491 0.670053 1.58766e-20)
(0.830259 0.630252 -8.86937e-20)
(0.753757 0.584804 -1.51366e-19)
(0.694081 0.540554 1.58306e-19)
(0.650968 0.500286 0)
(0.620837 0.464942 -5.7392e-20)
(0.600413 0.434977 -1.40079e-19)
(0.586947 0.410646 -1.69341e-19)
(0.574598 0.388778 -2.06332e-19)
(0.528724 0.34782 6.21199e-20)
(0.351522 0.227311 -3.64073e-20)
(0.0625425 0.0398536 6.3064e-22)
(0.244916 0.168203 0)
(1.11153 0.760795 0)
(1.21885 0.840657 2.2586e-21)
(1.19194 0.832493 0)
(1.14555 0.812061 -1.73862e-19)
(1.09317 0.788874 -1.11237e-19)
(1.03479 0.763143 0)
(0.969585 0.734304 -9.21024e-21)
(0.896617 0.701281 1.1967e-20)
(0.814523 0.661171 -2.03614e-19)
(0.734829 0.61481 0)
(0.671662 0.56868 -1.02026e-19)
(0.625275 0.525312 -3.25434e-21)
(0.592522 0.486179 -2.68945e-21)
(0.570924 0.45214 1.50944e-19)
(0.557722 0.424306 -2.65924e-22)
(0.546247 0.399042 -4.52322e-19)
(0.500696 0.353357 1.369e-19)
(0.327533 0.225956 4.0811e-20)
(0.0547613 0.036998 0)
(0.243259 0.17564 -3.5111e-19)
(1.0992 0.791912 -1.81765e-19)
(1.20437 0.874625 -2.70759e-19)
(1.17762 0.865826 3.80685e-19)
(1.13176 0.844301 -3.25018e-19)
(1.0799 0.820067 0)
(1.02199 0.793443 -6.56456e-20)
(0.95702 0.764018 1.79587e-20)
(0.883639 0.730856 3.71812e-21)
(0.799868 0.690928 1.64612e-20)
(0.716861 0.644377 1.89676e-19)
(0.649576 0.596906 -3.48008e-20)
(0.599224 0.550507 -1.51045e-19)
(0.562943 0.507394 -6.94671e-20)
(0.540089 0.469283 8.48409e-20)
(0.526522 0.436596 -2.00324e-22)
(0.515098 0.407312 1.25733e-19)
(0.469347 0.355921 -2.99247e-19)
(0.300302 0.221069 3.59296e-19)
(0.0461852 0.0330102 5.18087e-20)
(0.241423 0.182608 1.28483e-19)
(1.08734 0.820941 -9.90682e-20)
(1.19009 0.906094 5.42037e-21)
(1.16353 0.896662 2.14119e-19)
(1.11826 0.874118 7.53994e-20)
(1.06703 0.848931 2.21854e-19)
(1.00975 0.821553 -2.82796e-20)
(0.94521 0.791752 8.461e-20)
(0.871676 0.758766 1.19152e-20)
(0.786408 0.719532 -1.08053e-19)
(0.699964 0.673588 0)
(0.627961 0.625259 -1.58493e-19)
(0.573289 0.57625 2.20883e-19)
(0.533295 0.529697 0)
(0.507755 0.486534 -1.82469e-19)
(0.492965 0.448689 1.14337e-19)
(0.480901 0.413695 -1.37075e-19)
(0.434641 0.354786 -1.66676e-19)
(0.269122 0.211633 -2.956e-19)
(0.0365547 0.0276266 -2.30921e-19)
(0.239697 0.189191 -1.40683e-19)
(1.07568 0.84822 1.05952e-19)
(1.17609 0.935234 2.50692e-19)
(1.14977 0.925136 2.93596e-19)
(1.10511 0.901638 -1.58263e-19)
(1.05461 0.875581 1.52374e-19)
(0.998095 0.847545 -8.86685e-20)
(0.934188 0.817556 1.02309e-19)
(0.860754 0.785026 1.41605e-20)
(0.774214 0.747023 1.00052e-19)
(0.684241 0.702359 4.03317e-19)
(0.60733 0.6538 0)
(0.547868 0.603156 0)
(0.503631 0.553453 -8.06363e-20)
(0.473061 0.504693 0)
(0.455597 0.459934 2.50742e-19)
(0.442743 0.41854 3.02976e-19)
(0.395859 0.350062 0)
(0.234006 0.197319 0)
(0.0262723 0.0210158 2.55237e-19)
(0.237776 0.195188 1.54602e-19)
(1.06422 0.873674 1.25785e-19)
(1.1624 0.962188 1.7985e-19)
(1.13636 0.951403 -2.6096e-19)
(1.09237 0.926995 -1.75815e-19)
(1.04268 0.900125 -2.00966e-19)
(0.987037 0.871507 1.31354e-19)
(0.923938 0.841457 9.10431e-22)
(0.850865 0.809637 -4.79281e-21)
(0.76331 0.77335 -6.11181e-21)
(0.670091 0.73054 2.04478e-19)
(0.588058 0.682731 0)
(0.522791 0.631617 2.24941e-19)
(0.472297 0.578796 1.70362e-19)
(0.435825 0.52579 4.40293e-19)
(0.41299 0.472694 1.35738e-19)
(0.39856 0.419593 -1.70352e-19)
(0.352088 0.338113 -1.01205e-19)
(0.197088 0.176491 0)
(0.0171371 0.0139184 2.81571e-19)
(0.236128 0.201094 -3.38688e-19)
(1.05302 0.897348 0)
(1.14903 0.987061 1.99859e-19)
(1.12332 0.975586 -2.13185e-19)
(1.08007 0.950314 1.9793e-19)
(1.03125 0.922684 2.91781e-19)
(0.976583 0.893518 -3.02438e-19)
(0.914445 0.863467 3.95444e-21)
(0.841936 0.832566 0)
(0.753738 0.79843 -8.73315e-20)
(0.657698 0.758138 -4.22971e-19)
(0.570579 0.711766 2.15912e-20)
(0.498317 0.661236 3.06726e-19)
(0.439468 0.60722 0)
(0.395516 0.548977 2.97091e-19)
(0.364762 0.488249 0)
(0.3444 0.420031 0)
(0.299116 0.312945 -1.14709e-19)
(0.166154 0.140873 0)
(0.0269548 0.0138013 7.68097e-20)
(0.234304 0.206349 -3.68686e-19)
(1.04209 0.919424 0)
(1.13597 1.01005 3.22795e-19)
(1.11062 0.997917 0)
(1.06815 0.971851 -1.06933e-19)
(1.02024 0.943533 0)
(0.966647 0.913871 -2.21721e-20)
(0.905592 0.883862 -1.7574e-20)
(0.833843 0.854087 -3.09622e-21)
(0.745373 0.82255 -8.12757e-20)
(0.646723 0.785609 1.07642e-20)
(0.554545 0.742104 1.80381e-19)
(0.475423 0.6927 2.97167e-19)
(0.406982 0.636692 4.28228e-20)
(0.35281 0.579831 2.31759e-19)
(0.310318 0.511266 0)
(0.270992 0.423097 3.7502e-19)
(0.218705 0.267124 -2.27395e-19)
(0.0940961 0.112466 2.64665e-19)
(-0.061688 0.36541 -3.13555e-19)
(0.232582 0.211371 2.99777e-19)
(1.03127 0.940035 4.72406e-19)
(1.12312 1.03148 0)
(1.09812 1.01878 4.09136e-21)
(1.05642 0.992076 2.89301e-19)
(1.0094 0.963209 -5.60895e-19)
(0.956958 0.933155 -1.32285e-19)
(0.897093 0.903389 0)
(0.826378 0.87508 -4.54571e-20)
(0.73808 0.84686 -1.354e-21)
(0.636556 0.814547 0)
(0.538938 0.775242 0)
(0.452737 0.727929 2.60665e-19)
(0.37338 0.673978 -1.3384e-19)
(0.3072 0.618738 -2.29496e-19)
(0.248701 0.553427 0)
(0.165292 0.440935 1.90626e-19)
(0.0590392 0.495911 -2.30088e-19)
(0.0545362 1.66588 -1.22002e-19)
(0.0948961 2.70016 -1.55126e-19)
(0.230835 0.215553 -2.18753e-19)
(1.02073 0.95936 -5.9364e-19)
(1.1105 1.05133 1.84847e-19)
(1.08583 1.03807 1.7893e-19)
(1.04491 1.01083 0)
(0.998742 0.981503 -4.00459e-19)
(0.947615 0.95112 -2.20003e-19)
(0.88902 0.921826 1.13674e-20)
(0.819795 0.895223 -6.32895e-21)
(0.732056 0.870838 5.36638e-20)
(0.627951 0.8441 1.88292e-19)
(0.52465 0.809607 1.86942e-19)
(0.431933 0.766478 2.55584e-19)
(0.344757 0.712132 -3.04022e-19)
(0.264942 0.671737 -3.36689e-19)
(0.190577 0.613273 0)
(0.100313 0.83768 0)
(0.156376 2.37017 9.89244e-20)
(0.16571 3.13187 0)
(0.164945 3.35772 2.29156e-19)
(0.231537 0.219741 0)
(1.01056 0.977394 0)
(1.09795 1.06949 0)
(1.07352 1.05562 4.94812e-20)
(1.03337 1.02798 2.57696e-19)
(0.988064 0.998347 -3.04363e-19)
(0.938446 0.967724 -1.57214e-19)
(0.881351 0.939023 1.27782e-20)
(0.814121 0.914266 -9.26466e-20)
(0.727514 0.894237 -1.03647e-20)
(0.621477 0.874101 3.40078e-19)
(0.512454 0.846017 -2.21272e-20)
(0.411755 0.807533 2.86499e-20)
(0.317825 0.754046 4.31747e-20)
(0.238079 0.725175 1.47933e-21)
(0.161832 0.939105 1.54458e-21)
(0.206584 2.46733 -4.65744e-19)
(0.240162 3.24961 -1.77463e-19)
(0.218903 3.41867 8.17129e-20)
(0.196324 3.44946 -8.26602e-20)
(0.143893 0.174745 1.23848e-19)
(0.992734 0.997218 0)
(1.08567 1.08623 -3.59992e-19)
(1.06193 1.07217 -4.61718e-19)
(1.02252 1.04431 5.32922e-19)
(0.978167 1.01434 3.22639e-19)
(0.929344 0.983166 1.83747e-19)
(0.874139 0.955002 -2.10794e-19)
(0.809208 0.932307 9.37204e-20)
(0.724737 0.917257 0)
(0.617538 0.904637 1.44693e-19)
(0.503424 0.883049 -1.40127e-19)
(0.395804 0.851968 0)
(0.295409 0.801479 3.77356e-20)
(0.233629 0.881968 8.95131e-20)
(0.204754 2.05145 -1.105e-19)
(0.31505 3.27691 1.21965e-19)
(0.294099 3.44269 5.64625e-20)
(0.247525 3.47632 6.48404e-20)
(0.21547 3.49058 7.16068e-20)
(0.273334 0.25469 -2.28137e-19)
(0.970619 0.997521 0)
(1.06429 1.10419 3.64475e-19)
(1.04467 1.09535 4.72988e-19)
(1.00539 1.06693 -5.45432e-19)
(0.962142 1.03652 -3.40279e-19)
(0.915683 1.00607 -2.79481e-19)
(0.863672 0.978328 -1.59443e-20)
(0.802511 0.958332 -1.29627e-19)
(0.720678 0.951659 -2.60624e-20)
(0.610837 0.954536 5.24733e-21)
(0.487191 0.948842 1.11965e-19)
(0.367091 0.930361 2.37686e-20)
(0.277273 1.00537 -3.30225e-20)
(0.317878 1.98454 -7.54461e-20)
(0.407087 3.26232 4.44943e-20)
(0.39891 3.48612 -3.20637e-20)
(0.351268 3.52152 -1.73887e-20)
(0.301687 3.55884 2.66337e-20)
(0.229504 3.54907 1.44024e-21)
(0.259267 0.24951 0)
(0.964552 1.01424 9.57456e-20)
(1.05347 1.12141 -7.20504e-20)
(1.03288 1.11171 -5.24418e-20)
(0.9942 1.08293 -3.56918e-19)
(0.951983 1.05201 3.31771e-19)
(0.906704 1.02086 1.87633e-19)
(0.857273 0.993284 -1.66445e-20)
(0.799767 0.975461 1.58624e-19)
(0.722157 0.97494 -1.50907e-20)
(0.611588 0.989059 -1.95346e-19)
(0.481859 0.994134 1.60803e-20)
(0.360405 0.991257 -2.07916e-20)
(0.327725 1.32287 -2.6639e-20)
(0.445068 2.83364 2.01177e-20)
(0.504915 3.4618 3.95621e-22)
(0.446872 3.56599 -9.4528e-20)
(0.402486 3.60041 -9.51611e-20)
(0.325705 3.63753 1.17563e-19)
(0.248853 3.62624 5.39038e-20)
(0.240844 0.245398 2.34361e-19)
(0.955919 1.03353 6.41214e-19)
(1.04172 1.13973 -2.04889e-19)
(1.02016 1.12886 -1.98886e-19)
(0.982121 1.09939 0)
(0.941032 1.06767 4.81553e-19)
(0.897434 1.03582 2.84617e-19)
(0.850957 1.00802 -1.74139e-20)
(0.798373 0.992198 1.66476e-20)
(0.72673 0.998949 9.65811e-20)
(0.617776 1.0262 -6.13945e-20)
(0.480234 1.04371 -1.13367e-19)
(0.364716 1.07957 -1.37376e-19)
(0.415356 1.81036 1.40187e-19)
(0.56521 3.27254 4.05527e-20)
(0.582505 3.5525 0)
(0.511483 3.62294 0)
(0.455234 3.69435 1.10906e-19)
(0.366198 3.76368 0)
(0.26598 3.73373 2.2011e-19)
(0.227606 0.244392 -3.40253e-19)
(0.945498 1.05411 -5.30771e-19)
(1.02802 1.15854 0)
(1.00578 1.14618 4.07539e-21)
(0.96849 1.1157 -3.43758e-19)
(0.928624 1.08287 7.11949e-19)
(0.887104 1.05001 1.90688e-19)
(0.844134 1.02181 -2.07566e-20)
(0.797159 1.00762 1.73197e-19)
(0.732603 1.02093 -9.59556e-21)
(0.628646 1.06199 0)
(0.48458 1.09464 0)
(0.386366 1.21954 -1.0448e-19)
(0.529788 2.36075 2.57813e-20)
(0.678096 3.45154 -3.43457e-20)
(0.655603 3.60301 0)
(0.600156 3.69316 2.50057e-19)