/*--------------------------------*- C++ -*----------------------------------*\
  =========                 |
  \\      /  F ield         | OpenFOAM: The Open Source CFD Toolbox
   \\    /   O peration     | Website:  https://openfoam.org
    \\  /    A nd           | Version:  10
     \\/     M anipulation  |
\*---------------------------------------------------------------------------*/
FoamFile
{
    format      ascii;
    class       volScalarField;
    location    "64";
    object      p;
}
// * * * * * * * * * * * * * * * * * * * * * * * * * * * * * * * * * * * * * //

dimensions      [0 2 -2 0 0 0 0];

internalField   nonuniform List<scalar> 
8800
(
0.840408
0.792622
0.753935
0.724942
0.704083
0.689259
0.678673
0.671208
0.666409
0.664381
0.665682
0.6699
0.676565
0.685895
0.698685
0.716426
0.741209
0.775152
0.817705
0.876407
0.671653
0.679332
0.686811
0.690121
0.688621
0.683548
0.67707
0.671005
0.666301
0.663484
0.663238
0.665775
0.670289
0.676252
0.683034
0.689322
0.692969
0.692235
0.68682
0.678132
0.650051
0.656211
0.66034
0.663288
0.665342
0.665953
0.664858
0.662769
0.660777
0.659903
0.660901
0.663312
0.666134
0.668331
0.668949
0.667758
0.665423
0.662034
0.657477
0.653717
0.644231
0.646883
0.649637
0.652043
0.653683
0.654852
0.655606
0.655741
0.655472
0.655458
0.656251
0.657454
0.658318
0.658401
0.657804
0.656722
0.654913
0.652347
0.649947
0.648443
0.638838
0.640263
0.642045
0.64408
0.64587
0.64722
0.648222
0.64904
0.649684
0.650289
0.650986
0.651519
0.651646
0.651379
0.650697
0.649459
0.647772
0.64593
0.644625
0.643794
0.633746
0.634666
0.63591
0.637481
0.639119
0.640654
0.641954
0.643043
0.644042
0.644982
0.645723
0.646094
0.646085
0.645669
0.644806
0.643619
0.642302
0.641049
0.64023
0.639678
0.628819
0.629489
0.630453
0.63176
0.633176
0.634645
0.636101
0.637449
0.638686
0.639847
0.640729
0.641147
0.641101
0.640621
0.639836
0.638904
0.637904
0.636989
0.636407
0.636001
0.624011
0.624527
0.625313
0.626448
0.627733
0.629119
0.630583
0.632084
0.633555
0.634954
0.63603
0.636561
0.636581
0.63623
0.635653
0.634947
0.634188
0.633515
0.633084
0.632767
0.619249
0.61966
0.620318
0.62133
0.622544
0.623884
0.625349
0.626937
0.628608
0.630276
0.631603
0.632331
0.632549
0.63242
0.632068
0.631575
0.631023
0.630543
0.630224
0.629965
0.614447
0.614782
0.615351
0.616284
0.61745
0.618777
0.62028
0.621969
0.623831
0.625794
0.627446
0.628474
0.628973
0.629101
0.628982
0.628716
0.62836
0.62804
0.627806
0.627589
0.609516
0.609793
0.610302
0.611189
0.612338
0.613691
0.61527
0.617102
0.619197
0.621501
0.623562
0.624976
0.625813
0.626235
0.626372
0.626334
0.626173
0.625996
0.625829
0.625641
0.604366
0.604599
0.605068
0.60594
0.607112
0.608534
0.610231
0.61226
0.614654
0.617383
0.619944
0.621822
0.623055
0.623815
0.624237
0.624435
0.624473
0.624425
0.624315
0.624147
0.598905
0.599102
0.599552
0.600438
0.601675
0.60321
0.605081
0.607375
0.610149
0.613407
0.616575
0.619006
0.620702
0.621847
0.622591
0.623041
0.623293
0.623369
0.623306
0.623152
0.593029
0.593199
0.593646
0.594576
0.595917
0.597618
0.599729
0.602367
0.605623
0.609538
0.61344
0.616531
0.618772
0.620361
0.621472
0.622227
0.622692
0.622887
0.622863
0.622717
0.586621
0.586766
0.587227
0.588229
0.589722
0.591647
0.594076
0.597154
0.601016
0.605736
0.610528
0.614406
0.617294
0.619407
0.620934
0.622021
0.62273
0.62305
0.623064
0.622922
0.57954
0.579661
0.580148
0.581255
0.582952
0.585171
0.588006
0.591643
0.596257
0.601962
0.607828
0.612647
0.6163
0.619029
0.621051
0.622522
0.623502
0.623949
0.623997
0.623854
0.571601
0.571701
0.572233
0.573479
0.575438
0.578031
0.581385
0.585723
0.591269
0.598176
0.605335
0.611276
0.615831
0.619287
0.6219
0.623818
0.625102
0.625684
0.625763
0.625617
0.56258
0.56268
0.563266
0.564671
0.566961
0.57004
0.574053
0.57927
0.58597
0.594343
0.603054
0.610324
0.615946
0.620252
0.623567
0.626008
0.627634
0.628359
0.628467
0.628313
0.55216
0.552241
0.552918
0.554548
0.557274
0.560973
0.565817
0.57214
0.580271
0.59043
0.600998
0.609834
0.616707
0.622017
0.626132
0.629193
0.631206
0.632079
0.632212
0.632047
0.539967
0.540034
0.54081
0.542753
0.546036
0.550533
0.556441
0.564163
0.574076
0.58641
0.599185
0.609854
0.618179
0.624659
0.629703
0.633479
0.635912
0.636934
0.637086
0.636906
0.525443
0.525498
0.526418
0.528776
0.532799
0.538346
0.54564
0.555154
0.567296
0.582269
0.59765
0.610444
0.620429
0.628245
0.634368
0.638946
0.641824
0.642987
0.643148
0.642949
0.50782
0.507865
0.508997
0.51194
0.516975
0.523941
0.533081
0.544928
0.559873
0.578041
0.59646
0.611674
0.623531
0.632857
0.640165
0.645641
0.648968
0.650247
0.650402
0.650183
0.485933
0.485976
0.487456
0.491282
0.497775
0.50674
0.518411
0.533336
0.55181
0.573808
0.595717
0.613629
0.627554
0.638539
0.647145
0.653557
0.657296
0.658646
0.658778
0.658538
0.458032
0.458095
0.460166
0.465417
0.474176
0.486076
0.501316
0.520332
0.543216
0.569735
0.59557
0.61641
0.632547
0.645296
0.655288
0.662612
0.666667
0.668016
0.668102
0.667843
0.421073
0.421237
0.424522
0.432399
0.444982
0.461367
0.481693
0.506077
0.534355
0.566079
0.596209
0.620134
0.638563
0.65313
0.664515
0.672621
0.676824
0.678074
0.678092
0.677818
0.369223
0.37021
0.376742
0.390016
0.409242
0.432569
0.459909
0.49108
0.525714
0.563216
0.597863
0.624921
0.645633
0.661942
0.674631
0.683276
0.687386
0.688434
0.688375
0.688095
0.293528
0.300845
0.315954
0.339339
0.368466
0.401091
0.437002
0.475986
0.517668
0.561427
0.600907
0.631304
0.654465
0.672664
0.686572
0.695541
0.699408
0.70024
0.700135
0.699889
0.212191
0.229495
0.253973
0.288108
0.327525
0.369578
0.414124
0.461104
0.510213
0.560888
0.606071
0.640582
0.666686
0.687113
0.70238
0.711298
0.714547
0.715101
0.715026
0.714866
0.144388
0.164768
0.196986
0.240258
0.288756
0.339687
0.392602
0.44742
0.503817
0.561213
0.611827
0.650166
0.678988
0.701238
0.717195
0.725722
0.728537
0.729034
0.729022
0.728908
0.0888559
0.110896
0.148642
0.198367
0.254045
0.312462
0.372793
0.43482
0.498073
0.561872
0.61765
0.659589
0.690879
0.714704
0.731352
0.739873
0.742481
0.742974
0.742989
0.742904
0.0426446
0.0658617
0.107401
0.162252
0.223704
0.288306
0.355004
0.423435
0.492966
0.562777
0.623479
0.668855
0.702517
0.72794
0.745395
0.754101
0.756886
0.757293
0.757326
0.757259
0.0034801
0.027354
0.0717667
0.13067
0.196976
0.266841
0.339077
0.413221
0.488504
0.563935
0.62932
0.678011
0.713997
0.740989
0.759393
0.768579
0.771453
0.771896
0.771941
0.771904
-0.0306715
-0.00637469
0.0403015
0.102552
0.172964
0.247415
0.324574
0.40388
0.484453
0.565162
0.63502
0.686924
0.725184
0.753743
0.773073
0.782833
0.785947
0.786417
0.786473
0.786451
-0.0613142
-0.036649
0.0118708
0.0769813
0.15094
0.229414
0.310986
0.395004
0.480507
0.566229
0.640393
0.695406
0.735857
0.765949
0.786194
0.796468
0.799856
0.800413
0.800471
0.80046
-0.0894235
-0.0644299
-0.014335
0.0532447
0.130318
0.212361
0.297911
0.386264
0.476394
0.566905
0.645241
0.703269
0.745827
0.777327
0.798478
0.809258
0.812896
0.813557
0.813593
0.813581
-0.11581
-0.0904419
-0.0389181
0.030807
0.110664
0.195897
0.28505
0.377397
0.471872
0.566988
0.649417
0.710407
0.754999
0.78787
0.809767
0.820946
0.824786
0.825508
0.825524
0.825501
-0.140856
-0.115111
-0.0623175
0.00931964
0.0916604
0.179757
0.272176
0.368205
0.466778
0.566356
0.652841
0.716779
0.763356
0.797466
0.819957
0.831449
0.835418
0.836171
0.836173
0.836134
-0.165
-0.138787
-0.0849606
-0.011465
0.0730834
0.16375
0.25914
0.358566
0.460995
0.564894
0.655441
0.722384
0.770937
0.80619
0.829197
0.840825
0.844799
0.84556
0.845521
0.84546
-0.188378
-0.161711
-0.106856
-0.0317248
0.0547964
0.14777
0.24585
0.348398
0.45444
0.562529
0.657176
0.727236
0.777836
0.814193
0.837559
0.84916
0.853102
0.853823
0.853756
0.853675
-0.211133
-0.184006
-0.128122
-0.0515586
0.0367323
0.131766
0.232262
0.337654
0.447068
0.5592
0.657994
0.731358
0.784156
0.821626
0.84522
0.856666
0.860449
0.861092
0.861008
0.860909
-0.233402
-0.205748
-0.148877
-0.0710088
0.0188508
0.11572
0.218377
0.326341
0.438865
0.554858
0.657841
0.734752
0.790013
0.828685
0.852378
0.863468
0.866974
0.867504
0.867379
0.867263
-0.255228
-0.226948
-0.169172
-0.090086
0.00117057
0.0996502
0.204226
0.314487
0.429841
0.549467
0.656653
0.737393
0.79549
0.835564
0.859247
0.869729
0.872761
0.873114
0.872958
0.872834
-0.276457
-0.247586
-0.188943
-0.108774
-0.0162863
0.0836112
0.189859
0.302152
0.420041
0.543039
0.654357
0.739215
0.800608
0.842475
0.866166
0.875715
0.877962
0.878021
0.877826
0.877708
-0.297077
-0.267642
-0.208184
-0.127031
-0.0334716
0.0676534
0.175357
0.289405
0.409534
0.535587
0.650896
0.7401
0.805317
0.84957
0.873582
0.881968
0.882904
0.882338
0.882081
0.882025
-0.317158
-0.287085
-0.226878
-0.144838
-0.0503285
0.0518529
0.160799
0.276341
0.3984
0.527164
0.64621
0.739895
0.809456
0.85683
0.881931
0.889404
0.888469
0.88647
0.885907
0.886156
-0.336537
-0.305899
-0.244973
-0.162139
-0.0668037
0.0362878
0.146275
0.263066
0.386749
0.517855
0.640274
0.738413
0.812756
0.863953
0.891298
0.899101
0.896631
0.892238
0.889939
0.889763
-0.355307
-0.324076
-0.262489
-0.178968
-0.0829316
0.0209153
0.13173
0.249524
0.374516
0.507589
0.632955
0.735378
0.81492
0.870467
0.90114
0.911471
0.909829
0.902833
0.89519
0.88145
-0.373399
-0.341605
-0.279542
-0.195524
-0.0989912
0.00541265
0.116761
0.23525
0.361186
0.495757
0.623639
0.730055
0.815454
0.875766
0.909908
0.924573
0.924297
0.911105
0.890754
0.879906
-0.390643
-0.35863
-0.295944
-0.211616
-0.11463
-0.00988242
0.101587
0.220559
0.347052
0.482596
0.612354
0.721916
0.813445
0.878654
0.913525
0.928047
0.929934
0.905617
0.8382
0.808076
-0.406378
-0.376414
-0.311383
-0.226765
-0.12905
-0.0244708
0.086527
0.205679
0.332327
0.468221
0.599007
0.710605
0.807363
0.878375
0.906755
0.916237
0.902744
0.847254
0.778077
0.735588
-0.461347
-0.3921
-0.325354
-0.242103
-0.143899
-0.0398316
0.0715077
0.19032
0.316631
0.452153
0.582954
0.695393
0.793179
0.870918
0.873227
0.873478
0.820609
0.748367
0.671055
0.628051
-0.423051
-0.407107
-0.346213
-0.26187
-0.165887
-0.0618617
0.0484511
0.166626
0.29198
0.426166
0.555209
0.666292
0.756771
0.839985
0.823747
0.706628
0.599036
0.524215
0.449917
0.479352
-0.45356
-0.424453
-0.362671
-0.279169
-0.183218
-0.0793109
0.0312735
0.148814
0.273109
0.40552
0.531822
0.638758
0.71957
0.763884
0.713105
0.560682
0.430566
0.337628
0.238085
0.287118
-0.477068
-0.445039
-0.382099
-0.298467
-0.202396
-0.0985961
0.0119014
0.128605
0.251498
0.38151
0.504096
0.604811
0.67665
0.686155
0.576864
0.401585
0.247009
0.126757
-0.00523184
0.0270225
-0.500047
-0.466518
-0.402429
-0.317888
-0.221745
-0.118104
-0.00814062
0.107592
0.228882
0.356102
0.473981
0.566793
0.623134
0.600867
0.439704
0.241462
0.0497914
-0.119137
-0.30826
-0.327462
-0.522439
-0.488477
-0.423518
-0.338212
-0.241942
-0.138534
-0.0292334
0.0853979
0.204819
0.32883
0.441255
0.526033
0.562552
0.503565
0.309099
0.0970091
-0.121265
-0.311201
-0.553497
-0.850606
-0.545132
-0.511173
-0.44569
-0.359912
-0.263471
-0.160244
-0.0515387
0.0619508
0.179383
0.299903
0.406549
0.482767
0.497785
0.387417
0.19539
-0.0159182
-0.221165
-0.394093
-0.463939
-0.542723
-0.569078
-0.535061
-0.469291
-0.383302
-0.286824
-0.183875
-0.0758597
0.0363095
0.151427
0.267909
0.368361
0.433295
0.423143
0.279057
0.0942652
-0.09795
-0.261801
-0.355342
-0.379561
-0.395423
-0.59458
-0.560442
-0.494492
-0.408457
-0.31213
-0.209634
-0.102554
0.0079876
0.120362
0.23215
0.325877
0.376415
0.348466
0.1784
0.0026031
-0.164461
-0.291907
-0.331251
-0.344118
-0.345439
-0.62184
-0.587491
-0.521358
-0.435372
-0.33934
-0.237528
-0.13164
-0.0230645
0.0861226
0.192632
0.278694
0.31484
0.266909
0.0854461
-0.0812557
-0.230862
-0.307591
-0.324638
-0.325999
-0.325819
-0.650918
-0.616273
-0.549916
-0.464049
-0.368472
-0.267546
-0.163123
-0.0568618
0.0487193
0.149426
0.226924
0.251163
0.16708
0.000624528
-0.157807
-0.281063
-0.317801
-0.316174
-0.315267
-0.314667
-0.681533
-0.64661
-0.580066
-0.494403
-0.399442
-0.299636
-0.196972
-0.0933771
0.00819352
0.102643
0.171431
0.178695
0.0763288
-0.0780894
-0.218438
-0.29496
-0.305158
-0.307699
-0.308338
-0.308057
-0.713139
-0.678062
-0.611554
-0.526208
-0.432064
-0.333642
-0.233035
-0.132478
-0.0352674
0.0526347
0.112686
0.104961
-0.00481901
-0.144579
-0.262651
-0.294198
-0.302504
-0.303747
-0.303448
-0.303141
-0.745272
-0.710079
-0.643934
-0.559073
-0.465999
-0.369246
-0.271034
-0.173877
-0.0813776
7.93131e-05
0.0497726
0.03479
-0.0792521
-0.197889
-0.292409
-0.309446
-0.30062
-0.299614
-0.299523
-0.299266
-0.777034
-0.741941
-0.676338
-0.59241
-0.500708
-0.405979
-0.310521
-0.217096
-0.129664
-0.0543768
-0.014512
-0.0297025
-0.144299
-0.237212
-0.292679
-0.302698
-0.299396
-0.297944
-0.2973
-0.297037
-0.806884
-0.77248
-0.707797
-0.625303
-0.535432
-0.443149
-0.350849
-0.26145
-0.179326
-0.110164
-0.0737976
-0.10144
-0.197583
-0.270766
-0.275103
-0.293752
-0.298361
-0.296917
-0.296361
-0.295976
-0.833206
-0.799886
-0.737186
-0.656571
-0.569143
-0.479833
-0.391163
-0.306083
-0.229238
-0.166362
-0.130057
-0.171412
-0.247787
-0.288219
-0.306389
-0.304375
-0.303488
-0.30303
-0.302892
-0.302475
-0.853893
-0.822284
-0.762475
-0.684813
-0.600573
-0.514898
-0.430387
-0.349972
-0.27824
-0.221604
-0.188163
-0.229456
-0.296062
-0.344014
-0.355639
-0.340075
-0.327531
-0.324567
-0.322884
-0.321782
-0.866707
-0.837794
-0.781742
-0.708165
-0.628241
-0.547043
-0.467322
-0.391919
-0.325227
-0.274103
-0.244025
-0.277063
-0.337648
-0.411602
-0.383605
-0.362924
-0.354673
-0.349011
-0.34409
-0.343091
-0.869035
-0.844166
-0.793057
-0.724829
-0.650471
-0.574898
-0.500667
-0.430671
-0.368986
-0.322187
-0.289392
-0.307582
-0.340434
-0.438207
-0.392206
-0.352807
-0.333252
-0.326278
-0.324643
-0.324099
-0.858679
-0.838659
-0.794259
-0.733224
-0.665811
-0.596992
-0.529155
-0.464972
-0.408211
-0.364669
-0.322616
-0.304215
-0.259987
-0.297164
-0.288434
-0.280791
-0.284546
-0.288403
-0.290153
-0.289802
-0.833648
-0.818599
-0.78354
-0.732125
-0.673297
-0.612368
-0.551655
-0.49363
-0.441935
-0.401167
-0.349274
-0.279115
-0.11947
0.0758695
-0.0229872
-0.176432
-0.251757
-0.281944
-0.292267
-0.294758
-0.796504
-0.786806
-0.76172
-0.721692
-0.672922
-0.620795
-0.567602
-0.51573
-0.469252
-0.432436
-0.391089
-0.331215
-0.230352
-0.123004
-0.244837
-0.339058
-0.386415
-0.404731
-0.413135
-0.418199
-0.753985
-0.748484
-0.733671
-0.70473
-0.666601
-0.623037
-0.577098
-0.531099
-0.488789
-0.457377
-0.43686
-0.497786
-0.725108
-1.03895
-1.07083
-0.876577
-0.724561
-0.65147
-0.631879
-0.627522
-0.715944
-0.712631
-0.705625
-0.686678
-0.657216
-0.620884
-0.580953
-0.539303
-0.499433
-0.46875
-0.454144
-0.557972
-0.721862
-0.869504
-0.841924
-0.738467
-0.699097
-0.671307
-0.645578
-0.642444
-0.68898
-0.686965
-0.683431
-0.67178
-0.648578
-0.617145
-0.580853
-0.540675
-0.499393
-0.459053
-0.439674
-0.413681
-0.437404
-0.493133
-0.590626
-0.694859
-0.757738
-0.730188
-0.647942
-0.603717
-0.668532
-0.667803
-0.666667
-0.660885
-0.643236
-0.614754
-0.5788
-0.537985
-0.491833
-0.444298
-0.412739
-0.385371
-0.313445
-0.208181
-0.135669
-0.100531
-0.0909542
-0.0822377
-0.0389998
-0.0112833
-0.656631
-0.656336
-0.655718
-0.653066
-0.640658
-0.613659
-0.576535
-0.532482
-0.482063
-0.426075
-0.372615
-0.330215
-0.16493
0.0785702
0.328993
0.526811
0.588385
0.604177
0.601242
0.598507
-0.648834
-0.648655
-0.64809
-0.64715
-0.639722
-0.614748
-0.57567
-0.526638
-0.46926
-0.399083
-0.324712
-0.238577
-0.0488194
0.222641
0.465976
0.642094
0.749968
0.821607
0.867069
0.885723
-0.644627
-0.644354
-0.643597
-0.643139
-0.639764
-0.618809
-0.57693
-0.522453
-0.455911
-0.378436
-0.286155
-0.18927
0.0386237
0.30344
0.556641
0.764005
0.91418
1.03761
1.1217
1.15377
-0.644539
-0.644539
-0.644537
-0.644435
-0.644733
-0.626502
-0.580991
-0.520533
-0.447898
-0.359726
-0.256556
-0.162296
0.048607
0.346755
0.654838
0.93252
1.15167
1.2976
1.37611
1.4014
-0.644123
-0.645389
-0.648786
-0.654359
-0.657138
-0.635951
-0.586455
-0.523802
-0.446383
-0.3506
-0.246794
-0.145116
0.0319109
0.325654
0.637992
0.915608
1.14411
1.28513
1.34939
1.36651
-0.645804
-0.6467
-0.64532
-0.640194
-0.635937
-0.624508
-0.591401
-0.534271
-0.451565
-0.351004
-0.247898
-0.148028
-0.0195057
0.245405
0.51595
0.753053
0.940326
1.05059
1.0984
1.10981
-0.676968
-0.674149
-0.655256
-0.613839
-0.583856
-0.601275
-0.606784
-0.552032
-0.461806
-0.356502
-0.254941
-0.157266
-0.0551598
0.13495
0.35769
0.540842
0.682932
0.76259
0.795968
0.802234
-0.745353
-0.74281
-0.741253
-0.739486
-0.730902
-0.726437
-0.683092
-0.58634
-0.476575
-0.363662
-0.263514
-0.178074
-0.102774
0.0355584
0.203815
0.342149
0.447975
0.504003
0.52608
0.528692
-0.878982
-0.897272
-0.943221
-0.985642
-0.984406
-0.936227
-0.79669
-0.632428
-0.487941
-0.366816
-0.271989
-0.199082
-0.144687
-0.0451114
0.0775336
0.177358
0.249954
0.287728
0.301434
0.30277
-0.971019
-0.99562
-1.03879
-1.07175
-1.06762
-1.00659
-0.835675
-0.640158
-0.482113
-0.359473
-0.271844
-0.211518
-0.168692
-0.101409
-0.020921
0.0462164
0.0925259
0.115308
0.123359
0.122366
-0.881896
-0.903467
-0.939007
-0.969837
-0.968721
-0.901951
-0.738611
-0.575064
-0.438223
-0.333268
-0.2607
-0.213075
-0.176224
-0.132606
-0.0889571
-0.0562205
-0.0357368
-0.02792
-0.0252889
-0.0258384
-0.599378
-0.618201
-0.652574
-0.68797
-0.698765
-0.650687
-0.550219
-0.447541
-0.359805
-0.289464
-0.237812
-0.202625
-0.171979
-0.149483
-0.133605
-0.125556
-0.125884
-0.128909
-0.129876
-0.130044
-0.248755
-0.259379
-0.281494
-0.31245
-0.338563
-0.342026
-0.328994
-0.300883
-0.268906
-0.236261
-0.21064
-0.190265
-0.17226
-0.162728
-0.160981
-0.16681
-0.177326
-0.183468
-0.184145
-0.183739
0.0103551
0.00521528
-0.00990838
-0.0380683
-0.0783991
-0.121608
-0.153568
-0.174911
-0.183917
-0.184009
-0.183403
-0.184749
-0.182967
-0.176245
-0.17244
-0.176895
-0.184096
-0.187741
-0.187715
-0.187522
0.134567
0.131565
0.120413
0.0952809
0.0538975
0.00231504
-0.0474383
-0.0883426
-0.11759
-0.138392
-0.1576
-0.182025
-0.196932
-0.182387
-0.172262
-0.165358
-0.164492
-0.163435
-0.162596
-0.162772
0.165914
0.163917
0.155748
0.136123
0.10229
0.0582436
0.0112051
-0.032521
-0.0689591
-0.0989309
-0.128268
-0.16507
-0.185806
-0.165257
-0.145468
-0.135902
-0.130749
-0.128628
-0.128241
-0.128815
0.155315
0.153984
0.148397
0.134633
0.110412
0.0775555
0.0396679
0.00187812
-0.0324848
-0.0624233
-0.0897403
-0.118168
-0.12798
-0.113987
-0.102676
-0.0977747
-0.0951738
-0.0944218
-0.0946875
-0.0953045
0.131668
0.130869
0.127311
0.11831
0.102023
0.0790223
0.0510289
0.0216831
-0.00591748
-0.0289772
-0.0438458
-0.0538504
-0.0519152
-0.0493962
-0.0529468
-0.0571018
-0.0596603
-0.061019
-0.0618265
-0.062489
0.106596
0.10621
0.104103
0.0985397
0.0880948
0.0727759
0.053418
0.0324796
0.0129335
-0.00100116
-0.00364039
0.00724348
0.0207764
0.00813563
-0.00836186
-0.0204661
-0.0274037
-0.0307798
-0.0322707
-0.0329512
0.0839181
0.083698
0.0825408
0.0792688
0.0728619
0.0631173
0.0504956
0.0367225
0.0245649
0.0185412
0.0254109
0.0442736
0.0602044
0.0438547
0.0229425
0.00783643
-0.00110886
-0.00560529
-0.00778091
-0.00840722
0.0639555
0.0639005
0.0633252
0.0615801
0.0577841
0.0519546
0.0442692
0.0359893
0.0296744
0.0295699
0.0410693
0.0600795
0.0715807
0.0567547
0.0389617
0.0260672
0.0184738
0.0136345
0.0112643
0.0106792
0.0462589
0.0462881
0.0460688
0.0452164
0.0433036
0.0401153
0.0358334
0.0314566
0.0291289
0.0325452
0.0458227
0.0625612
0.0685606
0.0567825
0.0441534
0.034829
0.029016
0.025197
0.0232659
0.0228305
0.0304163
0.0304739
0.0304279
0.0301759
0.0293384
0.0278431
0.0257439
0.0238099
0.0237326
0.0285912
0.0419199
0.058566
0.0623148
0.0512272
0.041588
0.0359213
0.0325178
0.0300009
0.028706
0.0282951
0.0160008
0.0160671
0.0161237
0.0161277
0.0159423
0.0154443
0.0146977
0.0140548
0.014616
0.0186224
0.0300221
0.0452383
0.0492629
0.0387437
0.0311083
0.0279201
0.0264824
0.0262312
0.0251837
0.0245969
0.00258808
0.0026358
0.00262853
0.00277399
0.0031047
0.0032329
0.00310845
0.00287761
0.00284247
0.00310708
0.00491239
0.0109046
0.019156
0.0221753
0.0146994
0.0123648
0.00998728
0.00694665
0.00592977
0.00568358
-0.0817594
0.08435
0.278082
0.447088
0.581789
0.687448
0.774586
0.848829
0.882796
0.859554
0.218548
0.338587
0.467642
0.579015
0.672699
0.750063
0.81268
0.857176
0.87945
0.891617
0.435754
0.518022
0.606204
0.683963
0.750774
0.806653
0.851111
0.883626
0.907188
0.925233
0.595478
0.654402
0.715483
0.77221
0.821482
0.863344
0.897758
0.925245
0.947941
0.96628
0.720161
0.762983
0.808686
0.85222
0.890697
0.924321
0.953125
0.977124
0.997451
1.01531
0.824013
0.85672
0.89466
0.930036
0.962528
0.991671
1.01715
1.03859
1.0564
1.07376
0.916272
0.944869
0.978726
1.01076
1.04063
1.06774
1.09144
1.11112
1.12661
1.14369
1.00469
1.03383
1.06777
1.09976
1.12931
1.15586
1.1787
1.19716
1.21052
1.22755
1.0999
1.13307
1.16967
1.20322
1.23324
1.2594
1.28133
1.2986
1.31045
1.32785
1.21484
1.25264
1.29126
1.32549
1.35481
1.37955
1.3999
1.41579
1.42724
1.44531
1.35974
1.39827
1.4344
1.46507
1.49074
1.51282
1.53187
1.54739
1.55982
1.57781
1.53479
1.56641
1.59258
1.61502
1.63499
1.6537
1.67142
1.68789
1.70324
1.7213
1.72339
1.74059
1.75562
1.77185
1.78775
1.80228
1.81548
1.82941
1.84695
1.8671
1.90511
1.91464
1.92618
1.93699
1.94627
1.95585
1.96663
1.978
1.98936
2.00471
2.11234
2.116
2.10105
2.08624
2.07996
2.08564
2.10411
2.13442
2.1666
2.19325
2.41866
2.28379
2.20715
2.16477
2.14734
2.15131
2.1787
2.23512
2.33774
2.5621
0.731005
0.728878
0.724394
0.715772
0.703551
0.691426
0.681204
0.673319
0.667716
0.664481
0.664151
0.666912
0.672034
0.679269
0.688665
0.70021
0.712865
0.723902
0.730015
0.73307
0.655453
0.6613
0.667634
0.672129
0.674602
0.674282
0.671552
0.667752
0.664258
0.662018
0.661897
0.664118
0.667799
0.672101
0.675917
0.677806
0.676874
0.673396
0.668234
0.661614
0.647017
0.649313
0.652718
0.655717
0.657796
0.659297
0.66006
0.659755
0.658746
0.657886
0.658088
0.65954
0.661375
0.662695
0.662884
0.662001
0.660457
0.658124
0.654864
0.651944
0.641491
0.642577
0.644412
0.646792
0.64882
0.650254
0.651283
0.652047
0.652467
0.652715
0.653237
0.654072
0.654691
0.654773
0.654372
0.653531
0.652068
0.649988
0.647905
0.646523
0.636268
0.636931
0.63804
0.639748
0.641534
0.643172
0.644477
0.645508
0.646411
0.647231
0.647995
0.648579
0.648796
0.648648
0.648094
0.647048
0.645628
0.64409
0.642775
0.641996
0.631267
0.631727
0.632514
0.633815
0.635307
0.636832
0.638308
0.639622
0.640781
0.64187
0.642826
0.643431
0.643605
0.643352
0.64267
0.641692
0.640576
0.63945
0.638539
0.638023
0.626406
0.62675
0.627362
0.628434
0.629734
0.631116
0.632567
0.634031
0.63543
0.636749
0.637906
0.638641
0.638852
0.638602
0.638022
0.63726
0.63642
0.635562
0.634895
0.634518
0.621632
0.621899
0.622394
0.623306
0.624482
0.625787
0.627196
0.628705
0.630275
0.631839
0.633241
0.634162
0.634504
0.634415
0.634046
0.633504
0.63287
0.632241
0.631756
0.631468
0.616862
0.617074
0.617485
0.618288
0.619384
0.620642
0.622043
0.623601
0.625307
0.627112
0.628808
0.629997
0.630584
0.63074
0.630605
0.630287
0.629862
0.629426
0.629081
0.628856
0.612006
0.612177
0.61253
0.613259
0.61431
0.615548
0.616978
0.618623
0.620489
0.622555
0.624601
0.626154
0.62707
0.627518
0.627639
0.627554
0.627344
0.627084
0.626855
0.626676
0.606977
0.607115
0.607426
0.608111
0.609146
0.61041
0.611909
0.613682
0.615763
0.618145
0.620619
0.622625
0.623936
0.624723
0.625136
0.6253
0.625303
0.625213
0.625084
0.62494
0.601684
0.601795
0.602078
0.602744
0.603798
0.605132
0.606744
0.6087
0.611063
0.613847
0.616847
0.619398
0.621175
0.622355
0.623098
0.623534
0.62376
0.623842
0.623799
0.623682
0.596029
0.596116
0.596384
0.597055
0.598164
0.599611
0.60139
0.603599
0.606322
0.609612
0.613259
0.616463
0.618792
0.620428
0.621544
0.622299
0.622774
0.623017
0.623051
0.622955
0.589903
0.58997
0.59023
0.59093
0.592131
0.593739
0.595749
0.598288
0.601471
0.605393
0.609829
0.613818
0.616804
0.618975
0.620521
0.621632
0.622381
0.6228
0.622908
0.622829
0.583175
0.583222
0.583485
0.584235
0.585569
0.587393
0.589709
0.59267
0.596435
0.601137
0.606531
0.611464
0.61523
0.618035
0.620085
0.621595
0.622663
0.623272
0.623453
0.623387
0.57569
0.575719
0.575987
0.57681
0.578322
0.580427
0.583133
0.586632
0.591124
0.596785
0.603343
0.609409
0.6141
0.61765
0.6203
0.622289
0.623717
0.624529
0.624781
0.624725
0.567246
0.567261
0.567534
0.568456
0.570203
0.572654
0.575862
0.580042
0.585439
0.592278
0.600246
0.607665
0.613453
0.617879
0.621237
0.623797
0.625633
0.626672
0.626996
0.626948
0.557541
0.557526
0.557856
0.55892
0.560953
0.563861
0.567708
0.572742
0.57927
0.587559
0.597231
0.606256
0.613338
0.618797
0.622983
0.626213
0.628523
0.629806
0.630203
0.630158
0.546275
0.546236
0.546612
0.54787
0.550275
0.553773
0.55843
0.564548
0.57249
0.582565
0.594289
0.605216
0.613809
0.620477
0.625636
0.629633
0.632488
0.634034
0.6345
0.634454
0.532964
0.532897
0.533353
0.534865
0.537756
0.542022
0.547731
0.55524
0.564967
0.577241
0.591426
0.604586
0.614929
0.622987
0.629279
0.634159
0.63762
0.639437
0.639964
0.639912
0.516951
0.516856
0.517438
0.519303
0.522847
0.52814
0.535244
0.544567
0.556567
0.571553
0.588673
0.604423
0.616762
0.6264
0.633977
0.639857
0.643975
0.646059
0.646631
0.646565
0.497296
0.497174
0.497958
0.500341
0.504802
0.511524
0.520532
0.532273
0.547197
0.565526
0.586108
0.604812
0.619391
0.630788
0.639772
0.646768
0.651563
0.653881
0.65447
0.654384
0.472568
0.47243
0.473551
0.476735
0.482587
0.491399
0.503108
0.518138
0.536836
0.559253
0.583859
0.605862
0.622886
0.636192
0.646701
0.654873
0.66031
0.662794
0.663363
0.663249
0.440447
0.440332
0.442067
0.446641
0.454801
0.466872
0.482543
0.502088
0.525615
0.552939
0.58212
0.607713
0.627325
0.642644
0.654743
0.664089
0.670041
0.672576
0.673077
0.672928
0.396761
0.39681
0.399895
0.407365
0.419808
0.437189
0.458727
0.484356
0.513895
0.546943
0.581163
0.610531
0.632792
0.650138
0.663809
0.674227
0.680454
0.682868
0.683251
0.683068
0.333698
0.334913
0.342454
0.356384
0.376654
0.402485
0.432286
0.465663
0.502317
0.541739
0.581278
0.614465
0.639327
0.658612
0.6737
0.684873
0.691075
0.69313
0.693344
0.69314
0.258958
0.26074
0.275172
0.29909
0.330317
0.366128
0.404935
0.446561
0.490824
0.537247
0.582904
0.620756
0.648908
0.670593
0.687306
0.699172
0.705125
0.70688
0.707052
0.706938
0.18187
0.188094
0.209403
0.243595
0.285251
0.330747
0.378521
0.428443
0.480389
0.533913
0.585848
0.628493
0.65999
0.684133
0.702653
0.714799
0.720065
0.721328
0.721437
0.721396
0.118798
0.127342
0.153224
0.194451
0.244279
0.298031
0.353889
0.411576
0.470866
0.531238
0.589184
0.636335
0.670928
0.697188
0.716782
0.729058
0.734104
0.735246
0.735371
0.73539
0.0675017
0.0766434
0.106081
0.152556
0.208551
0.268964
0.331666
0.396217
0.462207
0.528983
0.592639
0.644082
0.681577
0.709843
0.73068
0.743315
0.748138
0.749317
0.749533
0.749597
0.0245915
0.0340134
0.0659021
0.116381
0.177441
0.243381
0.311885
0.382436
0.454464
0.527175
0.596227
0.651775
0.692079
0.722304
0.744323
0.757442
0.76251
0.763931
0.764147
0.764242
-0.0123015
-0.0027735
0.0309502
0.0846346
0.149885
0.220542
0.294111
0.369994
0.447508
0.525715
0.599863
0.659352
0.702389
0.734562
0.757909
0.771709
0.777166
0.77869
0.778937
0.779026
-0.0448569
-0.0353002
-0.000171097
0.0562205
0.124984
0.199715
0.277772
0.358456
0.440998
0.524342
0.603347
0.666637
0.712325
0.746377
0.770924
0.785583
0.791458
0.793106
0.79334
0.793407
-0.0743656
-0.0647777
-0.0284963
0.0302312
0.102008
0.180306
0.262356
0.347401
0.434602
0.522804
0.606472
0.67344
0.721693
0.757534
0.783301
0.798636
0.805001
0.806772
0.807011
0.80706
-0.101717
-0.0920908
-0.054811
0.00594965
0.0804018
0.161861
0.247488
0.336513
0.428047
0.520855
0.609034
0.679595
0.73033
0.767888
0.794735
0.810745
0.817523
0.819376
0.819604
0.819622
-0.127484
-0.117802
-0.0795885
-0.0171137
0.0597519
0.144036
0.232889
0.325547
0.421109
0.518308
0.610899
0.685019
0.738189
0.777381
0.805238
0.821701
0.828764
0.830704
0.83092
0.830897
-0.152165
-0.142344
-0.103265
-0.0392536
0.0397759
0.126582
0.218348
0.314327
0.41365
0.515041
0.611967
0.689667
0.745271
0.786027
0.814753
0.831588
0.838767
0.840726
0.840941
0.840892
-0.17603
-0.166001
-0.12619
-0.0606701
0.0202811
0.109337
0.203735
0.302753
0.405566
0.510956
0.612162
0.69351
0.751615
0.793914
0.823393
0.840447
0.84761
0.849539
0.849724
0.849661
-0.199191
-0.188964
-0.148415
-0.0815097
0.0011464
0.0922224
0.188981
0.290756
0.396794
0.505977
0.611421
0.696536
0.757282
0.801183
0.831307
0.848422
0.855481
0.857317
0.857457
0.857365
-0.221832
-0.211318
-0.170029
-0.101863
-0.0176848
0.0751892
0.174054
0.278317
0.387315
0.500072
0.609682
0.698721
0.762336
0.807974
0.838704
0.855715
0.862515
0.864198
0.864284
0.864171
-0.243906
-0.233132
-0.191138
-0.121783
-0.0362299
0.0582366
0.158975
0.265458
0.377137
0.493218
0.606891
0.700017
0.766826
0.814449
0.845781
0.862479
0.868835
0.870279
0.870282
0.870147
-0.265487
-0.254421
-0.211677
-0.141262
-0.0544784
0.0413883
0.143776
0.252228
0.366302
0.485424
0.603002
0.700357
0.770748
0.820739
0.852795
0.868972
0.874558
0.875607
0.875515
0.87537
-0.286417
-0.275128
-0.231645
-0.160261
-0.0723919
0.0247075
0.128514
0.238687
0.354871
0.476735
0.597983
0.699653
0.774035
0.826927
0.860064
0.875608
0.880018
0.880344
0.880077
0.879947
-0.306835
-0.295214
-0.251037
-0.178771
-0.0899447
0.00822732
0.113274
0.224909
0.342924
0.467223
0.591833
0.697796
0.77655
0.832972
0.867853
0.883021
0.885882
0.88482
0.884068
0.883963
-0.326584
-0.314659
-0.269828
-0.196753
-0.107063
-0.00797181
0.0981331
0.211011
0.330567
0.456943
0.58458
0.694671
0.77809
0.83867
0.876182
0.891912
0.893488
0.890258
0.887934
0.887154
-0.345726
-0.33351
-0.287967
-0.21416
-0.123716
-0.0238241
0.0831721
0.197068
0.317905
0.446026
0.576285
0.690162
0.778407
0.843636
0.884587
0.902447
0.904436
0.899575
0.893176
0.885082
-0.364182
-0.351724
-0.30555
-0.231147
-0.140108
-0.0395958
0.0680657
0.182695
0.304508
0.433994
0.566443
0.68375
0.777053
0.847593
0.892504
0.914084
0.919192
0.914141
0.9033
0.89851
-0.381905
-0.369226
-0.322561
-0.247688
-0.15625
-0.0552813
0.0528239
0.167869
0.290326
0.42072
0.554841
0.675025
0.773211
0.84975
0.897999
0.922704
0.930053
0.928239
0.890161
0.838439
-0.398612
-0.385238
-0.338851
-0.263715
-0.172243
-0.0710413
0.0373892
0.152703
0.275407
0.40625
0.541385
0.663707
0.765713
0.849451