/*--------------------------------*- C++ -*----------------------------------*\
  =========                 |
  \\      /  F ield         | OpenFOAM: The Open Source CFD Toolbox
   \\    /   O peration     | Website:  https://openfoam.org
    \\  /    A nd           | Version:  10
     \\/     M anipulation  |
\*---------------------------------------------------------------------------*/
FoamFile
{
    format      ascii;
    class       surfaceScalarField;
    location    "64";
    object      phi;
}
// * * * * * * * * * * * * * * * * * * * * * * * * * * * * * * * * * * * * * //

dimensions      [0 3 -1 0 0 0 0];

internalField   nonuniform List<scalar> 
17370
(
-0.0916063
0.0960093
0.284608
-0.0775945
0.0594197
0.36495
-0.0430419
0.031622
0.427588
-0.0223182
0.0162658
0.505304
-0.0116732
0.00880002
0.602275
-0.00658965
0.00510529
0.720542
-0.00386872
0.00298849
0.863787
-0.00221535
0.00163675
1.03603
-0.00110458
0.000682862
1.24292
-0.000270701
-0.000123925
1.49159
0.000513076
-0.000928004
1.49161
0.00133352
-0.00183866
1.2432
0.00238855
-0.00312995
1.03638
0.0039855
-0.00520277
0.864124
0.00667597
-0.00887713
0.721259
0.0117403
-0.016318
0.603792
0.0223547
-0.0316411
0.508726
0.043042
-0.0594086
0.432535
0.0775875
-0.0960029
0.365191
0.0916212
0.19739
-0.127092
0.0880243
0.0390679
-0.364357
0.354032
-0.0714739
0.0817991
-0.446654
0.454256
-0.0791682
0.071566
-0.521012
0.529112
-0.0637119
0.055612
-0.612992
0.620762
-0.0482242
0.0404542
-0.727165
0.733686
-0.0338419
0.0273207
-0.867582
0.872435
-0.0221161
0.0172626
-1.03857
1.04191
-0.0135627
0.0102215
-1.24472
1.24713
-0.0076686
0.00526008
-1.49284
1.49486
-0.00329326
0.00127579
-1.49269
1.49452
0.000546251
-0.00236871
-1.2441
1.24602
0.00434433
-0.00625751
-1.03761
1.04008
0.00859369
-0.0110717
-0.866186
0.869811
0.0143273
-0.0179525
-0.724593
0.729744
0.0227352
-0.0278866
-0.609063
0.615631
0.0343576
-0.0409254
-0.515122
0.522456
0.0486437
-0.055978
-0.43988
0.447656
0.0639981
-0.0717739
-0.374705
0.377355
0.0792651
-0.0819149
-0.256895
0.224432
0.0715644
-0.0391013
-0.0688138
0.0592035
0.00961035
-0.0520993
0.0589232
-0.37484
0.368017
-0.0580736
0.05423
-0.453949
0.457793
-0.0487419
0.0441815
-0.527621
0.532182
-0.0396304
0.0357332
-0.620806
0.624703
-0.0315182
0.0275204
-0.734665
0.738662
-0.0231599
0.0192688
-0.873961
0.877852
-0.0152192
0.0117581
-1.04337
1.04683
-0.00823396
0.00519714
-1.24866
1.25169
-0.00198517
-0.000999643
-1.49695
1.49993
0.00396212
-0.00711287
-1.49742
1.50057
0.0100597
-0.0134608
-1.25006
1.25346
0.0167953
-0.0206984
-1.04564
1.04955
0.0244598
-0.0286918
-0.877129
0.881361
0.0325865
-0.0367003
-0.738975
0.743089
0.0405143
-0.0449836
-0.625963
0.630432
0.0494756
-0.0548966
-0.53501
0.540431
0.0586622
-0.0594194
-0.458069
0.458826
0.0524669
-0.0320722
-0.336753
0.316359
0.00967583
-0.0686558
0.0589799
-0.0534162
0.0493066
0.00410952
-0.03323
0.0436475
-0.358575
0.348157
-0.0473184
0.0467282
-0.459588
0.460179
-0.0437969
0.040582
-0.536142
0.539357
-0.0369024
0.0335451
-0.628407
0.631764
-0.0299078
0.0266626
-0.742047
0.745292
-0.0232042
0.0200013
-0.881351
0.884554
-0.0164019
0.0130442
-1.05026
1.05362
-0.00933863
0.00592836
-1.25496
1.25837
-0.0021321
-0.00148818
-1.50328
1.50691
0.00507642
-0.00877976
-1.50406
1.50776
0.0120632
-0.0155947
-1.25702
1.26055
0.0187732
-0.0221648
-1.05325
1.05664
0.0251832
-0.0284579
-0.884965
0.88824
0.0315548
-0.0350464
-0.746766
0.750258
0.0382807
-0.0418325
-0.634547
0.638099
0.0449367
-0.0477437
-0.544569
0.547376
0.0482049
-0.0443549
-0.456936
0.453086
0.0337173
-0.0163908
-0.297031
0.279705
0.00418203
-0.0531269
0.0489449
-0.0461396
0.0435866
0.00255299
-0.0230292
0.0333693
-0.337574
0.327234
-0.0390945
0.0400374
-0.459934
0.458991
-0.0387809
0.0364488
-0.542017
0.544349
-0.033802
0.0312511
-0.634738
0.637289
-0.0282683
0.0254143
-0.748383
0.751237
-0.0221692
0.0191484
-0.887616
0.890637
-0.0157894
0.0126479
-1.0568
1.05994
-0.00908292
0.005676
-1.26177
1.26517
-0.00175941
-0.00204182
-1.51064
1.51444
0.00580158
-0.00959279
-1.51154
1.51533
0.0128317
-0.0161681
-1.264
1.26733
0.0190742
-0.0221612
-1.05984
1.06293
0.024938
-0.0279357
-0.891429
0.894426
0.0305865
-0.0333679
-0.75343
0.756211
0.0357504
-0.0382266
-0.641045
0.643521
0.0404126
-0.0414771
-0.549203
0.550268
0.0403341
-0.0343168
-0.447949
0.441932
0.0236554
-0.0103898
-0.264501
0.251236
0.00264296
-0.0456966
0.0430537
-0.0414712
0.039674
0.00179713
-0.0169214
0.0261935
-0.317377
0.308104
-0.0327763
0.0348869
-0.457438
0.455328
-0.0344437
0.0327378
-0.546385
0.548091
-0.0305021
0.0283664
-0.639607
0.641743
-0.0259194
0.0235317
-0.753846
0.756234
-0.0207061
0.0179495
-0.893502
0.896259
-0.014754
0.0117093
-1.06299
1.06604
-0.0082339
0.00490983
-1.2685
1.27183
-0.00106285
-0.00268866
-1.51821
1.52196
0.00638666
-0.0100752
-1.51907
1.52276
0.0131857
-0.0163709
-1.2706
1.27378
0.0191163
-0.0219631
-1.06595
1.0688
0.024404
-0.0269093
-0.897201
0.899706
0.0290352
-0.0312245
-0.758642
0.760831
0.0331459
-0.0351616
-0.645738
0.647754
0.0366548
-0.0368358
-0.550838
0.551019
0.0344176
-0.0274069
-0.435323
0.428312
0.0177038
-0.00749381
-0.23964
0.22943
0.00190734
-0.0408389
0.0389316
-0.0381279
0.0367802
0.00134772
-0.0129175
0.0208995
-0.29948
0.291498
-0.0276489
0.030557
-0.452785
0.449877
-0.0307517
0.0296167
-0.549538
0.550673
-0.0276069
0.0256696
-0.64381
0.645747
-0.0234448
0.0212911
-0.758487
0.760641
-0.0187692
0.0162879
-0.89882
0.901301
-0.0133538
0.0104859
-1.06895
1.07181
-0.00714347
0.00391675
-1.27507
1.27829
-0.000174859
-0.00346032
-1.52563
1.52927
0.00702926
-0.0105723
-1.52636
1.52991
0.0135325
-0.0165126
-1.27689
1.27987
0.0190055
-0.0215017
-1.07151
1.07401
0.0235871
-0.0257066
-0.902007
0.904126
0.027529
-0.0294257
-0.76286
0.764757
0.0310917
-0.0328376
-0.649611
0.651357
0.0336618
-0.0331013
-0.550831
0.55027
0.0297533
-0.0224175
-0.421081
0.413746
0.013882
-0.00579665
-0.220383
0.212298
0.00148208
-0.0372641
0.035782
-0.0356035
0.0345668
0.00103664
-0.0100879
0.0168414
-0.284154
0.2774
-0.0233368
0.0267043
-0.446718
0.44335
-0.0274735
0.0267692
-0.551584
0.552289
-0.0249911
0.0231959
-0.647652
0.649447
-0.0211195
0.0191
-0.762727
0.764746
-0.0167241
0.0143926
-0.903644
0.905976
-0.0116501
0.00896117
-1.07453
1.07722
-0.00579824
0.00271237
-1.28141
1.2845
0.000888573
-0.00438802
-1.53281
1.53631
0.00780469
-0.0111601
-1.53335
1.5367
0.0139148
-0.0166286
-1.28273
1.28544
0.0188549
-0.0210567
-1.07639
1.0786
0.0228988
-0.0247763
-0.906137
0.908015
0.0263856
-0.0280555
-0.76653
0.7682
0.0295149
-0.0309295
-0.652955
0.654369
0.0312466
-0.0299579
-0.549361
0.548072
0.0259846
-0.0187178
-0.406419
0.399152
0.0112693
-0.00467351
-0.205028
0.198432
0.00119999
-0.0344577
0.0332577
-0.0336566
0.0328501
0.000806446
-0.00799011
0.0136671
-0.271213
0.265536
-0.0196827
0.0232524
-0.43987
0.4363
-0.024502
0.024045
-0.552899
0.553356
-0.0225389
0.0208533
-0.651235
0.652921
-0.0188733
0.0169434
-0.766719
0.768649
-0.0146685
0.0124323
-0.908197
0.910433
-0.00979818
0.00722317
-1.07977
1.08235
-0.00420628
0.00126112
-1.28746
1.29041
0.00217518
-0.00550939
-1.5397
1.54303
0.00874339
-0.0118797
-1.53993
1.54307
0.0144187
-0.0168892
-1.28804
1.29051
0.0188994
-0.0208701
-1.08074
1.08271
0.0225039
-0.0241649
-0.909803
0.911464
0.0255898
-0.0270688
-0.769766
0.771245
0.0283353
-0.0293711
-0.655574
0.65661
0.0293163
-0.0273577
-0.546454
0.544495
0.0229787
-0.0159739
-0.392013
0.385008
0.00943406
-0.00389738
-0.192417
0.18688
0.00100502
-0.0321679
0.0311629
-0.0321414
0.0315127
0.000628661
-0.00637399
0.0111305
-0.260346
0.255589
-0.0165584
0.0201327
-0.432725
0.429151
-0.0217089
0.0214782
-0.553733
0.553963
-0.0202055
0.0185822
-0.654621
0.656245
-0.0166591
0.0147796
-0.77055
0.772429
-0.0125655
0.010391
-0.912567
0.914741
-0.00783111
0.00533159
-1.08481
1.08731
-0.00241096
-0.00041824
-1.29324
1.29607
0.00370791
-0.0068741
-1.54625
1.54941
0.00991605
-0.0128352
-1.54607
1.54899
0.0151766
-0.0174332
-1.29288
1.29513
0.0192463
-0.0209982
-1.08465
1.0864
0.0224365
-0.0238993
-0.913048
0.914511
0.0251598
-0.0264667
-0.77263
0.773937
0.0275874
-0.0282057
-0.657427
0.658046
0.0277808
-0.0252589
-0.542272
0.53975
0.0206312
-0.0139563
-0.378178
0.371503
0.00813555
-0.00335612
-0.181761
0.176982
0.000869867
-0.0302362
0.0293663
-0.0309635
0.0304786
0.000484889
-0.00507471
0.00903747
-0.251255
0.247292
-0.0138318
0.0172611
-0.425655
0.422225
-0.0190238
0.0189851
-0.554137
0.554175
-0.0179111
0.0163237
-0.657913
0.659501
-0.0144255
0.0125631
-0.774293
0.776155
-0.0103692
0.00821978
-0.91682
0.918969
-0.00569865
0.00324777
-1.0897
1.09215
-0.000398239
-0.00235416
-1.29879
1.30155
0.0055206
-0.00853709
-1.55246
1.55548
0.0114032
-0.0141216
-1.55178
1.5545
0.0162756
-0.0183233
-1.29729
1.29934
0.0199431
-0.0214821
-1.08813
1.08967
0.0227356
-0.0240169
-0.915906
0.917187
0.0251287
-0.0262768
-0.775154
0.776302
0.0272079
-0.0274463
-0.658466
0.658705
0.0266255
-0.0236265
-0.537005
0.534007
0.018849
-0.0124972
-0.365009
0.358658
0.00722492
-0.00298331
-0.172504
0.168263
0.000778309
-0.0285522
0.0277739
-0.0300609
0.0296975
0.000363427
-0.00398727
0.00725288
-0.2437
0.240434
-0.0114014
0.0145752
-0.418935
0.415761
-0.0163978
0.0165135
-0.554182
0.554067
-0.0155247
0.0140106
-0.661126
0.66264
-0.0121091
0.0102311
-0.778014
0.779892
-0.00801988
0.00586134
-0.921028
0.923187
-0.00334311
0.000908216
-1.0945
1.09693
0.00190657
-0.00460126
-1.3042
1.3069
0.00767355
-0.0105642
-1.55839
1.56128
0.0132732
-0.015803
-1.55709
1.55962
0.0177744
-0.0196164
-1.30128
1.30313
0.0210463
-0.0223758
-1.09122
1.09255
0.023448
-0.0245541
-0.918407
0.919513
0.0255224
-0.0265029
-0.777356
0.778337
0.027177
-0.0271247
-0.658815
0.658762
0.0258713
-0.0224494
-0.530811
0.527389
0.0175671
-0.0114845
-0.352467
0.346384
0.00661063
-0.00273848
-0.164236
0.160364
0.000720227
-0.0270346
0.0263144
-0.0293939
0.0291387
0.000255244
-0.0030352
0.00567199
-0.237503
0.234866
-0.00917494
0.0120104
-0.412773
0.409938
-0.0137795
0.0139789
-0.55396
0.55376
-0.0130338
0.0115655
-0.664213
0.665681
-0.00963911
0.00771735
-0.781774
0.783696
-0.00545412
0.00325274
-0.925258
0.927459
-0.000699415
-0.0017564
-1.09927
1.10173
0.00457179
-0.00724135
-1.3095
1.31217
0.0102496
-0.0130394
-1.56407
1.56686
0.0156094
-0.0179618
-1.56203
1.56438
0.0197575
-0.0213997
-1.30487
1.30651
0.0226411
-0.0237573
-1.09391
1.09502
0.0246436
-0.0255721
-0.920559
0.921487
0.0263964
-0.0272033
-0.779214
0.780021
0.0275871
-0.0272568
-0.658567
0.658237
0.0255549
-0.0217244
-0.523782
0.519952
0.0167385
-0.0108425
-0.34043
0.334535
0.00623343
-0.00259525
-0.156639
0.153001
0.000688835
-0.0256204
0.0249316
-0.0289398
0.0287872
0.000152598
-0.00215447
0.00420144
-0.232542
0.230495
-0.0070542
0.00948104
-0.407326
0.404899
-0.0110882
0.0112923
-0.553618
0.553414
-0.0103579
0.00889756
-0.667244
0.668705
-0.00691951
0.00492385
-0.785627
0.787622
-0.00257253
0.000296247
-0.929575
0.931851
0.00233495
-0.00484423
-1.1041
1.10661
0.00769678
-0.0103718
-1.31476
1.31744
0.0133446
-0.0160525
-1.56956
1.57226
0.0184947
-0.0206751
-1.5666
1.56878
0.0222971
-0.02374
-1.30804
1.30948
0.0247884
-0.0256766
-1.09619
1.09708
0.0263617
-0.0270978
-0.922345
0.923081
0.0277708
-0.0284341
-0.780712
0.781375
0.0285053
-0.0278003
-0.657689
0.656984
0.0256531
-0.0214195
-0.515964
0.51173
0.0163071
-0.0105061
-0.32873
0.322929
0.00604622
-0.00253263
-0.149456
0.145942
0.000678531
-0.0242592
0.0235807
-0.0286905
0.0286416
4.88629e-05
-0.0012965
0.00276879
-0.228751
0.227278
-0.00495787
0.00691304
-0.40273
0.400775
-0.008255
0.00838137
-0.553321
0.553194
-0.00741053
0.00592056
-0.670299
0.671789
-0.00385196
0.00175016
-0.789631
0.791733
0.000726775
-0.00311938
-0.934045
0.936438
0.00586456
-0.00846496
-1.10903
1.11163
0.011394
-0.0141078
-1.32004
1.32276
0.0170754
-0.0197218
-1.57488
1.57753
0.0220478
-0.024059
-1.57084
1.57285
0.0255043
-0.0267421
-1.3108
1.31203
0.0275915
-0.0282476
-1.09806
1.09872
0.0287235
-0.0292523
-0.923746
0.924275
0.0297607
-0.0302176
-0.78185
0.782307
0.0299981
-0.0288532
-0.656045
0.6549
0.0262196
-0.0215511
-0.507349
0.50268
0.0162575
-0.0104455
-0.317177
0.311365
0.00602605
-0.00254054
-0.142477
0.138991
0.000686807
-0.0229105
0.0222237
-0.0286486
0.0287098
-6.1261e-05
-0.000414775
0.00130789
-0.226109
0.225216
-0.00280602
0.00422472
-0.39911
0.397691
-0.00519892
0.00516331
-0.553237
0.553272
-0.00410084
0.00253028
-0.673464
0.675035
-0.000340119
-0.00190678
-0.793852
0.796099
0.00455734
-0.00710588
-0.938747
0.941295
0.0100143
-0.0127482
-1.11416
1.11689
0.0157969
-0.0185847
-1.3254
1.32819
0.0215805
-0.024189
-1.58009
1.5827
0.0264124
-0.0282572
-1.57473
1.57657
0.0295189
-0.0305369
-1.31312
1.31414
0.0311719
-0.0315839
-1.09948
1.09989
0.0318415
-0.0321483
-0.924729
0.925035
0.0324673
-0.0326465
-0.782462
0.782641
0.0321429
-0.0304445
-0.653529
0.651831
0.0272851
-0.0221328
-0.49787
0.492718
0.0165823
-0.0106437
-0.305553
0.299615
0.00615913
-0.00261246
-0.135512
0.131965
0.000711826
-0.0215377
0.0208259
-0.028827
0.0290033
-0.000176319
0.000507521
-0.000227198
-0.22464
0.224359
-0.000529612
0.00133308
-0.396592
0.395789
-0.00182763
0.0015454
-0.553543
0.553826
-0.000331489
-0.00139331
-0.67685
0.678575
0.00376605
-0.00620696
-0.798372
0.800813
0.0090817
-0.0118339
-0.943764
0.946516
0.014956
-0.0178676
-1.11956
1.12247
0.0210804
-0.0239767
-1.33092
1.33382
0.0270285
-0.0296121
-1.58523
1.58781
0.031733
-0.0334025
-1.57827
1.57994
0.0344728
-0.0352533
-1.31499
1.31577
0.0356616
-0.0358162
-1.10041
1.10056
0.0358392
-0.0359067
-0.925253
0.92532
0.0360286
-0.035849
-0.782443
0.782263
0.0349662
-0.0326604
-0.649955
0.64765
0.0289037
-0.0231842
-0.48741
0.48169
0.017278
-0.0110872
-0.293622
0.287431
0.00643345
-0.00274202
-0.128385
0.124693
0.000751543
-0.0201085
0.019357
-0.0292611
0.0295818
-0.000320704
0.00151882
-0.00188159
-0.224428
0.22479
0.00197235
-0.00189443
-0.395305
0.395227
0.00201054
-0.00264997
-0.554462
0.555101
0.00409378
-0.00601272
-0.680602
0.682521
0.00862147
-0.0113078
-0.803279
0.805965
0.014466
-0.0174769
-0.94919
0.952201
0.0208727
-0.0240136
-1.12532
1.12846
0.0274402
-0.0304813
-1.33666
1.3397
0.033616
-0.0361859
-1.59031
1.59288
0.0382001
-0.039672
-1.58145
1.58292
0.040531
-0.0410638
-1.31634
1.31687
0.04123
-0.0411025
-1.1008
1.10067
0.0408656
-0.0406734
-0.925266
0.925074
0.0405895
-0.0399373
-0.78165
0.780997
0.0385968
-0.0355911
-0.645194
0.642189
0.0311406
-0.024737
-0.475786
0.469383
0.0183524
-0.0117713
-0.281127
0.274546
0.0068426
-0.00292529
-0.120931
0.117014
0.000804625
-0.0185942
0.0177895
-0.0299726
0.0304709
-0.000498256
0.00280613
-0.00392522
-0.225546
0.226665
0.00488377
-0.00560658
-0.395472
0.396195
0.00644029
-0.00754446
-0.556214
0.557318
0.00930577
-0.0114951
-0.684821
0.687011
0.0144203
-0.0174223
-0.808682
0.811684
0.0209389
-0.024275
-0.955142
0.958478
0.028012
-0.0314373
-1.13156
1.13498
0.0351283
-0.0383493
-1.3427
1.34592
0.0415897
-0.0441493
-1.59536
1.59792
0.0460439
-0.0472977
-1.58421
1.58547
0.0478983
-0.0481592
-1.31713
1.31739
0.0480578
-0.0476229
-1.10058
1.10014
0.0471044
-0.0466334
-0.924701
0.92423
0.0462287
-0.0451254
-0.779927
0.778824
0.043184
-0.0393343
-0.639046
0.635196
0.0340537
-0.026812
-0.462754
0.455513
0.0198036
-0.012684
-0.26779
0.260671
0.00737451
-0.00315493
-0.112991
0.108772
0.000868404
-0.0169694
0.016101
-0.031037
0.0317573
-0.000720303
0.00431013
-0.0063207
-0.228195
0.230205
0.00834035
-0.00997456
-0.397301
0.398935
0.0116359
-0.0133224
-0.559063
0.560749
0.0155378
-0.0180972
-0.689671
0.69223
0.0214465
-0.0248498
-0.814726
0.81813
0.0288136
-0.0325492
-0.961752
0.965488
0.0367
-0.040465
-1.13836
1.14213
0.0444656
-0.0478893
-1.34909
1.35251
0.0512375
-0.0537669
-1.60037
1.6029
0.0555055
-0.0564967
-1.58652
1.58751
0.056802
-0.0567466
-1.31731
1.31726
0.0563441
-0.0555671
-1.09969
1.09892
0.054739
-0.0539498
-0.923507
0.922718
0.0531417
-0.0515245
-0.777307
0.77569
0.0488405
-0.0439801
-0.631224
0.626363
0.0376974
-0.0294248
-0.447993
0.439721
0.0216239
-0.0138072
-0.25331
0.245494
0.00801202
-0.00342071
-0.104415
0.0998236
0.000939258
-0.0152142
0.0142749
-0.0325384
0.0335467
-0.00100822
0.00619213
-0.00925894
-0.232622
0.235689
0.0125551
-0.0152506
-0.401062
0.403757
0.0178828
-0.0202774
-0.563289
0.565683
0.0230886
-0.026139
-0.695363
0.698414
0.0300427
-0.033953
-0.821585
0.825496
0.0384674
-0.0426866
-0.969173
0.973393
0.0473295
-0.0514874
-1.14586
1.15002
0.0558301
-0.0594604
-1.35587
1.3595
0.062892
-0.0653438
-1.60529
1.60774
0.0668657
-0.0675212
-1.58826
1.58892
0.0674698
-0.06703
-1.31672
1.31628
0.0662965
-0.0651339
-1.09806
1.0969
0.0639547
-0.062852
-0.921611
0.920509
0.0615158
-0.0592898
-0.773652
0.771426
0.0557041
-0.0496049
-0.621374
0.615274
0.0420954
-0.0325559
-0.431109
0.421569
0.0237732
-0.015098
-0.237371
0.228696
0.00872166
-0.00370469
-0.0950714
0.0900544
0.00101123
-0.0133174
0.0123062
-0.0346017
0.0360091
-0.00140736
0.00865647
-0.0130746
-0.239153
0.243572
0.0178653
-0.0218019
-0.40712
0.411057
0.0255763
-0.0288291
-0.569217
0.57247
0.0324093
-0.0361063
-0.702162
0.705859
0.0407241
-0.0452705
-0.829462
0.834008
0.0504533
-0.0552432
-0.977575
0.982365
0.0604462
-0.0650285
-1.15413
1.15871
0.0697116
-0.0735134
-1.36304
1.36684
0.076954
-0.0792313
-1.61
1.61228
0.0804287
-0.0806416
-1.58928
1.58949
0.0801613
-0.079227
-1.31525
1.31431
0.0781065
-0.0765357
-1.09555
1.09398
0.0750012
-0.0734851
-0.918982
0.917466
0.071617
-0.0685953
-0.768736
0.765714
0.0638731
-0.0562371
-0.609024
0.601388
0.0472205
-0.0361356
-0.411625
0.40054
0.0261682
-0.0164818
-0.219659
0.209973
0.00945016
-0.00398011
-0.0848656
0.0793955
0.0010759
-0.0112807
0.0102048
-0.0374284
0.0393967
-0.00196836
0.0120743
-0.0182193
-0.248305
0.25445
0.0248121
-0.0302022
-0.415977
0.421367
0.0353302
-0.0396382
-0.577243
0.581551
0.0442004
-0.0487482
-0.710401
0.714949
0.0542867
-0.0596161
-0.838609
0.843939
0.0655821
-0.071005
-0.987125
0.992548
0.0767877
-0.0817665
-1.16322
1.1682
0.0867105
-0.090571
-1.37048
1.37434
0.0938613
-0.0957968
-1.61427
1.6162
0.096505
-0.0961205
-1.58932
1.58893
0.0951041
-0.0935758
-1.31272
1.3112
0.0919839
-0.0899773
-1.09209
1.09008
0.0880649
-0.0859954
-0.91538
0.91331
0.0836078
-0.0795275
-0.762111
0.758031
0.0733705
-0.0638223
-0.593558
0.58401
0.0529589
-0.0400145
-0.388994
0.376049
0.0286598
-0.0178395
-0.199891
0.189071
0.0101179
-0.00420962
-0.0737641
0.0678558
0.00112223
-0.00912361
0.00800138
-0.041337
0.0441773
-0.00284033
0.0170422
-0.025446
-0.260822
0.269226
0.034281
-0.0414273
-0.428298
0.435444
0.0482012
-0.0537772
-0.587855
0.593431
0.0596168
-0.0652809
-0.720507
0.726171
0.0719402
-0.0781647
-0.849297
0.855522
0.0849654
-0.0910026
-0.997917
1.00395
0.097277
-0.102514
-1.17303
1.17826
0.107512
-0.111206
-1.37791
1.3816
0.114068
-0.115397
-1.61771
1.61904
0.115373
-0.114176
-1.58805
1.58685
0.112456
-0.110226
-1.30895
1.30672
0.108081
-0.105589
-1.08758
1.08509
0.103276
-0.100532
-0.910476
0.907732
0.0974789
-0.0920326
-0.753235
0.747788
0.0840787
-0.0721604
-0.574186
0.562268
0.0590561
-0.0439239
-0.362618
0.347486
0.0310089
-0.0189962
-0.177872
0.16586
0.0106159
-0.00434504
-0.0618304
0.0555595
0.00113662
-0.00688885
0.00575223
-0.0469081
0.0512242
-0.00431609
0.0247418
-0.0362239
-0.277859
0.289341
0.0479762
-0.0574528
-0.445113
0.45459
0.066252
-0.0732908
-0.601655
0.608693
0.0806617
-0.08783
-0.732843
0.740011
0.0956691
-0.102705
-0.861722
0.868758
0.110176
-0.116611
-1.00984
1.01627
0.123062
-0.128219
-1.18317
1.18833
0.132861
-0.135995
-1.3848
1.38793
0.137994
-0.138324
-1.61973
1.62006
0.137229
-0.134953
-1.58501
1.58274
0.132352
-0.12929
-1.30369
1.30063
0.126505
-0.123475
-1.08189
1.07886
0.120665
-0.11721
-0.904098
0.900643
0.113186
-0.105922
-0.741409
0.734145
0.0956581
-0.0808205
-0.54992
0.535082
0.0650673
-0.0474672
-0.331922
0.314322
0.0328974
-0.0197415
-0.153586
0.14043
0.0108208
-0.00433497
-0.0492664
0.0427806
0.00110451
-0.00464528
0.00354078
-0.0552164
0.0626273
-0.00741098
0.0382673
-0.0542321
-0.301573
0.317538
0.0700668
-0.0827661
-0.468074
0.480773
0.0937497
-0.102146
-0.61908
0.627476
0.111012
-0.119446
-0.747797
0.75623
0.128194
-0.135631
-0.875582
0.883018
0.143189
-0.149416
-1.02228
1.0285
0.15536
-0.159793
-1.19284
1.19728
0.163396
-0.165344
-1.39025
1.3922
0.165887
-0.164753
-1.61948
1.61835
0.162223
-0.158566
-1.57967
1.57602
0.154853
-0.150767
-1.29665
1.29257
0.147264
-0.143691
-1.07483
1.07126
0.140247
-0.135958
-0.896023
0.891733
0.130473
-0.120701
-0.725568
0.715796
0.107422
-0.0890143
-0.51953
0.501122
0.0703187
-0.0501691
-0.296469
0.27632
0.0340324
-0.0199468
-0.127317
0.113231
0.0106863
-0.00417398
-0.0364485
0.0299362
0.00102457
-0.00248967
0.0014651
-0.0695301
0.0736804
-0.00415038
0.0293129
-0.043144
-0.335982
0.349813
0.057171
-0.0687982
-0.498637
0.510264
0.0791952
-0.0888608
-0.63971
0.649376
0.099627
-0.109482
-0.764263
0.774118
0.120431
-0.130193
-0.889582
0.899344
0.140591
-0.149832
-1.03378
1.04302
0.159456
-0.167674
-1.20061
1.20883
0.175785
-0.182194
-1.39297
1.39938
0.187794
-0.19131
-1.616
1.61951
0.192714
-0.192593
-1.57134
1.57122
0.191372
-0.189435
-1.28748
1.28554
0.187823
-0.185817
-1.06622
1.06422
0.18374
-0.179533
-0.885631
0.881424
0.171867
-0.157223
-0.704177
0.689533
0.137146
-0.11042
-0.481721
0.454994
0.0847204
-0.0583134
-0.256181
0.229774
0.0383487
-0.0217905
-0.0998187
0.0832605
0.0113514
-0.00430698
-0.0239392
0.0168947
0.00102802
-0.000521066
-0.000506957
-0.0808697
0.0790252
0.00184453
0.00752041
-0.0166368
-0.366456
0.375573
0.0272922
-0.0355267
-0.52658
0.534815
0.0438684
-0.0520492
-0.661599
0.66978
0.0619622
-0.0711859
-0.783651
0.792875
0.0809992
-0.0899647
-0.90855
0.917515
0.099478
-0.107589
-1.05197
1.06008
0.116213
-0.123199
-1.21684
1.22383
0.13002
-0.135098
-1.40546
1.41053
0.138932
-0.140858
-1.62218
1.62411
0.140681
-0.138967
-1.57036
1.56865
0.136157
-0.132503
-1.28283
1.27917
0.1292
-0.125611
-1.0598
1.05622
0.122029
-0.11661
-0.872595
0.867176
0.108372
-0.0952262
-0.670812
0.657667
0.0796742
-0.0609502
-0.426713
0.407989
0.0446661
-0.0296422
-0.203939
0.188915
0.0191009
-0.0107983
-0.0678581
0.0595554
0.00568554
-0.00219703
-0.0102426
0.00675409
0.000475685
0.00159911
-0.00207479
-0.0823194
0.0794048
0.00291455
-0.00174049
-0.0035452
-0.387029
0.392314
0.0108167
-0.0167521
-0.547239
0.553174
0.0229118
-0.0300775
-0.680094
0.687259
0.0386411
-0.0466446
-0.801235
0.809239
0.0553859
-0.0632022
-0.92573
0.933547
0.071237
-0.0784341
-1.06799
1.07519
0.0858558
-0.0919281
-1.23034
1.23641
0.0973616
-0.101135
-1.41488
1.41865
0.103832
-0.104472
-1.62524
1.62588
0.103024
-0.100038
-1.56624
1.56325
0.0962017
-0.0916334
-1.27512
1.27055
0.0870557
-0.0822114
-1.05059
1.04575
0.0774796
-0.0713601
-0.857475
0.851355
0.0638186
-0.0529813
-0.641348
0.630511
0.0417983
-0.0298286
-0.387677
0.375707
0.0208576
-0.0135268
-0.173615
0.166284
0.00882495
-0.00525839
-0.0514253
0.0478587
0.00294212
-0.00113343
-0.00342163
0.00161294
0.000257645
0.0027424
-0.00300004
-0.0810282
0.0782598
0.00276848
-0.00543786
0.00291441
-0.400719
0.403243
0.00178334
-0.00626171
-0.562467
0.566946
0.0114426
-0.0174369
-0.695343
0.701337
0.0247276
-0.0315632
-0.816625
0.82346
0.0390184
-0.0457053
-0.940823
0.94751
0.0529498
-0.059016
-1.08193
1.08799
0.0654385
-0.0701995
-1.24203
1.24679
0.0747011
-0.0776386
-1.42214
1.42508
0.0792531
-0.0786999
-1.62598
1.62542
0.0764866
-0.0727541
-1.55961
1.55587
0.068247
-0.0625732
-1.26552
1.25985
0.0572514
-0.0514519
-1.03931
1.03351
0.0457522
-0.0395359
-0.841306
0.83509
0.0326919
-0.0244567
-0.616818
0.608583
0.0170911
-0.0106647
-0.36264
0.356214
0.00683435
-0.00435207
-0.158104
0.155621
0.0030085
-0.00210672
-0.0436409
0.0427391
0.00137303
-0.000499476
0.000182506
-0.00105606
0.00011603
0.00353912
-0.00365515
-0.0794621
0.0769938
0.00246833
-0.00664086
0.00575612
-0.409795
0.41068
-0.00231209
-0.000895065
-0.574642
0.57785
0.00508693
-0.0105117
-0.7081
0.713524
0.0166141
-0.0225914
-0.829609
0.835586
0.0290185
-0.0347892
-0.953726
0.959496
0.0409532
-0.0462913
-1.09389
1.09923
0.0516494
-0.055909
-1.25136
1.25562
0.0596051
-0.0618419
-1.42758
1.42982
0.0627229
-0.0615158
-1.62459
1.62339
0.0587086
-0.0542063
-1.55134
1.54684
0.0492207
-0.0431804
-1.25396
1.24791
0.0373629
-0.0308255
-1.02655
1.02001
0.0248004
-0.0183981
-0.825532
0.81913
0.0125888
-0.0063416
-0.597973
0.591725
0.00180772
0.000987995
-0.347947
0.345151
-0.00179314
0.00157779
-0.151444
0.15166
-0.000996197
0.000364127
-0.0410619
0.041694
-4.18154e-05
2.79801e-05
0.00180256
-0.00178873
-6.31394e-06
0.00403396
-0.00402765
-0.0779775
0.0758482
0.00212932
-0.00658539
0.0062441
-0.415942
0.416283
-0.0042139
0.00164007
-0.583946
0.58652
0.00238371
-0.00700286
-0.71887
0.72349
0.0122236
-0.0173927
-0.840779
0.845948
0.0230762
-0.0281938
-0.964897
0.970014
0.0337751
-0.0383896
-1.10426
1.10887
0.0431215
-0.0468485
-1.25955
1.26328
0.0499461
-0.0516745
-1.43173
1.43345
0.052019
-0.0507383
-1.62199
1.62071
0.0475245
-0.0428398
-1.54181
1.53712
0.0375664
-0.031213
-1.24156
1.23521
0.0253372
-0.0183514
-1.01277
1.00579
0.0120289
-0.00560407
-0.810271
0.803846
0.000414865
0.00424136
-0.5831
0.578444
-0.0071134
0.00805678
-0.339763
0.338819
-0.00713701
0.00553331
-0.150146
0.15175
-0.00399118
0.00233131
-0.0417528
0.0434126
-0.00119452
0.000514383
0.00163508
-0.000954934
-0.000132713
0.00419747
-0.00406475
-0.0768087
0.0751332
0.00167541
-0.00575787
0.00577964
-0.420413
0.420392
-0.00418282
0.00228016
-0.592004
0.593907
0.00144973
-0.00560669
-0.728138
0.732295
0.0105342
-0.0149599
-0.850715
0.855141
0.0199197
-0.0244201
-0.975081
0.979581
0.0296633
-0.0337987
-1.11349
1.11763
0.0379221
-0.0413539
-1.26678
1.27021
0.0444681
-0.0458921
-1.43515
1.43657
0.0460904
-0.0445361
-1.61896
1.61741
0.0414842
-0.0364497
-1.53216
1.52712
0.0312865
-0.0250596
-1.22863
1.2224
0.0190358
-0.0122681
-0.998508
0.99174
0.00595805
0.000505329
-0.795575
0.789112
-0.0049363
0.0089774
-0.570952
0.566911
-0.0112828
0.0114026
-0.335045
0.334925
-0.00997336
0.00789696
-0.151677
0.153754
-0.00586308
0.00365586
-0.0445072
0.0467145
-0.00201184
0.000888481
8.65962e-05
0.00103676
-0.00023649
0.00404171
-0.00380522
-0.0761308
0.074803
0.00132776
-0.00471615
0.00488503
-0.423871
0.423702
-0.003516
0.00171922
-0.598953
0.60075
0.00183499
-0.00551857
-0.736412
0.740095
0.00971115
-0.0139511
-0.8595
0.86374
0.0184961
-0.0230934
-0.983867
0.988464
0.0275537
-0.0314493
-1.12183
1.12573
0.0356287
-0.0387364
-1.27348
1.27659
0.0412699
-0.0429992
-1.43786
1.43959
0.0432319
-0.0417979
-1.61586
1.61442
0.0387295
-0.0340833
-1.52224
1.51759
0.0290801
-0.0230209
-1.21584
1.20978
0.017247
-0.0106474
-0.984646
0.978046
0.00454545
0.00152085
-0.781444
0.775378
-0.00618135
0.00972788
-0.560106
0.556559
-0.0116993
0.01204
-0.332028
0.331687
-0.0108064
0.00864788
-0.154189
0.156348
-0.00658881
0.00428503
-0.048229
0.0505328
-0.00248549
0.00106754
-0.00217149
0.00358944
-0.000289724
0.00364169
-0.00335196
-0.075976
0.0748644
0.00111166
-0.00345873
0.00340729
-0.42691
0.426961
-0.00233591
0.000588867
-0.605274
0.607021
0.00280173
-0.0063362
-0.744041
0.747575
0.0103297
-0.0141355
-0.867746
0.871551
0.0187622
-0.0225326
-0.992461
0.996231
0.0269171
-0.030585
-1.12975
1.13342
0.0345921
-0.0378364
-1.27965
1.28289
0.0405803
-0.0420096
-1.44104
1.44247
0.0424797
-0.0413352
-1.61288
1.61173
0.0387946
-0.0343565
-1.51282
1.50838
0.029715
-0.0239831
-1.20386
1.19812
0.0185384
-0.0122035
-0.971142
0.964807
0.00649207
-0.000460877
-0.768129
0.762097
-0.00419057
0.00771107
-0.550168
0.546648
-0.00971667
0.0103126
-0.329
0.328404
-0.00968796
0.00805308
-0.156554
0.158189
-0.00632419
0.00424252
-0.0520489
0.0541306
-0.00254177
0.00112143
-0.00478897
0.00620931
-0.000325393
0.00310751
-0.00278212
-0.0761005
0.0753191
0.000781395
-0.0023093
0.00180104
-0.43
0.430509
-0.000890216
-0.000996373
-0.610785
0.612672
0.00401076
-0.00738212
-0.751113
0.754484
0.0111837
-0.0150956
-0.875199
0.879111
0.019075
-0.0229781
-1.00019
1.00409
0.027291
-0.0307162
-1.13749
1.14091
0.0347708
-0.0379249
-1.28591
1.28906
0.0406741
-0.0425793
-1.44428
1.44618
0.0434708
-0.0425444
-1.61061
1.60968
0.0401945
-0.0364312
-1.50412
1.50036
0.032307
-0.0269302
-1.19232
1.18694
0.0217523
-0.0160226
-0.958388
0.952658
0.0102988
-0.00470792
-0.755185
0.749594
-5.8814e-05
0.00384023
-0.540596
0.536815
-0.00588731
0.00700312
-0.32544
0.324324
-0.00699842
0.0061911
-0.158055
0.158863
-0.00500557
0.00347802
-0.0552539
0.0567814
-0.00215546
0.00097453
-0.00724725
0.00842818
-0.000303469
0.00252715
-0.00222368
-0.0766473
0.0760294
0.000617867
-0.00133546
0.000917552
-0.433302
0.43372
0.000543022
-0.00237771
-0.616382
0.618217
0.00552761
-0.00875
-0.757632
0.760855
0.0123831
-0.0158738
-0.882671
0.886162
0.0199563
-0.0235226
-1.00798
1.01154
0.0277605
-0.0315981
-1.14477
1.14861
0.035262
-0.0387178
-1.29224
1.29569
0.041854
-0.0438163
-1.44796
1.44993
0.0450417
-0.0448656
-1.60896
1.60879
0.0429325
-0.0397752
-1.49647
1.49331
0.0358672
-0.0309983
-1.18167
1.1768
0.0263215
-0.0208752
-0.946551
0.941105
0.0156399
-0.0102069
-0.743007
0.737574
0.00552612
-0.00118797
-0.530871
0.526533
-0.00139462
0.00298652
-0.320993
0.319401
-0.00372108
0.00365912
-0.158141
0.158203
-0.00314804
0.00231928
-0.0573059
0.0581347
-0.00150807
0.000716877
-0.00913202
0.00992321
-0.000243213
0.00201832
-0.00177511
-0.0774774
0.0770437
0.000433738
-0.000285857
-0.000300909
-0.43676
0.437347
0.00174938
-0.00388137
-0.62163
0.623762
0.00693331
-0.00998422
-0.763892
0.766943
0.0136952
-0.0170213
-0.889613
0.892939
0.0209307
-0.0246063
-1.01557
1.01925
0.0287305
-0.032518
-1.15228
1.15606
0.0363869
-0.0398515
-1.29904
1.30251
0.0431538
-0.045845
-1.45216
1.45485
0.0474905
-0.0475865
-1.60854
1.60863
0.0463223
-0.0434763
-1.49005
1.4872
0.0401502
-0.0358996
-1.17195
1.16769
0.0313916
-0.0263074
-0.935439
0.930355
0.0213579
-0.0159358
-0.731339
0.725917
0.0113163
-0.00661765
-0.520952
0.516253
0.00350675
-0.00113701
-0.315546
0.313176
-0.000192274
0.00094362
-0.156747
0.155996
-0.00117787
0.00104123
-0.0579726
0.0581092
-0.00076232
0.000408616
-0.0102084
0.0105621
-0.000150691
0.00164231
-0.00149162
-0.0785458
0.0782462