/*--------------------------------*- C++ -*----------------------------------*\
  =========                 |
  \\      /  F ield         | OpenFOAM: The Open Source CFD Toolbox
   \\    /   O peration     | Website:  https://openfoam.org
    \\  /    A nd           | Version:  10
     \\/     M anipulation  |
\*---------------------------------------------------------------------------*/
FoamFile
{
    format      ascii;
    class       volScalarField;
    location    "24";
    object      p;
}
// * * * * * * * * * * * * * * * * * * * * * * * * * * * * * * * * * * * * * //

dimensions      [0 2 -2 0 0 0 0];

internalField   nonuniform List<scalar> 
8800
(
0.425567
0.37778
0.339089
0.310091
0.289219
0.274374
0.263754
0.256238
0.25136
0.249208
0.250337
0.254392
0.260922
0.270146
0.282859
0.300547
0.325291
0.359207
0.401735
0.460434
0.256821
0.2645
0.271971
0.27528
0.273773
0.26869
0.262191
0.256091
0.251322
0.248396
0.24799
0.250349
0.254704
0.260539
0.267223
0.273438
0.277033
0.27627
0.270814
0.262105
0.235239
0.241401
0.24553
0.248476
0.250523
0.251119
0.249995
0.247855
0.24577
0.244747
0.245557
0.247789
0.250455
0.252523
0.253043
0.251775
0.249378
0.245945
0.241367
0.2376
0.229452
0.232105
0.234868
0.237282
0.238923
0.240082
0.240806
0.240884
0.240518
0.240343
0.240925
0.241919
0.242602
0.242533
0.241812
0.24063
0.23874
0.236108
0.233669
0.232164
0.224111
0.225539
0.22734
0.229398
0.231203
0.232554
0.23353
0.234286
0.234819
0.235241
0.235693
0.235982
0.235894
0.235443
0.234601
0.233226
0.231422
0.229485
0.228132
0.227302
0.219104
0.220028
0.221303
0.222914
0.224587
0.226141
0.227432
0.228466
0.229346
0.230082
0.230532
0.230601
0.23032
0.229663
0.228584
0.227209
0.225732
0.224352
0.223474
0.222929
0.214288
0.214956
0.215973
0.217356
0.218843
0.220368
0.221852
0.223171
0.22428
0.225189
0.225731
0.225792
0.225392
0.224574
0.223489
0.222294
0.221065
0.219974
0.219322
0.218931
0.209688
0.210196
0.211046
0.212286
0.213668
0.215124
0.216623
0.218105
0.219456
0.220574
0.221237
0.221305
0.22087
0.220104
0.219158
0.218121
0.217065
0.216171
0.215664
0.21537
0.205236
0.205625
0.206366
0.207524
0.20887
0.21029
0.211773
0.213306
0.214815
0.216157
0.216984
0.217161
0.216857
0.216252
0.215464
0.214549
0.213611
0.212849
0.212447
0.212226
0.200946
0.201242
0.201891
0.202987
0.204297
0.205715
0.207227
0.208803
0.210413
0.211953
0.213021
0.213439
0.213368
0.212945
0.212292
0.211516
0.2107
0.210059
0.209748
0.209581
0.196785
0.197002
0.197596
0.198692
0.200028
0.201486
0.203091
0.20482
0.206625
0.208401
0.209786
0.210486
0.210612
0.210337
0.20982
0.209151
0.208402
0.207838
0.207598
0.207481
0.192837
0.192978
0.1935
0.194532
0.195815
0.197227
0.198797
0.200572
0.202564
0.204682
0.206434
0.207485
0.207964
0.208048
0.207821
0.207366
0.206794
0.206358
0.206195
0.206123
0.189127
0.189212
0.189646
0.190571
0.19178
0.1932
0.194866
0.196814
0.199042
0.201523
0.203769
0.205304
0.206157
0.20652
0.206573
0.206377
0.206049
0.205791
0.205709
0.205665
0.185395
0.185442
0.185784
0.186575
0.187693
0.189079
0.190794
0.192914
0.195501
0.198512
0.201347
0.203393
0.204733
0.205531
0.205934
0.206088
0.20607
0.206031
0.206023
0.205986
0.181166
0.181213
0.181496
0.18219
0.183258
0.184677
0.186515
0.18888
0.191869
0.195499
0.199079
0.201839
0.203755
0.205021
0.205871
0.206382
0.206673
0.20683
0.206872
0.206831
0.176132
0.176188
0.176484
0.177179
0.17829
0.179843
0.181946
0.184748
0.188372
0.192835
0.197313
0.200833
0.203354
0.205143
0.206376
0.207222
0.207777
0.208066
0.208133
0.208085
0.170008
0.170063
0.170427
0.171202
0.172455
0.174257
0.176753
0.180123
0.184533
0.190051
0.195649
0.200121
0.203407
0.205741
0.207399
0.208587
0.209375
0.209761
0.209851
0.209797
0.162608
0.162658
0.163102
0.164069
0.165613
0.167835
0.170919
0.175104
0.180583
0.187427
0.194402
0.199986
0.204046
0.207002
0.209154
0.21069
0.211653
0.212113
0.212236
0.21218
0.153795
0.153838
0.154371
0.155603
0.157577
0.160385
0.164262
0.169485
0.176311
0.184817
0.193467
0.200398
0.205504
0.2092
0.211866
0.213726
0.214885
0.215444
0.215609
0.215548
0.143329
0.143363
0.144013
0.145576
0.148079
0.151676
0.156591
0.163174
0.171705
0.182269
0.192963
0.201535
0.207847
0.212418
0.215715
0.217936
0.219339
0.220039
0.220253
0.220185
0.130792
0.130831
0.131646
0.133587
0.136832
0.141386
0.147646
0.155969
0.166667
0.17979
0.192964
0.203474
0.211221
0.216843
0.220854
0.2236
0.225321
0.226197
0.226458
0.226374
0.115396
0.11545
0.116492
0.118965
0.123121
0.129037
0.13706
0.147675
0.161153
0.177436
0.193581
0.206381
0.215813
0.222652
0.227528
0.23089
0.233024
0.23411
0.234419
0.234311
0.0959586
0.0960416
0.0974592
0.100802
0.106257
0.114012
0.124503
0.138169
0.155181
0.175326
0.194981
0.210427
0.22178
0.230024
0.235923
0.240024
0.24265
0.243976
0.244336
0.244201
0.0706737
0.0708262
0.0729059
0.0776441
0.0852131
0.0957238
0.109685
0.127407
0.14887
0.173641
0.197339
0.215772
0.229291
0.239136
0.246231
0.251217
0.254426
0.256023
0.256433
0.256261
0.0364926
0.036819
0.0402325
0.0476115
0.0587582
0.0735826
0.0924988
0.115561
0.142492
0.172637
0.200851
0.222555
0.238447
0.250083
0.258564
0.264602
0.268511
0.270418
0.27087
0.270649
-0.012427
-0.0111354
-0.00422002
0.00864086
0.0260325
0.0475363
0.0733041
0.103111
0.136483
0.172625
0.205686
0.23084
0.249247
0.262831
0.272885
0.280188
0.284969
0.287261
0.287742
0.287452
-0.0852641
-0.0771507
-0.0611622
-0.0383924
-0.0115557
0.0189062
0.0530596
0.0906649
0.131222
0.173949
0.21233
0.241354
0.262687
0.278642
0.290745
0.299818
0.305962
0.309038
0.30977
0.309593
-0.163351
-0.144856
-0.119113
-0.0859889
-0.0494305
-0.00986587
0.0327969
0.0784239
0.12663
0.176745
0.221547
0.255573
0.280859
0.300086
0.315014
0.326617
0.334695
0.339065
0.340471
0.340484
-0.226924
-0.205664
-0.171981
-0.130393
-0.0852691
-0.0372179
0.0136097
0.0670099
0.122599
0.179758
0.230534
0.26905
0.297774
0.319761
0.336904
0.350158
0.359864
0.365148
0.366237
0.366394
-0.278672
-0.255471
-0.21676
-0.169157
-0.117338
-0.0622601
-0.00431647
0.056134
0.118556
0.182234
0.23842
0.280825
0.312328
0.336346
0.355027
0.369512
0.38014
0.385814
0.38712
0.387385
-0.321405
-0.297235
-0.254973
-0.202701
-0.145539
-0.0847216
-0.0207465
0.0458581
0.114404
0.18398
0.244973
0.290663
0.324363
0.3499
0.369653
0.384956
0.395893
0.401994
0.4037
0.403989
-0.357881
-0.333137
-0.288238
-0.232277
-0.170717
-0.105057
-0.0358856
0.0361313
0.110143
0.185041
0.250331
0.29885
0.33431
0.36093
0.381326
0.396985
0.408128
0.414413
0.416295
0.416554
-0.390033
-0.364943
-0.318014
-0.258958
-0.193703
-0.12386
-0.050134
0.0267102
0.105684
0.185471
0.254729
0.305798
0.342763
0.370213
0.390985
0.406753
0.417907
0.424222
0.426229
0.426457
-0.419303
-0.393898
-0.345312
-0.283628
-0.215198
-0.141698
-0.0639098
0.0173125
0.100869
0.185257
0.258298
0.311837
0.350223
0.3784
0.399498
0.41533
0.426484
0.432803
0.434902
0.435104
-0.446548
-0.42086
-0.370844
-0.306898
-0.235678
-0.158944
-0.0775196
0.00769665
0.0955283
0.184326
0.261095
0.317083
0.356925
0.385903
0.40738
0.42335
0.434499
0.440696
0.442862
0.443125
-0.472473
-0.44644
-0.395067
-0.329211
-0.255489
-0.175883
-0.0911875
-0.00231162
0.0895255
0.182572
0.263079
0.321667
0.363136
0.393062
0.41502
0.431187
0.442379
0.448478
0.450589
0.450849
-0.497367
-0.470967
-0.418492
-0.35082
-0.274886
-0.192708
-0.105055
-0.0128276
0.0827589
0.179943
0.264301
0.325721
0.369017
0.400057
0.422654
0.439141
0.450428
0.456469
0.458443
0.458635
-0.521566
-0.494708
-0.441249
-0.371918
-0.29401
-0.209529
-0.119208
-0.0239162
0.0751895
0.176418
0.264724
0.32918
0.374578
0.406966
0.430376
0.447302
0.458737
0.464733
0.46654
0.466642
-0.545135
-0.517818
-0.463444
-0.392614
-0.312944
-0.226405
-0.133683
-0.0355913
0.0667927
0.171913
0.264217
0.331982
0.379798
0.4138
0.438208
0.455688
0.467306
0.473231
0.474901
0.474873
-0.568152
-0.540372
-0.485125
-0.412955
-0.33171
-0.243334
-0.148469
-0.0478606
0.0575299
0.166341
0.262689
0.334032
0.384605
0.420526
0.446138
0.464277
0.476083
0.481883
0.48338
0.48324
-0.590704
-0.562405
-0.506292
-0.432936
-0.350297
-0.260291
-0.163537
-0.0606942
0.0474101
0.159692
0.260045
0.33517
0.388878
0.427088
0.454151
0.473039
0.485012
0.490589
0.49186
0.49163
-0.612796
-0.583916
-0.526976
-0.45253
-0.368651
-0.277233
-0.178825
-0.0740294
0.0364936
0.151952
0.256179
0.33523
0.39243
0.433393
0.462248
0.48197
0.493989
0.499222
0.500219
0.499909
-0.634263
-0.604843
-0.547123
-0.471705
-0.386731
-0.294077
-0.194254
-0.0877689
0.0248539
0.143146
0.251015
0.334034
0.395037
0.43929
0.470464
0.49119
0.503013
0.507615
0.508254
0.507877
-0.655057
-0.625129
-0.566689
-0.490396
-0.404469
-0.310757
-0.209725
-0.101826
0.012577
0.133321
0.244514
0.331405
0.396417
0.444519
0.478807
0.50103
0.512348
0.515697
0.515753
0.515349
-0.675253
-0.644739
-0.585642
-0.508563
-0.421797
-0.327186
-0.225149
-0.116092
-0.000228989
0.122569
0.236658
0.327209
0.396252
0.44864
0.487082
0.511991
0.522962
0.523971
0.522595
0.522262
-0.694674
-0.663655
-0.603927
-0.52614
-0.438657
-0.343285
-0.240428
-0.13045
-0.0134319
0.11101
0.227491
0.321342
0.394241
0.451004
0.494607
0.524217
0.536732
0.535146
0.530289
0.528906
-0.713407
-0.681868
-0.621564
-0.543153
-0.45508
-0.359098
-0.25562
-0.144958
-0.0271015
0.0985729
0.216891
0.313554
0.390073
0.450785
0.499984
0.536604
0.554714
0.555267
0.544948
0.525995
-0.73139
-0.699379
-0.638676
-0.559789
-0.471354
-0.374953
-0.271135
-0.160101
-0.0417869
0.0845947
0.204159
0.302961
0.382993
0.446757
0.500204
0.544464
0.568761
0.564352
0.549618
0.528107
-0.748463
-0.716343
-0.655085
-0.575801
-0.48719
-0.390509
-0.286749
-0.175548
-0.0571574
0.0693904
0.189491
0.289329
0.372552
0.438253
0.490138
0.53558
0.56057
0.547433
0.475984
0.439359
-0.763998
-0.733861
-0.670448
-0.590611
-0.501886
-0.405294
-0.302172
-0.191076
-0.0729917
0.0531123
0.172914
0.272548
0.357888
0.425645
0.467676
0.499879
0.509541
0.462199
0.388281
0.341471
-0.818835
-0.748964
-0.684462
-0.605522
-0.516849
-0.420675
-0.317465
-0.206942
-0.0896181
0.0353766
0.153958
0.252304
0.336207
0.410678
0.414914
0.429822
0.399179
0.334951
0.255142
0.209992
-0.779678
-0.764106
-0.704705
-0.626709
-0.538475
-0.442703
-0.340599
-0.231102
-0.115349
0.00726242
0.122402
0.21718
0.292364
0.364425
0.365427
0.256487
0.148312
0.0743862
-0.00224139
0.0362246
-0.809654
-0.781045
-0.721082
-0.643273
-0.555331
-0.459935
-0.357755
-0.249106
-0.134741
-0.0144412
0.0971465
0.187319
0.254626
0.292991
0.246173
0.0957604
-0.0409203
-0.137543
-0.242974
-0.182962
-0.832623
-0.800934
-0.740017
-0.661854
-0.573977
-0.478764
-0.376834
-0.269218
-0.156539
-0.0390618
0.0682772
0.152525
0.209896
0.217916
0.108918
-0.0795564
-0.247465
-0.377958
-0.523622
-0.475659
-0.85486
-0.821659
-0.759704
-0.680769
-0.592768
-0.49773
-0.396426
-0.289954
-0.179134
-0.0647954
0.0375711
0.115248
0.158539
0.13031
-0.0363094
-0.25421
-0.467962
-0.662575
-0.87763
-0.87322
-0.876195
-0.842783
-0.780042
-0.700442
-0.612289
-0.517481
-0.416901
-0.311668
-0.202919
-0.0920257
0.00486803
0.0752865
0.100891
0.038058
-0.175536
-0.412344
-0.660919
-0.88686
-1.16859
-1.51398
-0.897669
-0.86442
-0.801271
-0.721243
-0.632929
-0.538305
-0.43837
-0.334382
-0.227772
-0.120488
-0.0292298
0.0330656
0.0410377
-0.0726249
-0.296912
-0.534947
-0.774884
-0.980609
-1.06061
-1.17943
-0.920038
-0.886984
-0.823671
-0.743474
-0.655118
-0.560758
-0.461548
-0.358955
-0.254769
-0.151538
-0.0663508
-0.0134582
-0.0295035
-0.188519
-0.403802
-0.622363
-0.81481
-0.928429
-0.952798
-0.975016
-0.943638
-0.910763
-0.847375
-0.767174
-0.678931
-0.58498
-0.486702
-0.385772
-0.284395
-0.185802
-0.107081
-0.0655611
-0.106318
-0.294482
-0.500787
-0.693828
-0.841739
-0.896728
-0.912221
-0.914935
-0.968665
-0.935796
-0.872417
-0.79228
-0.704266
-0.610911
-0.513773
-0.414792
-0.316616
-0.223223
-0.151538
-0.123903
-0.184446
-0.394521
-0.590996
-0.763345
-0.872247
-0.884298
-0.888913
-0.889375
-0.995063
-0.962081
-0.898777
-0.818729
-0.73107
-0.63846
-0.542668
-0.445921
-0.351311
-0.263621
-0.199702
-0.18352
-0.276812
-0.488934
-0.675319
-0.822447
-0.864449
-0.876488
-0.879031
-0.878592
-1.02253
-0.989406
-0.926283
-0.846377
-0.75918
-0.667476
-0.573235
-0.478992
-0.388302
-0.306738
-0.251055
-0.247647
-0.380925
-0.581159
-0.748735
-0.86505
-0.872086
-0.873505
-0.8751
-0.874975
-1.05048
-1.01747
-0.954553
-0.874947
-0.788329
-0.697693
-0.605188
-0.513692
-0.427227
-0.352168
-0.304563
-0.320224
-0.481202
-0.673248
-0.819098
-0.855157
-0.878672
-0.878073
-0.876222
-0.875863
-1.07851
-1.04577
-0.983103
-0.904001
-0.818094
-0.728673
-0.638091
-0.54952
-0.467537
-0.399201
-0.359631
-0.393152
-0.580383
-0.771327
-0.888515
-0.903425
-0.896839
-0.887406
-0.881361
-0.879164
-1.10571
-1.0736
-1.01142
-0.932897
-0.847871
-0.759811
-0.671311
-0.585769
-0.508369
-0.446759
-0.415898
-0.464912
-0.67172
-0.888603
-0.996303
-0.972916
-0.948023
-0.927262
-0.916897
-0.911822
-1.13092
-1.09937
-1.03871
-0.960826
-0.876859
-0.790302
-0.703968
-0.621498
-0.548505
-0.493558
-0.471696
-0.534723
-0.74639
-1.00015
-1.19285
-1.11001
-1.06061
-1.02982
-1.01533
-1.00687
-1.15283
-1.12252
-1.06325
-0.986785
-0.904065
-0.819127
-0.734926
-0.655489
-0.586436
-0.538032
-0.523033
-0.594506
-0.798003
-1.00394
-1.4431
-1.31431
-1.22525
-1.21348
-1.19559
-1.1849
-1.16988
-1.14139
-1.08421
-1.00939
-0.928289
-0.845085
-0.762943
-0.68612
-0.620591
-0.577391
-0.567154
-0.643886
-0.809295
-0.758861
-0.575021
-0.891117
-1.22667
-1.30349
-1.3016
-1.30129
-1.18054
-1.15454
-1.10012
-1.02738
-0.94813
-0.866793
-0.786512
-0.7116
-0.648892
-0.60801
-0.607981
-0.698008
-0.85925
-0.677979
-0.394701
-0.776004
-1.2017
-1.30393
-1.32143
-1.33751
-1.18303
-1.1605
-1.10958
-1.03947
-0.962278
-0.882787
-0.804069
-0.730136
-0.668151
-0.629847
-0.639014
-0.797737
-1.25772
-1.94712
-2.57337
-3.02693
-2.9051
-2.39026
-1.94942
-1.86607
-1.17649
-1.1578
-1.11133
-1.04462
-0.969717
-0.891942
-0.814097
-0.740052
-0.675859
-0.635276
-0.644699
-0.861079
-1.60965
-2.81392
-3.73248
-4.10525
-3.97339
-3.55949
-3.09519
-2.82718
-1.15958
-1.1446
-1.10447
-1.04225
-0.96992
-0.89359
-0.815782
-0.739799
-0.670862
-0.617808
-0.613059
-0.737795
-1.253
-1.84682
-2.40461
-2.51038
-2.29238
-1.94686
-1.6364
-1.46197
-1.13344
-1.12273
-1.08929
-1.03273
-0.963142
-0.887946
-0.809358
-0.729588
-0.651983
-0.57983
-0.525888
-0.460734
-0.446751
-0.238603
0.0946595
0.466133
0.826771
1.07017
1.20651
1.25964
-1.10086
-1.09419
-1.06821
-1.01781
-0.951007
-0.876453
-0.796355
-0.712276
-0.623152
-0.531447
-0.425703
-0.315983
-0.00205427
0.596945
1.26494
1.87138
2.29979
2.53443
2.62855
2.65432
-1.06575
-1.06195
-1.04468
-1.00046
-0.936137
-0.861791
-0.780281
-0.692016
-0.597631
-0.490879
-0.380791
-0.258669
-0.0296616
0.557545
1.19266
1.74208
2.12957
2.34794
2.44613
2.47661
-1.03344
-1.03117
-1.02139
-0.984441
-0.921962
-0.846526
-0.76396
-0.67524
-0.579329
-0.472041
-0.370066
-0.271163
-0.145576
0.250354
0.728668
1.1155
1.39923
1.5672
1.64692
1.67251
-1.00465
-1.00483
-1.00072
-0.969255
-0.906565
-0.829631
-0.747957
-0.662139
-0.570228
-0.469814
-0.374221
-0.293453
-0.227721
0.0233491
0.364375
0.64133
0.846714
0.972572
1.0371
1.05684
-0.967762
-0.970286
-0.968443
-0.939378
-0.877851
-0.803694
-0.727261
-0.6486
-0.564914
-0.473052
-0.384038
-0.313381
-0.251223
-0.104576
0.117118
0.305913
0.446411
0.532295
0.573065
0.581693
-0.887951
-0.890562
-0.888713
-0.866861
-0.818396
-0.759269
-0.69645
-0.630321
-0.558008
-0.476491
-0.395253
-0.326418
-0.260474
-0.167589
-0.028424
0.0883544
0.173483
0.225639
0.249148
0.254709
-0.777218
-0.777909
-0.775973
-0.763782
-0.737387
-0.700515
-0.657264
-0.607404
-0.549192
-0.480414
-0.409678
-0.347605
-0.284142
-0.228223
-0.146818
-0.0699149
-0.0125985
0.0222443
0.0379489
0.0386847
-0.68187
-0.681613
-0.680747
-0.676362
-0.665572
-0.647277
-0.621255
-0.586458
-0.541117
-0.483469
-0.42438
-0.375471
-0.334123
-0.300503
-0.251792
-0.195857
-0.151947
-0.123491
-0.111633
-0.111735
-0.625433
-0.624874
-0.624433
-0.624118
-0.620277
-0.611295
-0.595701
-0.571198
-0.535306
-0.487256
-0.439408
-0.410658
-0.40172
-0.38768
-0.340909
-0.290887
-0.252679
-0.230743
-0.221797
-0.222962
-0.603485
-0.602863
-0.60228
-0.602033
-0.600122
-0.594499
-0.583908
-0.565457
-0.535423
-0.490732
-0.446224
-0.42688
-0.443226
-0.447365
-0.399832
-0.353566
-0.322593
-0.307511
-0.302241
-0.302962
-0.607216
-0.606386
-0.605402
-0.604613
-0.602656
-0.597977
-0.589258
-0.573824
-0.546112
-0.500026
-0.447564
-0.415931
-0.418616
-0.417578
-0.389944
-0.362091
-0.344028
-0.335039
-0.331484
-0.332407
-0.632197
-0.631247
-0.630158
-0.62914
-0.627183
-0.623281
-0.616525
-0.604341
-0.57923
-0.530404
-0.463564
-0.400209
-0.371005
-0.367994
-0.357121
-0.344251
-0.335657
-0.329152
-0.327672
-0.328385
-0.674693
-0.673924
-0.673138
-0.672647
-0.672084
-0.671392
-0.670503
-0.667649
-0.655051
-0.615924
-0.536456
-0.4336
-0.370847
-0.360704
-0.353947
-0.33631
-0.313425
-0.297226
-0.290869
-0.293301
-0.729026
-0.728668
-0.728946
-0.730324
-0.733733
-0.740911
-0.754133
-0.775497
-0.802744
-0.810999
-0.728656
-0.576835
-0.475729
-0.441696
-0.408704
-0.355228
-0.305619
-0.269937
-0.264404
-0.26771
-0.785692
-0.786244
-0.788369
-0.793254
-0.80381
-0.824679
-0.863384
-0.932673
-1.04513
-1.15938
-1.07937
-0.848683
-0.683188
-0.614069
-0.525462
-0.423655
-0.338181
-0.293979
-0.290503
-0.292606
-0.829958
-0.831766
-0.836324
-0.845961
-0.865915
-0.904694
-0.97815
-1.11725
-1.35951
-1.63471
-1.57414
-1.21972
-0.969514
-0.839008
-0.693096
-0.539376
-0.421846
-0.372537
-0.3775
-0.384227
-0.843878
-0.846979
-0.853876
-0.867992
-0.896578
-0.951335
-1.05795
-1.26555
-1.63542
-2.07554
-2.07553
-1.59903
-1.25097
-1.07499
-0.894709
-0.743447
-0.645502
-0.615879
-0.613112
-0.61802
-0.812816
-0.816388
-0.824152
-0.840368
-0.873158
-0.936
-1.05825
-1.29716
-1.72732
-2.24123
-2.30712
-1.81155
-1.45541
-1.27076
-1.11195
-1.02326
-0.969599
-0.945446
-0.933004
-0.931466
-0.731731
-0.735015
-0.742119
-0.757028
-0.787657
-0.846817
-0.961026
-1.1843
-1.58251
-2.02949
-2.07041
-1.71106
-1.45645
-1.32213
-1.26232
-1.24104
-1.2139
-1.18404
-1.16493
-1.15838
-0.611218
-0.613547
-0.618582
-0.629558
-0.652744
-0.697971
-0.785445
-0.956818
-1.26548
-1.59398
-1.60397
-1.41542
-1.28982
-1.21094
-1.2308
-1.26598
-1.24277
-1.21558
-1.19735
-1.18993
-0.471673
-0.472735
-0.475151
-0.481143
-0.494781
-0.522196
-0.575837
-0.682013
-0.88262
-1.11658
-1.15251
-1.07522
-0.989761
-0.965839
-1.03471
-1.08997
-1.07353
-1.05614
-1.04521
-1.03994
-0.335201
-0.335152
-0.335388
-0.337044
-0.342221
-0.353711
-0.377133
-0.424733
-0.521178
-0.663193
-0.697305
-0.660345
-0.606476
-0.646911
-0.755549
-0.802452
-0.801759
-0.796999
-0.793874
-0.791675
-0.218502
-0.217776
-0.216718
-0.215683
-0.215328
-0.216132
-0.219154
-0.226733
-0.243682
-0.279335
-0.295416
-0.269612
-0.307154
-0.399597
-0.487087
-0.520603
-0.529955
-0.53372
-0.536054
-0.536218
-0.129545
-0.128589
-0.12711
-0.125091
-0.122326
-0.118151
-0.111644
-0.101159
-0.0835792
-0.0523321
-0.0315183
-0.0605827
-0.149812
-0.233881
-0.286388
-0.311603
-0.321363
-0.327357
-0.331319
-0.332449
-0.0684799
-0.0675984
-0.0662626
-0.0643849
-0.0613946
-0.0563107
-0.0478947
-0.034255
-0.0129429
0.0158203
0.0286438
-0.00492396
-0.071486
-0.126696
-0.160259
-0.176328
-0.184827
-0.189885
-0.19331
-0.194445
-0.0307366
-0.0300643
-0.0290855
-0.0278019
-0.0255938
-0.0215475
-0.0146999
-0.00386274
0.0117808
0.0293893
0.0322647
0.00719073
-0.0333695
-0.0665018
-0.0873924
-0.0981931
-0.103447
-0.10655
-0.108715
-0.109473
-0.0101933
-0.00974337
-0.00913575
-0.00848472
-0.00724553
-0.00472405
-0.000311031
0.00655558
0.0158294
0.0246415
0.0229925
0.0065493
-0.0160422
-0.0345801
-0.0463804
-0.052419
-0.0551669
-0.0567541
-0.0579136
-0.058337
-0.00117232
-0.000899736
-0.000587152
-0.000401631
7.20199e-05
0.00125884
0.00345818
0.00685193
0.0112
0.0147191
0.0125511
0.00376509
-0.00708303
-0.0158527
-0.0213392
-0.0240128
-0.025062
-0.025608
-0.0261047
-0.0263063
0.000686101
0.000734283
0.000967029
0.00125263
0.00146675
0.00160474
0.00177737
0.00207807
0.0025282
0.00298981
0.00300956
0.00193203
-6.30084e-08
-0.00206233
-0.00354449
-0.00419248
-0.00403415
-0.00394091
-0.00403148
-0.00418056
-0.615618
-0.416862
-0.187535
0.00558686
0.161572
0.286652
0.39164
0.480227
0.520061
0.497424
-0.255374
-0.11554
0.0324316
0.16054
0.269166
0.359822
0.433393
0.485726
0.512579
0.52418
-0.00315524
0.0913547
0.191349
0.280157
0.356796
0.421056
0.472109
0.509376
0.535855
0.553307
0.177276
0.242839
0.3129
0.376864
0.432453
0.479557
0.518069
0.548547
0.572993
0.590955
0.315145
0.362797
0.413506
0.461751
0.504232
0.541154
0.572553
0.598452
0.619863
0.6375
0.427187
0.462891
0.503963
0.542362
0.577403
0.608627
0.635752
0.658386
0.676915
0.694172
0.524505
0.554837
0.590866
0.624728
0.656186
0.684618
0.709362
0.729815
0.745789
0.762844
0.616059
0.646289
0.681556
0.714671
0.745214
0.772604
0.796115
0.815081
0.828784
0.845833
0.713229
0.746979
0.784414
0.818683
0.849327
0.876027
0.898396
0.915985
0.928091
0.945521
0.829456
0.867423
0.906591
0.941316
0.971034
0.996097
1.01673
1.03282
1.04445
1.06255
0.97519
1.01399
1.05021
1.08113
1.10703
1.12932
1.14853
1.16418
1.17671
1.19474
1.15036
1.18233
1.20867
1.23121
1.25131
1.27015
1.28795
1.3045
1.31992
1.33801
1.33922
1.35655
1.37175
1.38809
1.40406
1.41865
1.43191
1.44589
1.46347
1.48364
1.52131
1.53075
1.54233
1.55317
1.56249
1.57213
1.58299
1.59439
1.60578
1.62115
1.72846
1.73216
1.71724
1.70245
1.69623
1.70195
1.72044
1.75078
1.78298
1.80964
2.03481
1.89995
1.82335
1.78106
1.76366
1.76763
1.79506
1.85147
1.9541
2.17847
0.316164
0.314035
0.309548
0.30092
0.288692
0.276556
0.266314
0.258392
0.252724
0.249383
0.248898
0.251484
0.256452
0.263563
0.272865
0.284341
0.296944
0.307946
0.314044
0.317084
0.240621
0.246467
0.252808
0.257301
0.259768
0.259437
0.256687
0.25285
0.249287
0.246936
0.24665
0.248684
0.252202
0.256373
0.260085
0.261896
0.260905
0.257379
0.252181
0.245546
0.232219
0.234515
0.237923
0.240925
0.243006
0.244502
0.245245
0.244902
0.243823
0.242838
0.242857
0.244112
0.245764
0.246928
0.246995
0.246012
0.244388
0.241991
0.238686
0.235749
0.226734
0.22782
0.229662
0.232056
0.234093
0.235528
0.236542
0.237265
0.237604
0.237716
0.238035
0.238636
0.239044
0.238944
0.23839
0.237423
0.235854
0.233687
0.231541
0.230139
0.221576
0.222235
0.223361
0.225103
0.226922
0.228582
0.229886
0.230876
0.231692
0.232362
0.232892
0.233195
0.233155
0.232784
0.232033
0.230815
0.229242
0.227574
0.226172
0.225372
0.216673
0.217128
0.217938
0.219289
0.220834
0.222405
0.223909
0.225209
0.226283
0.227196
0.227875
0.228148
0.228006
0.227456
0.226503
0.225286
0.223963
0.222667
0.221646
0.221109
0.211963
0.212294
0.212934
0.21409
0.215484
0.216944
0.218448
0.219928
0.221273
0.222407
0.223236
0.223565
0.223356
0.222704
0.221767
0.220692
0.219569
0.21847
0.21766
0.217267
0.207445
0.207693
0.208219
0.209239
0.210543
0.211948
0.213412
0.214918
0.216399
0.217741
0.218756
0.219189
0.219039
0.218486
0.217692
0.216761
0.215768
0.214832
0.214178
0.213879
0.203072
0.203254
0.203692
0.204625
0.205875
0.207247
0.208692
0.210208
0.211787
0.213336
0.214576
0.215162
0.215163
0.21479
0.214169
0.213387
0.212518
0.211706
0.211169
0.210945
0.198852
0.198981
0.199352
0.200228
0.201463
0.202844
0.204353
0.205964
0.207621
0.209287
0.210764
0.211683
0.211981
0.2118
0.211297
0.210623
0.209864
0.209146
0.208708
0.208542
0.194778
0.194854
0.195166
0.196006
0.197243
0.198629
0.200134
0.201807
0.203673
0.20564
0.207449
0.208655
0.209172
0.20923
0.208972
0.208482
0.207843
0.207219
0.206867
0.206758
0.190966
0.191
0.19125
0.191992
0.193128
0.194457
0.195958
0.197666
0.199614
0.201799
0.204004
0.205688
0.206668
0.207113
0.207165
0.20694
0.206546
0.20612
0.20589
0.205832
0.187289
0.187292
0.187488
0.188119
0.18916
0.190458
0.192001
0.193872
0.196111
0.19871
0.201425
0.203601
0.204983
0.205748
0.206109
0.206193
0.206084
0.205898
0.20581
0.205785
0.183364
0.183368
0.183522
0.184032
0.184946
0.186176
0.187725
0.1897
0.192179
0.195215
0.198556
0.20142
0.203416
0.204748
0.205534
0.206022
0.206261
0.206361
0.20641
0.206401
0.178768
0.178763
0.178924
0.179393
0.18028
0.181553
0.183247
0.185503
0.188428
0.192092
0.196235
0.199882
0.202504
0.204329
0.205596
0.206441
0.20699
0.207327
0.207466
0.207463
0.173221
0.173214
0.173402
0.173918
0.174859
0.176258
0.178194
0.180837
0.184347
0.18883
0.193973
0.198583
0.201976
0.204422
0.206149
0.20737
0.208227
0.208746
0.208939
0.208941
0.166477
0.16646
0.166679
0.167314
0.168429
0.170087
0.172431
0.175663
0.179979
0.185515
0.191903
0.197668
0.201968
0.205093
0.207271
0.20887
0.210031
0.210701
0.210946
0.21096
0.158378
0.158344
0.158602
0.159406
0.16082
0.162906
0.165836
0.169874
0.17525
0.18213
0.190064
0.197235
0.20258
0.20646
0.209283
0.211331
0.212709
0.213487
0.213786
0.213815
0.148768
0.148715
0.14903
0.150025
0.15184
0.154485
0.158207
0.163288
0.170011
0.178577
0.188419
0.197303
0.203938
0.208778
0.212264
0.214758
0.216412
0.217361
0.21775
0.217796
0.137325
0.13725
0.137647
0.138885
0.141188
0.144571
0.149309
0.155732
0.164186
0.174873
0.187053
0.197991
0.206172
0.21214
0.216431
0.219463
0.221481
0.222654
0.223146
0.223204
0.123444
0.123351
0.12388
0.125465
0.128333
0.132729
0.138778
0.146963
0.157642
0.170986
0.186022
0.199419
0.209409
0.216708
0.221957
0.225651
0.228129
0.229595
0.230204
0.23027
0.106139
0.106032
0.106789
0.1089
0.112599
0.118246
0.126128
0.136689
0.15027
0.166956
0.185448
0.201743
0.213842
0.222676
0.229033
0.233524
0.236566
0.238367
0.239098
0.23917
0.0839624
0.0838553
0.0849884
0.0878947
0.0929071
0.100459
0.11092
0.124714
0.142074
0.162898
0.185489
0.205124
0.21962
0.230204
0.237847
0.243284
0.247007
0.249211
0.250084
0.250157
0.0545454
0.0544809
0.0563106
0.0606464
0.0678602
0.0784777
0.0927637
0.110999
0.133199
0.159028
0.186357
0.209737
0.226895
0.239439
0.248556
0.255106
0.259632
0.262293
0.263318
0.263387
0.0137016
0.0138335
0.0171984
0.0245465
0.0358677
0.0515655
0.0715335
0.0957545
0.123989
0.155682
0.188294
0.215727
0.235743
0.250423
0.261199
0.26906
0.274565
0.27776
0.278926
0.278977
-0.04625
-0.0448575
-0.0367179
-0.022953
-0.00395406
0.0198457
0.0478002
0.0796506
0.115024
0.153261
0.191512
0.223156
0.246127
0.26304
0.275607
0.284929
0.291569
0.295414
0.296742
0.296774
-0.118038
-0.115785
-0.100352
-0.0763887
-0.0468682
-0.0135633
0.0231689
0.0632296
0.106316
0.151867
0.196805
0.233858
0.260946
0.281174
0.296479
0.308091
0.316563
0.321383
0.32278
0.322938
-0.191898
-0.184603
-0.161861
-0.127925
-0.0886672
-0.0461454
-0.000701069
0.0475702
0.0984214
0.151344
0.203086
0.245675
0.276944
0.300547
0.318754
0.33287
0.343259
0.348673
0.350905
0.351456
-0.250576
-0.241511
-0.214018
-0.173349
-0.12657
-0.076283
-0.0230918
0.0327499
0.0909039
0.15081
0.208883
0.256442
0.291308
0.317632
0.337927
0.353658
0.365304
0.371932
0.375164
0.375891
-0.298227
-0.288625
-0.257688
-0.212139
-0.159649
-0.103189
-0.0435416
0.0189018
0.0836033
0.149875
0.213706
0.265628
0.303447
0.331843
0.353658
0.370575
0.383165
0.390795
0.394347
0.39514
-0.338027
-0.328249
-0.295077
-0.245796
-0.188689
-0.127165
-0.0620879
0.00604576
0.0765445
0.148527
0.217518
0.273242
0.313502
0.343481
0.366345
0.383967
0.397092
0.405287
0.409046
0.409883
-0.372578
-0.362753
-0.327925
-0.275598
-0.21473
-0.148946
-0.0791743
-0.0060491
0.0696178
0.146777
0.220459
0.27959
0.321934
0.353149
0.376703
0.394669
0.407985
0.416355
0.420145
0.421051
-0.403455
-0.39363
-0.357556
-0.302694
-0.238659
-0.169201
-0.0953166
-0.0177376
0.0626268
0.144563
0.222643
0.284956
0.329219
0.361513
0.385591
0.40375
0.417094
0.425572
0.429324
0.430239
-0.431857
-0.422008
-0.384894
-0.32787
-0.261137
-0.188467
-0.110934
-0.0293327
0.0553476
0.14177
0.22408
0.28953
0.335659
0.368993
0.393594
0.411981
0.425387
0.433888
0.437685
0.438414
-0.458553
-0.448653
-0.410612
-0.35176
-0.282604
-0.207089
-0.126314
-0.0410715
0.0475991
0.138279
0.224719
0.293318
0.341426
0.375922
0.401149
0.419819
0.433315
0.441809
0.445597
0.446228
-0.484014
-0.474066
-0.435182
-0.374735
-0.303393
-0.225352
-0.141665
-0.0531121
0.0392507
0.133974
0.224504
0.296411
0.346713
0.382553
0.40854
0.427605
0.441272
0.449763
0.453501
0.454115
-0.508665
-0.498566
-0.458869
-0.396992
-0.32372
-0.243421
-0.157112
-0.0655569
0.0302221
0.128804
0.223445
0.298855
0.351556
0.388963
0.415901
0.435508
0.449437
0.45797
0.461589
0.46219
-0.532666
-0.522343
-0.481951
-0.418699
-0.343702
-0.261393
-0.172731
-0.0784507
0.020484
0.122749
0.221465
0.300532
0.355933
0.395177
0.423285
0.443582
0.457855
0.466445
0.469934
0.470483
-0.556062
-0.545535
-0.50449
-0.439952
-0.36341
-0.279302
-0.188538
-0.0918012
0.0100199
0.11573
0.218439
0.301356
0.359782
0.401182
0.430692
0.451827
0.466504
0.475131
0.478468
0.478914
-0.57899
-0.56818
-0.526439
-0.460769
-0.382856
-0.297145
-0.204514
-0.105594
-0.00117324
0.10772
0.214311
0.301216
0.36297
0.406893
0.438091
0.460222
0.475346
0.483985
0.487113
0.487421
-0.601359
-0.590283
-0.547866
-0.481151
-0.402008
-0.314884
-0.220615
-0.119779
-0.0130543
0.0987422
0.209028
0.299961
0.365342
0.412198
0.44545
0.468762
0.484319
0.492845
0.495698
0.495863
-0.623189
-0.61184
-0.568745
-0.501077
-0.42083
-0.332471
-0.236777
-0.134274
-0.025538
0.0888368
0.20254
0.297459
0.366688
0.416925
0.452726
0.477496
0.493433
0.501624
0.504058
0.50407
-0.644342
-0.632772
-0.589016
-0.52049
-0.439264
-0.349822
-0.25292
-0.148992
-0.0385378
0.0780694
0.194843
0.293592
0.366784
0.420822
0.459825
0.486581
0.50287
0.510296
0.512014
0.511843
-0.664899
-0.653031
-0.608651
-0.539351
-0.457264
-0.366888
-0.268945
-0.163843
-0.0519572
0.0665403
0.18597
0.288264
0.365399
0.423539
0.466502
0.49621
0.513209
0.519213
0.519469
0.518974
-0.684735
-0.672574
-0.627619
-0.557608
-0.47475
-0.383585
-0.284771
-0.178704
-0.0656742
0.0543404
0.175997
0.281422
0.362328
0.424627
0.472219
0.50632
0.525473
0.529926
0.527098
0.52518
-0.703876
-0.691463
-0.645871
-0.57521
-0.491681
-0.399843
-0.300313
-0.19349
-0.0795662
0.0416238
0.165034
0.273043
0.35743
0.42361
0.476014
0.516017
0.540131
0.545869
0.539362
0.528526
-0.72225
-0.709638
-0.663511
-0.592304
-0.508262
-0.415942
-0.315906
-0.208609
-0.0941015
0.0278528
0.152491
0.262465
0.350041
0.419802
0.476379
0.523229
0.555314
0.566385