/*--------------------------------*- C++ -*----------------------------------*\
  =========                 |
  \\      /  F ield         | OpenFOAM: The Open Source CFD Toolbox
   \\    /   O peration     | Website:  https://openfoam.org
    \\  /    A nd           | Version:  10
     \\/     M anipulation  |
\*---------------------------------------------------------------------------*/
FoamFile
{
    format      ascii;
    class       volVectorField;
    location    "24";
    object      U;
}
// * * * * * * * * * * * * * * * * * * * * * * * * * * * * * * * * * * * * * //

dimensions      [0 1 -1 0 0 0 0];

internalField   nonuniform List<vector> 
8800
(
(0.980144 -0.0915206 0)
(1.00234 -0.0587271 0)
(0.99961 -0.0321248 0)
(0.999999 -0.0165141 0)
(1.00004 -0.00882348 0)
(1.00002 -0.00506949 0)
(1.00002 -0.00297139 0)
(1.00001 -0.00168359 0)
(1 -0.000811574 0)
(1.00005 -0.000128044 0)
(0.999998 0.000562035 0)
(1 0.00131387 0)
(1.00001 0.00234687 0)
(1.00002 0.00396221 0)
(1.00003 0.00671526 0)
(1.00004 0.0120287 0)
(0.999883 0.0230856 0)
(0.99908 0.0431548 0)
(1.00721 0.0790306 0)
(0.775022 0.0478396 0)
(0.358991 -0.0147482 0)
(1.0465 -0.0724838 0)
(1.0885 -0.0660238 0)
(1.04948 -0.0509128 0)
(1.02554 -0.0376858 0)
(1.01268 -0.0258768 0)
(1.00648 -0.0166807 0)
(1.00356 -0.0102254 0)
(1.00215 -0.00564762 0)
(1.00151 -0.00210803 0)
(1.00139 0.00105545 0)
(1.00174 0.00433839 0)
(1.00269 0.00823157 0)
(1.00471 0.0135618 0)
(1.00897 0.0212677 0)
(1.018 0.031774 0)
(1.03592 0.0445715 0)
(1.06753 0.0580425 0)
(1.09477 0.0699719 0)
(0.845746 0.0554927 0)
(0.217802 -0.00137859 0)
(1.0757 -0.0506265 0)
(1.09943 -0.0489091 0)
(1.06436 -0.0399958 0)
(1.03982 -0.0325343 0)
(1.0237 -0.0253196 0)
(1.01395 -0.0181421 0)
(1.00847 -0.0115979 0)
(1.00563 -0.00592544 0)
(1.00448 -0.000716698 0)
(1.00481 0.00433665 0)
(1.00667 0.00960814 0)
(1.01061 0.015587 0)
(1.01792 0.0223657 0)
(1.03054 0.0294989 0)
(1.05059 0.0366223 0)
(1.08021 0.0444227 0)
(1.10586 0.0517828 0)
(0.943572 0.0409342 0)
(0.217393 0.00139491 0)
(0.176696 -0.000626636 0)
(1.01948 -0.0354097 0)
(1.10576 -0.0413396 0)
(1.07798 -0.036307 0)
(1.05235 -0.0302362 0)
(1.03502 -0.0243669 0)
(1.02317 -0.0186425 0)
(1.01541 -0.0127664 0)
(1.01085 -0.0068082 0)
(1.00887 -0.000709203 0)
(1.00943 0.00534075 0)
(1.01252 0.0111973 0)
(1.01847 0.0169532 0)
(1.02808 0.0225392 0)
(1.04236 0.0281147 0)
(1.0633 0.0339546 0)
(1.09419 0.0399142 0)
(1.09486 0.0415201 0)
(0.83094 0.0226566 0)
(0.176005 0.000639742 0)
(0.154856 -0.000459844 0)
(0.958396 -0.025579 0)
(1.10441 -0.0349686 0)
(1.088 -0.0325565 0)
(1.06108 -0.028108 0)
(1.04296 -0.0231708 0)
(1.03058 -0.0179123 0)
(1.02201 -0.012482 0)
(1.0165 -0.00674418 0)
(1.01389 -0.000489211 0)
(1.0146 0.00580209 0)
(1.01846 0.0115874 0)
(1.02527 0.0169069 0)
(1.03546 0.0219922 0)
(1.05029 0.0268867 0)
(1.07232 0.0313483 0)
(1.10145 0.0352403 0)
(1.07049 0.0335493 0)
(0.743995 0.0142681 0)
(0.153827 0.000474668 0)
(0.140305 -0.000329259 0)
(0.901784 -0.0191115 0)
(1.09691 -0.0298747 0)
(1.09603 -0.0289314 0)
(1.06862 -0.0251302 0)
(1.0497 -0.0211438 0)
(1.03674 -0.016659 0)
(1.02777 -0.0116664 0)
(1.02186 -0.00620662 0)
(1.01895 -0.000106041 0)
(1.01966 0.00605067 0)
(1.02378 0.0115616 0)
(1.03089 0.0164608 0)
(1.04149 0.0208641 0)
(1.05696 0.0247687 0)
(1.0799 0.0283425 0)
(1.10402 0.0312077 0)
(1.03949 0.0274637 0)
(0.678313 0.0100298 0)
(0.138861 0.000347101 0)
(0.129766 -0.000247756 0)
(0.852584 -0.0145721 0)
(1.08477 -0.025579 0)
(1.10174 -0.0259314 0)
(1.07532 -0.022682 0)
(1.05572 -0.0191195 0)
(1.04224 -0.0151353 0)
(1.0329 -0.0105595 0)
(1.02675 -0.00538383 0)
(1.02365 0.000390112 0)
(1.02431 0.00616495 0)
(1.02848 0.0113159 0)
(1.03577 0.0157867 0)
(1.04673 0.0196394 0)
(1.06274 0.0230117 0)
(1.08629 0.0260923 0)
(1.1037 0.027995 0)
(1.00602 0.0226108 0)
(0.627905 0.00751164 0)
(0.12782 0.000269555 0)
(0.121906 -0.000184197 0)
(0.811378 -0.0111569 0)
(1.06975 -0.0215285 0)
(1.10494 -0.0227965 0)
(1.08119 -0.0201035 0)
(1.06127 -0.0169045 0)
(1.04752 -0.0132917 0)
(1.03783 -0.00915729 0)
(1.03132 -0.00443985 0)
(1.02798 0.000965373 0)
(1.02856 0.00639834 0)
(1.03284 0.0110444 0)
(1.04036 0.0149514 0)
(1.0515 0.0182857 0)
(1.06773 0.0211852 0)
(1.09152 0.0238308 0)
(1.10049 0.0248551 0)
(0.972897 0.0185346 0)
(0.588608 0.00577883 0)
(0.119351 0.000211008 0)
(0.116016 -0.000138953 0)
(0.777605 -0.00849094 0)
(1.05377 -0.0178344 0)
(1.10714 -0.019681 0)
(1.08657 -0.0172918 0)
(1.06618 -0.0143304 0)
(1.05214 -0.0111724 0)
(1.04229 -0.00752628 0)
(1.03561 -0.0032475 0)
(1.0321 0.00171148 0)
(1.03251 0.00663364 0)
(1.03671 0.0107246 0)
(1.0442 0.0140237 0)
(1.05542 0.0167351 0)
(1.07194 0.0191554 0)
(1.09565 0.0215338 0)
(1.09509 0.0219419 0)
(0.941835 0.015164 0)
(0.55757 0.0045055 0)
(0.112718 0.000172355 0)
(0.111705 -9.88824e-05 0)
(0.750645 -0.00626743 0)
(1.03779 -0.0143079 0)
(1.10838 -0.0166989 0)
(1.09158 -0.0148588 0)
(1.0707 -0.0122634 0)
(1.05638 -0.00932877 0)
(1.04647 -0.00584728 0)
(1.03969 -0.00185321 0)
(1.03596 0.00261102 0)
(1.03618 0.00692243 0)
(1.04021 0.0104907 0)
(1.0475 0.0133996 0)
(1.05867 0.0157579 0)
(1.07564 0.0177664 0)
(1.09868 0.0195644 0)
(1.08777 0.0191566 0)
(0.913649 0.0122436 0)
(0.533119 0.00350394 0)
(0.1075 0.000140456 0)
(0.108684 -6.9269e-05 0)
(0.729965 -0.00434749 0)
(1.02281 -0.0108584 0)
(1.10821 -0.0134788 0)
(1.0956 -0.0122018 0)
(1.07474 -0.00985167 0)
(1.06016 -0.00712407 0)
(1.04993 -0.00396994 0)
(1.04289 -0.000349243 0)
(1.03892 0.00369129 0)
(1.03887 0.00753236 0)
(1.04268 0.0105226 0)
(1.04998 0.0128375 0)
(1.06129 0.014731 0)
(1.07828 0.0163141 0)
(1.09974 0.0174722 0)
(1.07877 0.0162828 0)
(0.888978 0.00968127 0)
(0.514016 0.00269114 0)
(0.10336 0.000121411 0)
(0.10687 -3.21521e-05 0)
(0.715371 -0.00251367 0)
(1.01013 -0.0073652 0)
(1.10744 -0.00974748 0)
(1.09924 -0.00869188 0)
(1.07859 -0.00669762 0)
(1.06394 -0.00445627 0)
(1.0536 -0.00170208 0)
(1.0464 0.00146875 0)
(1.04217 0.00500579 0)
(1.04176 0.00824981 0)
(1.04526 0.0105368 0)
(1.05228 0.0121021 0)
(1.06337 0.0131917 0)
(1.0803 0.0141418 0)
(1.09971 0.0148787 0)
(1.06931 0.0133082 0)
(0.868339 0.00731321 0)
(0.499709 0.00194842 0)
(0.100166 9.80432e-05 0)
(0.106273 4.73764e-06 0)
(0.706327 -0.000955589 0)
(0.999943 -0.00429284 0)
(1.10642 -0.00652905 0)
(1.10217 -0.00583581 0)
(1.08153 -0.0041988 0)
(1.06673 -0.00227282 0)
(1.05635 0.000255224 0)
(1.04905 0.00326506 0)
(1.04457 0.00655999 0)
(1.0437 0.00942105 0)
(1.04665 0.011325 0)
(1.05325 0.0124676 0)
(1.0641 0.0130028 0)
(1.08114 0.0131899 0)
(1.09873 0.0131841 0)
(1.0596 0.0109354 0)
(0.851367 0.00541771 0)
(0.489444 0.00139641 0)
(0.0978475 7.29743e-05 0)
(0.10664 4.65174e-05 0)
(0.701987 0.000144002 0)
(0.99216 -0.00172993 0)
(1.10457 -0.00371979 0)
(1.10425 -0.00346344 0)
(1.08426 -0.00212341 0)
(1.06959 -0.000199713 0)
(1.05928 0.00239362 0)
(1.05181 0.00538399 0)
(1.04685 0.0084875 0)
(1.04546 0.0109817 0)
(1.04793 0.012438 0)
(1.05396 0.0130438 0)
(1.06425 0.0131537 0)
(1.08077 0.0129853 0)
(1.09594 0.0121968 0)
(1.04924 0.00922875 0)
(0.837606 0.00432027 0)
(0.481804 0.00115861 0)
(0.0961117 5.75707e-05 0)
(0.107677 6.00335e-05 0)
(0.701021 0.000805013 0)
(0.987385 8.31049e-05 0)
(1.10276 -0.00114603 0)
(1.10588 -0.000894196 0)
(1.08695 0.000392823 0)
(1.07256 0.00246274 0)
(1.06225 0.00513309 0)
(1.05453 0.008011 0)
(1.04907 0.0108588 0)
(1.047 0.0129628 0)
(1.04868 0.013848 0)
(1.05406 0.0139213 0)
(1.06388 0.0134909 0)
(1.07969 0.0129141 0)
(1.09202 0.0116467 0)
(1.0391 0.0084636 0)
(0.82613 0.00416629 0)
(0.474962 0.00122442 0)
(0.0944972 6.04802e-05 0)
(0.109119 7.7115e-05 0)
(0.70191 0.00121607 0)
(0.98559 0.0012656 0)
(1.10231 0.00109224 0)
(1.10782 0.00200183 0)
(1.08988 0.0036496 0)
(1.07556 0.00595344 0)
(1.06496 0.00857685 0)
(1.05675 0.0112858 0)
(1.05068 0.0138099 0)
(1.04775 0.0153656 0)
(1.04871 0.0156287 0)
(1.05346 0.0152174 0)
(1.06261 0.0143931 0)
(1.07778 0.0133021 0)
(1.08767 0.0117497 0)
(1.0298 0.00874604 0)
(0.815307 0.00463317 0)
(0.467578 0.00143253 0)
(0.0926589 7.47498e-05 0)
(0.110972 9.17967e-05 0)
(0.704265 0.00169036 0)
(0.985799 0.00218094 0)
(1.10387 0.00255073 0)
(1.11123 0.00417077 0)
(1.09342 0.00633812 0)
(1.0788 0.00899923 0)
(1.06787 0.0118924 0)
(1.05918 0.0148244 0)
(1.0523 0.017393 0)
(1.04833 0.018712 0)
(1.04831 0.0185394 0)
(1.0524 0.0174695 0)
(1.06097 0.0161857 0)
(1.07538 0.0149139 0)
(1.08334 0.0133202 0)
(1.02056 0.010069 0)
(0.803458 0.00535742 0)
(0.459089 0.00168935 0)
(0.0904268 9.59299e-05 0)
(0.113349 0.000112301 0)
(0.708211 0.00238836 0)
(0.986667 0.00331185 0)
(1.1061 0.00365953 0)
(1.11546 0.00520357 0)
(1.09765 0.00768617 0)
(1.08263 0.0109941 0)
(1.07124 0.0146588 0)
(1.06189 0.018446 0)
(1.05396 0.0217578 0)
(1.04869 0.0235155 0)
(1.04744 0.0234896 0)
(1.05046 0.0222908 0)
(1.0587 0.0204728 0)
(1.07285 0.0185776 0)
(1.07826 0.0164448 0)
(1.00907 0.0117939 0)
(0.789752 0.00602737 0)
(0.449447 0.00195424 0)
(0.0877273 0.000118872 0)
(0.116473 0.000147715 0)
(0.714655 0.00341738 0)
(0.988131 0.00522571 0)
(1.10764 0.00525441 0)
(1.11936 0.00633234 0)
(1.10253 0.00882062 0)
(1.08744 0.0128018 0)
(1.07576 0.0176337 0)
(1.06562 0.0226993 0)
(1.05633 0.0271814 0)
(1.04955 0.0297626 0)
(1.0469 0.0301842 0)
(1.04857 0.0291713 0)
(1.05538 0.0271552 0)
(1.06857 0.0243958 0)
(1.06968 0.0200581 0)
(0.993897 0.0133155 0)
(0.774539 0.00668327 0)
(0.438692 0.00225793 0)
(0.0845442 0.000142693 0)
(0.120659 0.000199889 0)
(0.724679 0.00480507 0)
(0.991572 0.00794144 0)
(1.10815 0.00839801 0)
(1.12273 0.00901865 0)
(1.10778 0.0114527 0)
(1.09356 0.0163012 0)
(1.08161 0.0223517 0)
(1.07036 0.0285985 0)
(1.05939 0.0340135 0)
(1.05077 0.0370128 0)
(1.0464 0.0374106 0)
(1.04637 0.036059 0)
(1.05127 0.0334265 0)
(1.06107 0.0291825 0)
(1.05626 0.0227099 0)
(0.97596 0.0145182 0)
(0.758352 0.00750971 0)
(0.426554 0.00263782 0)
(0.0808004 0.00016833 0)
(0.126321 0.000276519 0)
(0.739264 0.00658745 0)
(0.998807 0.011457 0)
(1.10953 0.0133954 0)
(1.1258 0.0142447 0)
(1.11392 0.0174561 0)
(1.10098 0.0231843 0)
(1.08855 0.0300987 0)
(1.07581 0.0369963 0)
(1.0627 0.0426073 0)
(1.05175 0.0451668 0)
(1.04533 0.0446744 0)
(1.0432 0.0421389 0)
(1.04546 0.0382062 0)
(1.05032 0.0324058 0)
(1.03995 0.0245825 0)
(0.957289 0.0159968 0)
(0.741111 0.0087285 0)
(0.412502 0.00313704 0)
(0.076411 0.000197014 0)
(0.133951 0.00038634 0)
(0.759303 0.00891207 0)
(1.01137 0.0158891 0)
(1.11479 0.0198822 0)
(1.13058 0.0224833 0)
(1.12154 0.0272234 0)
(1.10935 0.0338218 0)
(1.09603 0.0412431 0)
(1.08133 0.0482387 0)
(1.06555 0.0532773 0)
(1.0518 0.0545234 0)
(1.04282 0.0523072 0)
(1.03822 0.0479489 0)
(1.03726 0.042219 0)
(1.03757 0.0351508 0)
(1.02299 0.0268878 0)
(0.938636 0.018348 0)
(0.721932 0.010472 0)
(0.39585 0.00379484 0)
(0.0712257 0.000231301 0)
(0.144278 0.000552992 0)
(0.78593 0.012195 0)
(1.03047 0.0216255 0)
(1.12566 0.0280408 0)
(1.13934 0.0331631 0)
(1.13102 0.0399085 0)
(1.11856 0.0477455 0)
(1.10365 0.0556973 0)
(1.08638 0.0624815 0)
(1.06733 0.0663677 0)
(1.05024 0.0656252 0)
(1.03831 0.0611432 0)
(1.03098 0.054695 0)
(1.0269 0.0471722 0)
(1.02373 0.0391186 0)
(1.00606 0.0306179 0)
(0.919177 0.0217677 0)
(0.699898 0.0127056 0)
(0.375941 0.00455854 0)
(0.0650696 0.000267658 0)
(0.158551 0.000818911 0)
(0.820913 0.0170348 0)
(1.05714 0.029419 0)
(1.14264 0.0383755 0)
(1.15294 0.046447 0)
(1.14324 0.0556414 0)
(1.12898 0.0650928 0)
(1.11135 0.0736628 0)
(1.09064 0.0799928 0)
(1.06762 0.0822881 0)
(1.04671 0.0791412 0)
(1.03158 0.0721653 0)
(1.0214 0.0635064 0)
(1.01459 0.0542919 0)
(1.00879 0.0452248 0)
(0.988454 0.0361892 0)
(0.897419 0.0263925 0)
(0.673473 0.0155205 0)
(0.352006 0.00548938 0)
(0.0578584 0.000308745 0)
(0.178964 0.00129135 0)
(0.867383 0.0247191 0)
(1.09301 0.0409635 0)
(1.16634 0.0527211 0)
(1.17172 0.0642013 0)
(1.15858 0.0759802 0)
(1.14067 0.0869584 0)
(1.11893 0.0958406 0)
(1.09379 0.101256 0)
(1.06614 0.101458 0)
(1.04102 0.0955343 0)
(1.02252 0.0858962 0)
(1.00952 0.0749704 0)
(1.0003 0.06402 0)
(0.992298 0.0537219 0)
(0.969004 0.0436947 0)
(0.871824 0.0322728 0)
(0.64154 0.0189789 0)
(0.323482 0.00657791 0)
(0.0495041 0.00034718 0)
(0.208862 0.00236178 0)
(0.93106 0.0382403 0)
(1.14008 0.0602792 0)
(1.19728 0.0745215 0)
(1.19531 0.0897426 0)
(1.17641 0.103442 0)
(1.15297 0.115026 0)
(1.12575 0.123265 0)
(1.09529 0.12687 0)
(1.06253 0.124225 0)
(1.03301 0.115029 0)
(1.01107 0.102507 0)
(0.995346 0.0892552 0)
(0.983856 0.0764813 0)
(0.973659 0.0647632 0)
(0.946427 0.0533784 0)
(0.840864 0.0396207 0)
(0.603054 0.0231665 0)
(0.290577 0.00787621 0)
(0.0403013 0.000373213 0)
(0.250006 0.00882217 -1.25604e-20)
(1.01548 0.0657832 -9.74587e-21)
(1.1958 0.0930103 2.71174e-21)
(1.23386 0.110052 0)
(1.22105 0.126963 2.2267e-36)
(1.19464 0.140593 1.33686e-22)
(1.16444 0.151047 -1.24864e-21)
(1.13086 0.157338 0)
(1.09443 0.158214 4.78003e-35)
(1.05604 0.152143 -3.64325e-21)
(1.02168 0.139423 0)
(0.995923 0.123971 -5.24113e-21)
(0.977111 0.10844 -1.60431e-20)
(0.962993 0.0939483 -7.76622e-21)
(0.950102 0.0810122 -2.445e-21)
(0.918536 0.0685115 -1.47871e-21)
(0.800969 0.0516925 0)
(0.554401 0.0304579 1.05686e-21)
(0.252999 0.0113351 1.25118e-21)
(0.0319974 0.00109785 2.22008e-20)
(0.277293 0.0248219 -2.3511e-20)
(1.0848 0.109597 5.07203e-22)
(1.24256 0.140864 -1.34834e-21)
(1.26683 0.159224 0)
(1.24419 0.174568 2.07163e-21)
(1.21047 0.18656 1.08781e-21)
(1.17343 0.195138 -7.94287e-22)
(1.13331 0.199233 -6.16212e-21)
(1.09044 0.197517 0)
(1.04552 0.188352 1.54817e-20)
(1.00519 0.172535 1.71537e-20)
(0.974375 0.154534 5.5253e-21)
(0.951298 0.136998 2.18269e-20)
(0.93343 0.120791 3.21309e-20)
(0.91623 0.106285 0)
(0.877577 0.0919796 4.7678e-20)
(0.752114 0.0717623 6.93635e-20)
(0.505009 0.0447442 7.73306e-20)
(0.222892 0.0188489 -8.91196e-20)
(0.0261473 0.00225695 -1.64937e-21)
(0.275757 0.040365 0)
(1.12683 0.166476 -7.29421e-21)
(1.27588 0.200685 0)
(1.29225 0.218171 1.16984e-20)
(1.26226 0.230013 0)
(1.22222 0.238674 5.76375e-21)
(1.17895 0.244038 8.45054e-22)
(1.13272 0.244936 -9.10229e-21)
(1.08386 0.239941 -1.56691e-21)
(1.03285 0.227414 7.51875e-21)
(0.986937 0.208562 4.01366e-20)
(0.951598 0.188369 -3.03091e-22)
(0.92472 0.16934 -1.64299e-20)
(0.903536 0.152184 -3.19026e-20)
(0.883315 0.136854 3.86531e-20)
(0.842912 0.121448 -6.94739e-20)
(0.722954 0.0976426 -9.46478e-21)
(0.491255 0.0646867 0)
(0.228636 0.0300412 5.83969e-23)
(0.0299076 0.00421498 0)
(0.267975 0.0539701 -1.81638e-19)
(1.14779 0.226259 7.51364e-20)
(1.29701 0.265477 4.0339e-20)
(1.30893 0.281785 -7.69721e-21)
(1.27387 0.289808 1.17368e-20)
(1.22904 0.294513 -1.39117e-20)
(1.18073 0.29603 9.25569e-22)
(1.12926 0.293205 0)
(1.07506 0.284533 -2.95019e-20)
(1.01866 0.26838 0)
(0.967831 0.24649 -2.05352e-20)
(0.928589 0.224251 -2.89151e-20)
(0.898625 0.204009 -1.84846e-20)
(0.874957 0.186116 -2.38446e-20)
(0.852936 0.170251 0)
(0.813329 0.153917 0)
(0.704749 0.127726 -6.39254e-20)
(0.493744 0.0895787 1.27408e-20)
(0.243589 0.0446473 -7.40671e-21)
(0.0361804 0.00704848 -8.65254e-21)
(0.259859 0.0661367 1.34873e-19)
(1.15551 0.285697 0)
(1.3089 0.331523 -1.1343e-19)
(1.31794 0.346654 -2.90311e-20)
(1.27929 0.351029 -2.1915e-20)
(1.2309 0.351794 0)
(1.17864 0.349419 -2.62461e-21)
(1.12292 0.342729 8.16392e-21)
(1.0642 0.330257 1.29374e-20)
(1.00314 0.310359 3.83531e-20)
(0.948161 0.285371 0)
(0.90577 0.261036 -6.32431e-20)
(0.873451 0.239612 -4.05178e-20)
(0.847955 0.221121 -2.44555e-20)
(0.824819 0.204973 1.60366e-19)
(0.787023 0.187979 1.97037e-20)
(0.689846 0.16034 9.37895e-20)
(0.49766 0.116079 -4.51075e-19)
(0.256592 0.0607681 2.68324e-19)
(0.0415918 0.010269 -3.23414e-19)
(0.252571 0.077141 1.42753e-19)
(1.1549 0.342909 -2.65443e-20)
(1.31377 0.396758 2.0012e-20)
(1.32084 0.41098 5.42643e-20)
(1.27961 0.411956 3.31281e-20)
(1.2285 0.408997 1.691e-21)
(1.17311 0.402886 2.24201e-21)
(1.11391 0.392434 6.10463e-21)
(1.05143 0.376183 -2.8569e-20)
(0.98638 0.352543 0)
(0.927927 0.324359 -2.71564e-20)
(0.883052 0.297837 -1.5442e-21)
(0.849055 0.275062 -4.54701e-20)
(0.822443 0.255909 0)
(0.798906 0.239465 -3.50882e-20)
(0.763203 0.222143 -8.54641e-20)
(0.674701 0.193125 2.35689e-19)
(0.496818 0.142699 -2.33975e-19)
(0.262598 0.0764141 3.32366e-19)
(0.0447751 0.0133152 -3.46159e-19)
(0.246695 0.0873781 -4.15477e-22)
(1.14928 0.397296 3.25813e-20)
(1.31336 0.45991 9.57774e-20)
(1.31904 0.473584 -3.33121e-20)
(1.27589 0.471525 1.89351e-20)
(1.22266 0.465168 0)
(1.16476 0.455565 8.38943e-21)
(1.10267 0.441543 -4.71155e-21)
(1.03698 0.42165 -1.3079e-20)
(0.968525 0.39428 0)
(0.907082 0.362817 -2.66227e-20)
(0.860192 0.333915 -3.74402e-20)
(0.825028 0.309535 4.98619e-20)
(0.797834 0.28943 -3.19445e-20)
(0.774408 0.272385 -1.55019e-19)
(0.740763 0.254413 9.53308e-20)
(0.658923 0.223552 2.99347e-20)
(0.490754 0.166635 0)
(0.262145 0.0896818 -3.23136e-19)
(0.0455275 0.0157215 -1.18937e-20)
(0.242169 0.0971571 2.34812e-20)
(1.14073 0.448706 -3.75297e-20)
(1.30909 0.52042 -5.24312e-20)
(1.31373 0.533847 -1.02488e-19)
(1.2691 0.529135 9.2117e-20)
(1.21418 0.519723 -4.86512e-20)
(1.15422 0.50691 -1.7568e-20)
(1.08969 0.489561 -6.83234e-21)
(1.02119 0.466208 1.30563e-20)
(0.949725 0.435197 -9.43705e-20)
(0.885689 0.400356 -3.27876e-20)
(0.837046 0.368817 0)
(0.800962 0.34252 5.46158e-20)
(0.773528 0.32107 6.75985e-20)
(0.750428 0.303026 8.32969e-20)
(0.71856 0.284012 -1.04118e-19)
(0.641572 0.250819 -3.13142e-20)
(0.480058 0.187179 3.70039e-20)
(0.257098 0.100338 0)
(0.044807 0.0175076 -2.59362e-20)
(0.238803 0.106613 -2.73031e-19)
(1.1307 0.497273 1.71995e-19)
(1.3021 0.578045 5.77438e-20)
(1.30582 0.591415 -7.83126e-20)
(1.25999 0.58441 5.52042e-20)
(1.20371 0.572278 -3.93596e-21)
(1.14204 0.556569 1.70355e-20)
(1.07541 0.536173 -3.04792e-21)
(1.00444 0.509577 -2.36843e-20)
(0.930201 0.47505 1.95455e-22)
(0.863767 0.436783 -9.80103e-20)
(0.813681 0.402408 9.5607e-20)
(0.776863 0.373884 -6.12711e-20)
(0.749281 0.350673 7.62709e-20)
(0.726568 0.331304 0)
(0.69611 0.31085 -5.65606e-20)
(0.62244 0.2747 -1.10602e-21)
(0.465481 0.204473 -1.62017e-19)
(0.248079 0.108317 -2.38837e-20)
(0.0427843 0.0185895 0)
(0.236414 0.11586 0)
(1.12002 0.543226 1.86968e-19)
(1.29316 0.632667 1.34762e-19)
(1.29603 0.646182 8.84463e-20)
(1.24919 0.637157 5.30462e-20)
(1.19181 0.622614 0)
(1.12871 0.604318 1.68124e-20)
(1.06025 0.581168 -1.1929e-21)
(0.987039 0.551596 5.04469e-20)
(0.910227 0.513736 -1.16091e-20)
(0.841489 0.472026 -7.18955e-20)
(0.78997 0.434612 4.78917e-20)
(0.752468 0.403601 -1.97566e-21)
(0.724755 0.378371 8.03291e-20)
(0.702449 0.357311 5.25347e-20)
(0.673068 0.334984 -1.23135e-19)
(0.601467 0.295205 1.48719e-19)
(0.447717 0.218229 4.43132e-20)
(0.235987 0.113785 1.82907e-19)
(0.0398182 0.0189741 -4.89812e-19)
(0.234921 0.125005 -7.0207e-20)
(1.10927 0.586744 1.07953e-19)
(1.28303 0.684364 -8.40775e-20)
(1.28491 0.698111 -1.0276e-19)
(1.23724 0.68728 0)
(1.17894 0.670612 4.26917e-20)
(1.11462 0.650031 -4.81196e-20)
(1.04454 0.624422 1.73835e-21)
(0.969292 0.59216 0)
(0.890003 0.551188 -1.80143e-19)
(0.818899 0.506088 1.9618e-19)
(0.765771 0.465501 0)
(0.727555 0.431662 7.25395e-20)
(0.699738 0.404106 -1.97468e-21)
(0.677763 0.381075 -1.66164e-19)
(0.649073 0.356488 6.53741e-20)
(0.578606 0.312532 0)
(0.427353 0.22857 2.40238e-19)
(0.221592 0.11684 0)
(0.0362287 0.0188027 -2.33257e-19)
(0.2341 0.134104 7.83591e-20)
(1.09874 0.628015 1.23426e-19)
(1.27205 0.733152 -8.81532e-20)
(1.2729 0.747198 0)
(1.22454 0.734767 7.3181e-20)
(1.16548 0.716234 0)
(1.10011 0.693637 6.3787e-20)
(1.0286 0.665862 6.50352e-21)
(0.951429 0.631214 5.35452e-21)
(0.869673 0.587395 -8.90532e-20)
(0.796088 0.539038 1.90664e-20)
(0.741238 0.495172 0)
(0.702089 0.458339 -1.54267e-19)
(0.674069 0.428163 2.03556e-21)
(0.652323 0.402841 0)
(0.623953 0.37557 2.39717e-21)
(0.553723 0.326791 2.18811e-19)
(0.404408 0.235488 -2.09878e-19)
(0.205247 0.117482 6.19616e-20)
(0.0321517 0.018024 0)
(0.233629 0.143004 0)
(1.08865 0.667101 1.38173e-19)
(1.26058 0.779189 1.03439e-19)
(1.26038 0.7935 -2.23913e-21)
(1.21143 0.779646 4.59484e-20)
(1.15173 0.759478 1.00527e-19)
(1.08546 0.735119 -2.03793e-20)
(1.01265 0.705461 1.81692e-21)
(0.933665 0.668731 3.14138e-20)
(0.84946 0.622393 -1.39119e-19)
(0.773269 0.570974 -3.19942e-21)
(0.716421 0.523815 -6.31721e-20)
(0.676104 0.483767 2.52755e-19)
(0.647684 0.450707 -2.41645e-21)
(0.626047 0.422776 -1.30786e-19)
(0.597624 0.392348 -2.38967e-19)
(0.526884 0.338061 0)
(0.379129 0.239139 0)
(0.187184 0.115651 6.77432e-20)
(0.0277756 0.0166718 -3.96712e-20)
(0.233728 0.151841 9.76002e-20)
(1.07907 0.703937 -3.02999e-19)
(1.24884 0.822584 -1.10847e-19)
(1.2476 0.837093 0)
(1.19815 0.821973 -1.53477e-21)
(1.13793 0.800371 1.20961e-19)
(1.07089 0.774487 -6.88387e-20)
(0.996907 0.743216 -2.77871e-20)
(0.916224 0.704721 3.29472e-20)
(0.829595 0.656213 -1.0743e-19)
(0.75059 0.602009 -1.66252e-19)
(0.691371 0.551614 1.68465e-19)
(0.649564 0.508195 0)
(0.620527 0.471931 -5.88079e-20)
(0.598852 0.441027 -1.43461e-19)
(0.570019 0.406877 -1.72961e-19)
(0.498044 0.346233 -2.09409e-19)
(0.351638 0.239375 6.24637e-20)
(0.167541 0.111225 -3.66478e-20)
(0.0230681 0.01474 3.70321e-22)
(0.233823 0.160527 0)
(1.07013 0.73885 0)
(1.23705 0.863396 2.53836e-21)
(1.23478 0.878067 0)
(1.18491 0.861831 -1.72692e-19)
(1.12426 0.838972 -1.07e-19)
(1.05657 0.811768 0)
(0.981559 0.779142 -7.17904e-21)
(0.899291 0.739189 4.2488e-20)
(0.810232 0.688884 -2.46983e-19)
(0.728209 0.632238 0)
(0.666261 0.578781 -1.07972e-19)
(0.622496 0.531833 -2.96465e-21)
(0.592524 0.492018 -2.44012e-21)
(0.570634 0.457707 1.53012e-19)
(0.541049 0.419164 -4.26442e-22)
(0.467202 0.351263 -4.54284e-19)
(0.321861 0.236026 1.35743e-19)
(0.146504 0.104257 4.02372e-20)
(0.0181907 0.0123462 0)
(0.233927 0.168964 -3.5934e-19)
(1.06158 0.772032 -1.86199e-19)
(1.22532 0.901742 -2.77987e-19)
(1.22205 0.916525 3.86786e-19)
(1.17185 0.899285 -3.23885e-19)
(1.11088 0.875339 0)
(1.04265 0.847008 -5.87394e-20)
(0.966736 0.813261 1.32586e-20)
(0.882984 0.772147 3.76105e-21)
(0.791532 0.720438 1.94899e-20)
(0.706322 0.661759 2.08802e-19)
(0.64123 0.60549 -3.69613e-20)
(0.59499 0.554981 -1.5595e-19)
(0.563592 0.511253 -6.97449e-20)
(0.541243 0.472916 8.50594e-20)
(0.510635 0.429073 -3.19344e-22)
(0.434521 0.352888 1.24215e-19)
(0.290047 0.228921 -2.94105e-19)
(0.124706 0.0949853 3.4938e-19)
(0.013371 0.00962592 5.06997e-20)
(0.233921 0.177087 1.32045e-19)
(1.05342 0.803524 -1.01989e-19)
(1.21377 0.937743 6.02068e-21)
(1.20955 0.952596 2.18644e-19)
(1.15909 0.934444 7.57787e-20)
(1.09787 0.909539 2.13567e-19)
(1.02923 0.880253 -2.61646e-20)
(0.952531 0.845591 6.38769e-20)
(0.86742 0.803595 -2.54166e-20)
(0.773646 0.750873 -1.35496e-19)
(0.685113 0.690639 0)
(0.616471 0.631913 -1.66283e-19)
(0.567127 0.577939 2.26369e-19)
(0.53363 0.529954 0)
(0.51038 0.486725 -1.82013e-19)
(0.478537 0.436252 1.12401e-19)
(0.400108 0.350538 -1.34117e-19)
(0.257226 0.217959 -1.60389e-19)
(0.103122 0.0838897 -2.83694e-19)
(0.00885979 0.00676458 -2.21287e-19)
(0.234119 0.184978 -1.45274e-19)
(1.04548 0.833314 1.09036e-19)
(1.20246 0.971477 2.59513e-19)
(1.19735 0.986361 3.00664e-19)
(1.14671 0.967395 -1.5853e-19)
(1.08533 0.941657 1.47383e-19)
(1.01637 0.911554 -8.12574e-20)
(0.939019 0.876177 7.95673e-20)
(0.852681 0.833558 -9.146e-21)
(0.756689 0.780197 1.30217e-19)
(0.664754 0.718911 4.4475e-19)
(0.592209 0.65819 0)
(0.5391 0.601012 0)
(0.502537 0.548578 -8.06771e-20)
(0.477547 0.499328 0)
(0.444173 0.440098 2.4435e-19)
(0.364016 0.343075 2.92222e-19)
(0.22466 0.202615 0)
(0.0831552 0.0714323 0)
(0.00497727 0.0040574 2.40101e-19)
(0.234016 0.192394 1.60289e-19)
(1.0378 0.861412 1.30735e-19)
(1.19145 1.00307 1.86538e-19)
(1.1855 1.01795 -2.68504e-19)
(1.13476 0.998238 -1.76786e-19)
(1.07331 0.971767 -1.95565e-19)
(1.00414 0.940975 1.20444e-19)
(0.926252 0.905048 2.96198e-22)
(0.838829 0.862038 -4.84013e-21)
(0.740745 0.808396 -5.84783e-21)
(0.645422 0.746584 2.25635e-19)
(0.568676 0.684398 0)
(0.511176 0.624493 2.28849e-19)
(0.470319 0.567716 1.70384e-19)
(0.442039 0.511251 4.33265e-19)
(0.406252 0.440048 1.31918e-19)
(0.325791 0.328299 -1.60395e-19)
(0.194794 0.180785 -9.39972e-20)
(0.069011 0.0576388 0)
(0.00306567 0.00212141 2.60158e-19)
(0.23412 0.199735 -3.52665e-19)
(1.03036 0.88792 0)
(1.18073 1.03258 2.0851e-19)
(1.17404 1.04744 -2.20003e-19)
(1.1233 1.02707 2.00189e-19)
(1.06182 0.999954 2.858e-19)
(0.99256 0.968572 -2.79375e-19)
(0.914255 0.932242 2.622e-21)
(0.82589 0.889044 0)
(0.725883 0.835435 -1.22904e-19)
(0.627258 0.773625 -4.69265e-19)
(0.546124 0.710582 2.27875e-20)
(0.483727 0.648576 3.1177e-19)
(0.437207 0.588039 0)
(0.403138 0.523522 2.92996e-19)
(0.362483 0.436482 0)
(0.28222 0.303191 0)
(0.168894 0.143755 -1.04105e-19)
(0.0768855 0.0316482 0)
(0.0255092 0.0105308 7.01447e-20)
(0.233887 0.206451 -3.85713e-19)
(1.02312 0.913155 0)
(1.17032 1.06023 3.37632e-19)
(1.16295 1.07507 0)
(1.11228 1.05413 -1.08671e-19)
(1.05083 1.02649 0)
(0.981565 0.994652 -2.09479e-20)
(0.902929 0.958091 -1.38795e-20)
(0.813752 0.914936 8.31809e-23)
(0.711958 0.861699 -1.21552e-19)
(0.610137 0.80045 1.23742e-20)
(0.524436 0.737292 1.88338e-19)
(0.456607 0.673809 3.02189e-19)
(0.402915 0.610586 4.30809e-20)
(0.359521 0.538123 2.29977e-19)
(0.309099 0.432108 0)
(0.22166 0.268867 3.49031e-19)
(0.118445 0.0801723 -2.05395e-19)
(0.0496336 0.0502923 2.36173e-19)
(-0.0670411 0.408668 -2.76304e-19)
(0.233639 0.212904 3.14509e-19)
(1.01586 0.936984 4.97354e-19)
(1.16013 1.08632 0)
(1.1521 1.10125 4.97164e-21)
(1.10154 1.07999 2.95323e-19)
(1.04008 1.05205 -5.53268e-19)
(0.97087 1.01999 -1.23281e-19)
(0.891906 0.983515 0)
(0.801936 0.940783 -2.19133e-20)
(0.698368 0.888471 -3.7897e-21)
(0.593238 0.828518 0)
(0.502596 0.766294 0)
(0.428618 0.702049 2.65662e-19)
(0.366356 0.63732 -1.3479e-19)
(0.308893 0.558738 -2.30375e-19)
(0.241404 0.433671 0)
(0.126211 0.248614 1.78326e-19)
(0.0173874 0.429038 -2.0664e-19)
(0.0428461 1.81896 -1.07414e-19)
(0.0747594 2.77449 -1.3993e-19)
(0.233249 0.218505 -2.30231e-19)
(1.00881 0.959542 -6.27803e-19)
(1.15015 1.11085 1.94723e-19)
(1.14147 1.12584 1.86962e-19)
(1.09111 1.10442 0)
(1.02962 1.07634 -3.96184e-19)
(0.960651 1.04428 -2.06761e-19)
(0.88135 1.00809 9.32233e-21)
(0.790677 0.966072 -2.80655e-21)
(0.685458 0.915129 9.39288e-20)
(0.577127 0.857118 2.10507e-19)
(0.481554 0.797041 1.94732e-19)
(0.400963 0.732898 2.61332e-19)
(0.329892 0.66653 -3.08364e-19)
(0.257427 0.588033 -3.41917e-19)
(0.16315 0.460706 0)
(0.0651935 0.809023 0)
(0.122432 2.49888 9.23242e-20)
(0.12501 3.17431 0)
(0.127333 3.37756 2.11002e-19)
(0.235304 0.223743 0)
(1.00253 0.98096 0)
(1.14017 1.13367 0)
(1.13086 1.14861 5.21196e-20)
(1.0807 1.12721 2.63634e-19)
(1.01923 1.09923 -3.02503e-19)
(0.950803 1.06742 -1.48111e-19)
(0.871217 1.03171 1.06338e-20)
(0.779941 0.990671 -5.9169e-20)
(0.673249 0.94153 -1.01057e-20)
(0.561934 0.886114 3.81778e-19)
(0.461658 0.829302 -2.28789e-20)
(0.374193 0.767004 2.95367e-20)
(0.295412 0.695299 4.39971e-20)
(0.206826 0.625612 5.01179e-22)
(0.127994 0.919239 1.81858e-21)
(0.167238 2.63856 -4.69388e-19)
(0.184006 3.27473 -1.75589e-19)
(0.168384 3.4245 8.15803e-20)
(0.151071 3.44979 -8.44439e-20)
(0.15299 0.180678 1.31608e-19)
(0.99027 1.00416 0)
(1.12994 1.15499 -3.79153e-19)
(1.12096 1.17014 -4.81007e-19)
(1.07104 1.14912 5.49872e-19)
(1.00981 1.12136 3.21351e-19)
(0.941226 1.08951 1.73347e-19)
(0.861602 1.0545 -1.84771e-19)
(0.769918 1.01468 6.54777e-20)
(0.662094 0.967692 0)
(0.548182 0.915444 1.656e-19)
(0.443632 0.862606 -1.4587e-19)
(0.349296 0.806378 0)
(0.2645 0.726805 3.87224e-20)
(0.185704 0.829665 9.25401e-20)
(0.180841 2.34472 -1.14771e-19)
(0.254932 3.31166 1.27782e-19)
(0.230761 3.4436 6.15856e-20)
(0.192216 3.46804 6.94777e-20)
(0.166389 3.47959 8.75792e-20)
(0.277097 0.260229 -2.44801e-19)
(0.973921 1.01203 0)
(1.11115 1.17858 3.91302e-19)
(1.107 1.20178 5.01856e-19)
(1.05541 1.18118 -5.66303e-19)
(0.993882 1.15394 -3.42192e-19)
(0.924653 1.12348 -2.67918e-19)
(0.844649 1.08963 -1.36565e-20)
(0.752009 1.05196 -9.70353e-20)
(0.642052 1.00883 1.32566e-20)
(0.52403 0.962978 6.4923e-21)
(0.412754 0.918177 1.12673e-19)
(0.304178 0.874694 2.41532e-20)
(0.235861 0.978404 -3.48075e-20)
(0.259467 2.2063 -8.19185e-20)
(0.331165 3.31332 5.90593e-20)
(0.317416 3.48091 -5.34074e-20)
(0.277054 3.50542 -2.98189e-20)
(0.2363 3.53458 3.18828e-21)
(0.178396 3.52684 -6.54676e-22)
(0.264234 0.256398 0)
(0.970753 1.03322 1.0314e-19)
(1.10311 1.20092 -7.76276e-20)
(1.09718 1.22411 -5.60834e-20)
(1.0457 1.2035 -3.72482e-19)
(0.984318 1.17648 3.34357e-19)
(0.914882 1.14617 1.80607e-19)
(0.834941 1.1131 -1.43811e-20)
(0.742196 1.0769 1.21389e-19)
(0.63165 1.03657 -1.42285e-20)
(0.512003 0.995499 -2.14216e-19)
(0.398121 0.957151 1.59878e-20)
(0.292423 0.937623 -2.09291e-20)
(0.277821 1.40381 -2.87374e-20)
(0.367269 3.02562 1.83584e-20)
(0.401211 3.47316 8.90674e-22)
(0.354865 3.54436 -1.94705e-20)
(0.314132 3.57034 -4.23986e-20)
(0.260002 3.59552 7.38635e-20)
(0.193852 3.59018 2.8121e-20)
(0.247312 0.254127 2.53206e-19)
(0.965791 1.05688 6.95227e-19)
(1.09447 1.22518 -2.21945e-19)
(1.0869 1.24785 -2.13079e-19)
(1.03551 1.22706 0)
(0.974338 1.20005 4.90426e-19)
(0.905001 1.16996 2.76052e-19)
(0.82541 1.13763 -1.51918e-20)
(0.732889 1.10295 1.25344e-20)
(0.622268 1.06559 5.43962e-20)
(0.50176 1.02951 -6.61221e-20)
(0.38708 0.998418 -1.08737e-19)
(0.297473 1.05115 -1.3671e-19)
(0.352189 2.0222 1.50957e-19)
(0.461644 3.35838 7.79689e-20)
(0.452967 3.54285 0)
(0.399022 3.59235 0)
(0.359818 3.63911 7.01324e-20)
(0.293489 3.70914 0)
(0.206552 3.67562 1.48656e-19)
(0.235802 0.254998 -3.70217e-19)
(0.958857 1.08144 -5.78954e-19)
(1.08439 1.25048 0)
(1.07536 1.27236 5.78902e-21)
(1.02413 1.25115 -3.63366e-19)
(0.963298 1.22401 7.29514e-19)
(0.894398 1.19414 1.85975e-19)
(0.815374 1.16244 -1.91091e-20)
(0.723339 1.12919 1.3873e-19)
(0.613051 1.09473 -6.76611e-21)
(0.492489 1.06376 0)
(0.379247 1.04195 0)
(0.32497 1.25491 -9.92726e-20)
(0.445763 2.69699 3.31847e-20)
(0.544666 3.48748 -1.5478e-22)
(0.50235 3.58275 0)
(0.462134 3.64307 1.63227e-19)
(0.414866 3.72311 -2.56038e-19)
(0.365482 3.72133 -2.40211e-19)
(0.239586 3.70556 2.31948e-20)