/*--------------------------------*- C++ -*----------------------------------*\
  =========                 |
  \\      /  F ield         | OpenFOAM: The Open Source CFD Toolbox
   \\    /   O peration     | Website:  https://openfoam.org
    \\  /    A nd           | Version:  10
     \\/     M anipulation  |
\*---------------------------------------------------------------------------*/
FoamFile
{
    format      ascii;
    class       volScalarField;
    location    "61";
    object      p;
}
// * * * * * * * * * * * * * * * * * * * * * * * * * * * * * * * * * * * * * //

dimensions      [0 2 -2 0 0 0 0];

internalField   nonuniform List<scalar> 
2200
(
0.773612
0.752113
0.736207
0.72054
0.705932
0.693418
0.683068
0.674976
0.669288
0.666358
0.666876
0.670714
0.67706
0.685626
0.696313
0.709087
0.723881
0.739813
0.755859
0.777356
0.70602
0.702762
0.699839
0.695726
0.69027
0.683803
0.677194
0.671251
0.666759
0.664393
0.664876
0.668221
0.673424
0.6799
0.686896
0.693656
0.699323
0.703418
0.706265
0.709628
0.666093
0.666314
0.668375
0.669722
0.670116
0.66927
0.6673
0.664636
0.662113
0.660649
0.661222
0.663691
0.666993
0.670232
0.672573
0.673575
0.673308
0.67232
0.670687
0.670438
0.643602
0.645054
0.647652
0.650107
0.652555
0.65458
0.655742
0.655987
0.655637
0.655376
0.656058
0.65746
0.658673
0.659079
0.658406
0.656738
0.654579
0.652388
0.649773
0.648369
0.629226
0.631199
0.63402
0.636862
0.63973
0.642572
0.645044
0.646919
0.648168
0.649001
0.649765
0.650261
0.650051
0.648963
0.647121
0.644766
0.642226
0.639499
0.6367
0.634777
0.621859
0.623457
0.625664
0.628202
0.630877
0.633556
0.636167
0.638612
0.640658
0.642196
0.643104
0.643166
0.642362
0.640873
0.638993
0.636862
0.634547
0.632209
0.630112
0.628538
0.618426
0.619448
0.620721
0.62259
0.624739
0.626917
0.629126
0.631439
0.63369
0.635579
0.636652
0.636715
0.635977
0.634803
0.633433
0.63189
0.630198
0.628626
0.627515
0.626498
0.615732
0.616401
0.617037
0.618345
0.61997
0.621674
0.62345
0.625402
0.627506
0.629523
0.630822
0.631174
0.630894
0.630302
0.629553
0.62863
0.627597
0.626681
0.626237
0.625559
0.612447
0.612892
0.613292
0.614294
0.615566
0.616963
0.618482
0.620184
0.622082
0.624102
0.625693
0.626541
0.626853
0.626842
0.626585
0.626136
0.625574
0.625052
0.62487
0.624405
0.608355
0.608652
0.609013
0.609888
0.611012
0.612302
0.61376
0.615402
0.617263
0.619363
0.621298
0.622691
0.623521
0.623937
0.624056
0.623944
0.623664
0.623354
0.623231
0.622907
0.603591
0.603792
0.604166
0.605002
0.606105
0.60743
0.608981
0.610758
0.612772
0.615082
0.617454
0.619349
0.620633
0.62141
0.621794
0.621915
0.621828
0.621667
0.621567
0.621328
0.598337
0.598482
0.598856
0.59967
0.600821
0.602266
0.603997
0.606022
0.608377
0.611121
0.614012
0.616438
0.618112
0.619181
0.619799
0.620105
0.620212
0.620194
0.620129
0.619938
0.592641
0.59275
0.593132
0.59396
0.595197
0.59681
0.598795
0.601169
0.603992
0.607328
0.610862
0.613822
0.615916
0.617315
0.618208
0.618746
0.619062
0.619183
0.619159
0.61899
0.586555
0.586622
0.587005
0.587863
0.589215
0.591018
0.59328
0.596049
0.599433
0.603492
0.607812
0.611435
0.614035
0.615852
0.617115
0.617956
0.618509
0.618773
0.618789
0.618628
0.579932
0.579972
0.580397
0.581309
0.582802
0.584815
0.587372
0.590599
0.594644
0.599552
0.604786
0.609239
0.612519
0.61489
0.616612
0.617828
0.618632
0.619045
0.619109
0.61895
0.572682
0.572647
0.573069
0.574077
0.575773
0.578049
0.580975
0.584736
0.589543
0.595485
0.601858
0.607294
0.611401
0.614471
0.616772
0.618411
0.61951
0.620088
0.620204
0.620039
0.564491
0.564474
0.564935
0.566065
0.568024
0.570641
0.574053
0.578486
0.584193
0.59132
0.599029
0.605708
0.61083
0.614711
0.617642
0.619781
0.621221
0.621971
0.622142
0.621967
0.555269
0.555293
0.555739
0.556984
0.559237
0.562275
0.566304
0.571551
0.578327
0.586869
0.596254
0.604464
0.610802
0.615673
0.619344
0.62203
0.623849
0.624786
0.625009
0.624816
0.544525
0.544502
0.545053
0.546519
0.549144
0.552763
0.557607
0.563945
0.572142
0.582487
0.593814
0.603739
0.611482
0.617414
0.621905
0.625246
0.627486
0.628606
0.628879
0.628664
0.531776
0.531711
0.532386
0.534224
0.537412
0.54183
0.547763
0.555523
0.565529
0.578079
0.591742
0.603638
0.612894
0.620032
0.625479
0.629514
0.632226
0.633539
0.633847
0.633604
0.516733
0.516631
0.517404
0.519616
0.523548
0.529056
0.53646
0.546123
0.558486
0.573746
0.59012
0.604204
0.615165
0.623624
0.630082
0.634929
0.638118
0.639597
0.639931
0.639656
0.498369
0.498285
0.499301
0.50209
0.507028
0.514002
0.523376
0.535525
0.550862
0.569395
0.588842
0.605507
0.618336
0.628231
0.635856
0.641518
0.645184
0.646826
0.647154
0.646846
0.475758
0.475613
0.476917
0.480499
0.486903
0.495996
0.50809
0.523533
0.542555
0.564989
0.588013
0.607412
0.622284
0.633792
0.642641
0.649228
0.653368
0.655133
0.655426
0.655088
0.446523
0.446547
0.448647
0.453729
0.462477
0.474747
0.49071
0.510457
0.533963
0.560871
0.587866
0.610268
0.627354
0.640488
0.650624
0.658047
0.662548
0.664384
0.664609
0.66424
0.407966
0.408208
0.411744
0.419731
0.432538
0.449779
0.47102
0.496106
0.52486
0.556868
0.588259
0.613934
0.633325
0.648199
0.659569
0.667773
0.672534
0.674322
0.674449
0.67407
0.356709
0.357116
0.36411
0.37735
0.396567
0.42095
0.449188
0.480952
0.515971
0.553692
0.589726
0.618609
0.640316
0.656894
0.669531
0.678342
0.682994
0.684449
0.684415
0.684099
0.289369
0.292139
0.307244
0.328749
0.356899
0.390214
0.426633
0.465884
0.50782
0.551845
0.592934
0.625624
0.650115
0.668782
0.682777
0.692201
0.696659
0.697614
0.697541
0.697348
0.212854
0.222421
0.247639
0.278914
0.317242
0.359707
0.404394
0.451385
0.500605
0.551485
0.598398
0.63539
0.662936
0.6839
0.69957
0.709613
0.713787
0.714276
0.714287
0.714205
0.14453
0.159226
0.190747
0.231046
0.279031
0.330373
0.383156
0.437907
0.494459
0.55204
0.604549
0.645529
0.676247
0.699387
0.716315
0.726759
0.730768
0.730933
0.731033
0.731023
0.0925979
0.105754
0.142407
0.188805
0.244168
0.303066
0.363273
0.425274
0.488638
0.552391
0.610043
0.65529
0.688925
0.714051
0.732357
0.743463
0.747416
0.748068
0.748281
0.748259
0.0495934
0.0620684
0.102509
0.152779
0.2136
0.278484
0.345091
0.413455
0.482998
0.552922
0.616144
0.665203
0.701212
0.728269
0.747872
0.759436
0.764179
0.765098
0.765134
0.7652
0.012918
0.0256043
0.0687054
0.121855
0.187023
0.256713
0.328717
0.402775
0.478219
0.554113
0.622241
0.674494
0.713052
0.741703
0.762728
0.774973
0.779918
0.780947
0.781008
0.781077
-0.0190576
-0.00616363
0.0390845
0.0948171
0.16361
0.23732
0.314064
0.393225
0.473948
0.554884
0.627199
0.682992
0.723815
0.754052
0.776165
0.78888
0.79428
0.79542
0.795528
0.79558
-0.0474135
-0.03453
0.0123778
0.070578
0.142577
0.219835
0.30069
0.384186
0.469414
0.554994
0.631803
0.690893
0.733677
0.765111
0.787903
0.801347
0.806961
0.80828
0.808407
0.808445
-0.0732881
-0.0603892
-0.0121559
0.0484552
0.123258
0.203559
0.287928
0.375169
0.46453
0.554697
0.63582
0.697584
0.742297
0.775041
0.798212
0.812158
0.818124
0.819556
0.819724
0.819735
-0.0972614
-0.0841565
-0.0351187
0.0277351
0.104994
0.188003
0.27547
0.36609
0.459326
0.55373
0.638836
0.703521
0.750146
0.783727
0.807357
0.821772
0.827808
0.829405
0.829563
0.829549
-0.119838
-0.10644
-0.05669
0.00809523
0.0874407
0.172852
0.263111
0.356846
0.453668
0.552008
0.641079
0.708823
0.757121
0.791812
0.815783
0.830086
0.836362
0.83794
0.838114
0.838062
-0.141106
-0.127567
-0.0771511
-0.0107665
0.0703768
0.15799
0.250805
0.347379
0.447438
0.549464
0.64252
0.713466
0.763603
0.799244
0.823511
0.837662
0.843771
0.84531
0.845501
0.845371
-0.161358
-0.147756
-0.0966664
-0.0289272
0.0537589
0.143329
0.23843
0.337528
0.440472
0.545989
0.64307
0.717461
0.769843
0.806661
0.830876
0.84447
0.850396
0.851813
0.85193
0.85181
-0.180976
-0.167021
-0.115436
-0.0465454
0.0374864
0.128792
0.2259
0.327224
0.432797
0.541707
0.642809
0.720863
0.776032
0.814025
0.838151
0.851177
0.856349
0.857562
0.85762
0.857536
-0.200269
-0.185636
-0.133594
-0.0636646
0.0215264
0.114307
0.213146
0.31648
0.424518
0.536607
0.641582
0.723642
0.78203
0.821974
0.846045
0.857905
0.862106
0.862685
0.862731
0.862707
-0.219099
-0.203721
-0.151265
-0.0803918
0.00580666
0.0998627
0.200214
0.305375
0.415676
0.530641
0.639396
0.725767
0.787922
0.830407
0.855033
0.865735
0.867822
0.867453
0.867334
0.867184
-0.237453
-0.221424
-0.168488
-0.0967198
-0.00964015
0.085506
0.18717
0.293962
0.406301
0.52387
0.636185
0.726974
0.793465
0.839614
0.865844
0.875141
0.874602
0.872514
0.872197
0.873134
-0.255171
-0.23867
-0.185252
-0.112657
-0.0247926
0.0713059
0.174101
0.282301
0.39643
0.516312
0.63181
0.727005
0.798538
0.84925
0.878689
0.887825
0.884529
0.877698
0.872788
0.871742
-0.272313
-0.255435
-0.201496
-0.128132
-0.0395705
0.0573344
0.161067
0.270452
0.386144
0.508049
0.626264
0.725615
0.802399
0.859101
0.893587
0.904779
0.901626
0.890564
0.890386
0.894534
-0.288808
-0.271588
-0.217155
-0.143108
-0.0539367
0.0436462
0.148142
0.258504
0.375518
0.499106
0.61954
0.722579
0.804795
0.868064
0.909511
0.926067
0.92403
0.894691
0.856206
0.822549
-0.304659
-0.28717
-0.232252
-0.157626
-0.0679678
0.0301251
0.135179
0.246284
0.364323
0.489249
0.611488
0.717513
0.804533
0.875213
0.925846
0.950925
0.963006
0.938945
0.956336
1.01736
-0.319777
-0.302168
-0.246871
-0.171846
-0.081865
0.0165398
0.121912
0.233455
0.352111
0.477928
0.601476
0.709572
0.800626
0.877518
0.93428
0.964292
0.968066
0.94171
0.898352
0.914893
-0.334171
-0.316609
-0.260978
-0.185701
-0.095537
0.00299233
0.108456
0.220138
0.339007
0.465226
0.589466
0.698558
0.790906
0.870385
0.928386
0.958752
0.940514
0.882964
0.817441
0.80465
-0.3478
-0.330435
-0.274565
-0.199211
-0.109002
-0.0105214
0.0948283
0.206367
0.325057
0.451136
0.575295
0.68405
0.775074
0.850588
0.903352
0.907112
0.868757
0.788863
0.712857
0.688409
-0.360723
-0.343689
-0.287657
-0.212379
-0.122262
-0.0240052
0.0810289
0.192154
0.310287
0.43565
0.55887
0.665821
0.751729
0.815729
0.843698
0.828108
0.765907
0.662292
0.573633
0.550045
-0.373367
-0.356716
-0.300625
-0.225582
-0.135683
-0.0377751
0.0667942
0.177289
0.294535
0.418634
0.539978
0.643219
0.7218
0.769719
0.763769
0.726913
0.612433
0.488129
0.379438
0.351032
-0.386612
-0.370366
-0.314172
-0.239405
-0.149797
-0.0522938
0.0517206
0.161433
0.277526
0.399835
0.518305
0.615934
0.687233
0.710095
0.676293
0.585895
0.428018
0.273898
0.143301
0.114628
-0.400955
-0.384927
-0.328582
-0.254111
-0.164814
-0.0677036
0.0357224
0.144546
0.259269
0.379321
0.49386
0.584789
0.645243
0.639357
0.586979
0.435258
0.234529
0.0211719
-0.159523
-0.208916
-0.416547
-0.40063
-0.343952
-0.269682
-0.180671
-0.0839601
0.0188251
0.126652
0.239803
0.357116
0.46658
0.551305
0.596686
0.558868
0.471284
0.282687
0.0514778
-0.237205
-0.557931
-0.706886
-0.433429
-0.417415
-0.36036
-0.286264
-0.197483
-0.101151
0.000958345
0.107693
0.219083
0.333296
0.436876
0.514807
0.542156
0.474029
0.337113
0.131873
-0.101429
-0.444437
-1.0293
-1.60017
-0.451731
-0.435558
-0.377934
-0.303861
-0.21522
-0.119251
-0.0178448
0.0877382
0.197267
0.308212
0.405835
0.475557
0.483767
0.399508
0.20797
-0.0247806
-0.226555
-0.459869
-1.0118
-2.51752
-0.47143
-0.454921
-0.396717
-0.322673
-0.234108
-0.138487
-0.0378265
0.0665133
0.17402
0.281526
0.373119
0.432992
0.420556
0.341091
0.114911
-0.121913
-0.268939
-0.305393
-0.293748
-0.67924
-0.492506
-0.475911
-0.416964
-0.342917
-0.254475
-0.159329
-0.0596077
0.043248
0.148415
0.251904
0.337775
0.387072
0.358701
0.291202
0.065328
-0.135598
-0.245639
-0.253207
-0.199873
-0.239826
-0.514801
-0.498088
-0.438576
-0.364751
-0.276498
-0.181947
-0.083358
0.0177663
0.120235
0.219223
0.299976
0.339256
0.304296
0.237241
0.0333207
-0.125825
-0.207502
-0.215381
-0.263382
-0.267272
-0.538321
-0.521719
-0.461594
-0.388068
-0.30008
-0.206331
-0.109122
-0.00999061
0.0894649
0.183836
0.259513
0.289251
0.257162
0.176501
0.00521624
-0.116313
-0.185833
-0.163206
-0.183479
-0.185105
-0.562737
-0.545858
-0.485725
-0.412882
-0.325181
-0.232449
-0.136834
-0.0399197
0.0562421
0.14604
0.216765
0.235898
0.216273
0.108491
-0.0299538
-0.11138
-0.149453
-0.197913
-0.172234
-0.180825
-0.58802
-0.570735
-0.510969
-0.438901
-0.351469
-0.260111
-0.16632
-0.0718119
0.0206681
0.106114
0.172712
0.181485
0.173551
0.0481415
-0.0665911
-0.130049
-0.106357
-0.166289
-0.147243
-0.152169
-0.612882
-0.595489
-0.53712
-0.465916
-0.37871
-0.289121
-0.197297
-0.105358
-0.0170256
0.0645213
0.128482
0.129699
0.121775
-0.00330405
-0.0935064
-0.144068
-0.132647
-0.14724
-0.152791
-0.150929
-0.637196
-0.619931
-0.563552
-0.493136
-0.406452
-0.319114
-0.229387
-0.140153
-0.0563109
0.0215677
0.0843958
0.0820452
0.0642807
-0.0455443
-0.107048
-0.138051
-0.177146
-0.148299
-0.154069
-0.148429
-0.659749
-0.643188
-0.58887
-0.519684
-0.434452
-0.349576
-0.262042
-0.175686
-0.0963135
-0.0223661
0.0399613
0.0385175
0.00883991
-0.0809406
-0.121094
-0.113064
-0.186187
-0.128728
-0.143913
-0.13606
-0.680089
-0.664635
-0.612347
-0.544401
-0.462269
-0.379731
-0.294619
-0.211313
-0.136041
-0.0668387
-0.0049612
-0.0018639
-0.0366922
-0.0999411
-0.128669
-0.088351
-0.13256
-0.115384
-0.121532
-0.118446
-0.696392
-0.682585
-0.632911
-0.567054
-0.488839
-0.408466
-0.326239
-0.246288
-0.174687
-0.111109
-0.0506017
-0.0399491
-0.0682829
-0.101169
-0.119161
-0.0954866
-0.109687
-0.113221
-0.114191
-0.114441
-0.708021
-0.696381
-0.65001
-0.586694
-0.512448
-0.43502
-0.356095
-0.279708
-0.21139
-0.15382
-0.0951645
-0.0758297
-0.092186
-0.0961379
-0.109703
-0.123067
-0.114512
-0.11891
-0.11636
-0.117027
-0.713399
-0.704188
-0.662008
-0.602168
-0.531877
-0.458119
-0.383016
-0.310516
-0.245354
-0.193326
-0.136294
-0.111886
-0.12057
-0.0966354
-0.0986441
-0.132093
-0.111754
-0.12215
-0.116032
-0.118275
-0.712734
-0.705681
-0.667825
-0.61187
-0.545943
-0.476624
-0.405886
-0.337414
-0.27562
-0.227727
-0.172583
-0.147781
-0.151129
-0.114138
-0.077586
-0.110186
-0.0946872
-0.118324
-0.119801
-0.123345
-0.704919
-0.697585
-0.664823
-0.614516
-0.553809
-0.489332
-0.423312
-0.358935
-0.300474
-0.255317
-0.203342
-0.180655
-0.181544
-0.155243
-0.0889478
-0.101865
-0.121299
-0.136406
-0.140782
-0.142766
-0.684601
-0.676193
-0.651579
-0.608628
-0.554211
-0.49543
-0.434406
-0.373654
-0.317655
-0.27379
-0.225156
-0.206942
-0.228917
-0.306967
-0.431733
-0.51836
-0.535522
-0.49669
-0.455121
-0.427603
-0.6421
-0.634099
-0.625218
-0.594488
-0.548078
-0.495038
-0.438855
-0.380678
-0.325147
-0.280392
-0.233579
-0.205251
-0.294553
-0.458714
-0.701964
-0.835825
-0.845642
-0.814827
-0.77096
-0.718785
-0.600839
-0.597884
-0.597105
-0.573127
-0.535901
-0.489393
-0.436703
-0.379712
-0.321437
-0.27118
-0.221763
-0.155702
-0.151695
-0.189183
-0.275315
-0.272433
-0.19349
-0.12543
-0.0542658
-0.0138013
-0.578798
-0.580418
-0.570505
-0.555626
-0.525126
-0.481888
-0.430416
-0.372833
-0.308383
-0.243134
-0.179456
-0.0562476
0.100068
0.351534
0.59967
0.81269
0.96962
1.06201
1.1025
1.13678
-0.547383
-0.547185
-0.543824
-0.541601
-0.516008
-0.475069
-0.422602
-0.362041
-0.290833
-0.208167
-0.120389
0.0216301
0.240791
0.576755
0.915178
1.19367
1.38577
1.50157
1.55843
1.57797
-0.533988
-0.532172
-0.53487
-0.528696
-0.509864
-0.471384
-0.417309
-0.352273
-0.275168
-0.180671
-0.0773743
0.0546222
0.292087
0.612019
0.93327
1.2051
1.40583
1.52668
1.58021
1.59551
-0.521456
-0.52036
-0.524026
-0.517105
-0.505923
-0.467228
-0.412171
-0.344852
-0.264783
-0.165013
-0.0567271
0.0485044
0.267015
0.54113
0.812517
1.04705
1.22946
1.33882
1.3868
1.4002
-0.505375
-0.50525
-0.506535
-0.504232
-0.501476
-0.464521
-0.410519
-0.342078
-0.260831
-0.162077
-0.0577596
0.020716
0.201911
0.432923
0.651288
0.838194
0.987485
1.07807
1.11722
1.1271
-0.489671
-0.489267
-0.486777
-0.485673
-0.483222
-0.460218
-0.412248
-0.34358
-0.263642
-0.170666
-0.0719008
-0.0110597
0.128113
0.320823
0.493594
0.63549
0.748659
0.818432
0.848232
0.855894
-0.490964
-0.488665
-0.482683
-0.481102
-0.476625
-0.460771
-0.413807
-0.345286
-0.267999
-0.184195
-0.0910111
-0.0392347
0.0596792
0.216054
0.352152
0.458516
0.541284
0.593747
0.615322
0.619656
-0.514112
-0.511703
-0.509325
-0.513324
-0.51052
-0.486951
-0.421827
-0.347446
-0.27003
-0.195874
-0.109272
-0.0615759
0.00392406
0.127166
0.232875
0.312308
0.373257
0.412302
0.427289
0.432369
-0.556404
-0.558526
-0.5643
-0.573969
-0.565984
-0.519046
-0.432019
-0.348056
-0.268059
-0.20208
-0.123158
-0.0780414
-0.0355414
0.0608591
0.140591
0.198527
0.244209
0.274838
0.285076
0.287993
-0.554233
-0.55912
-0.5705
-0.582607
-0.569684
-0.510461
-0.421804
-0.337294
-0.258
-0.199523
-0.130211
-0.0885138
-0.0603641
0.0162647
0.0747267
0.115423
0.149585
0.171099
0.180363
0.183049
-0.456893
-0.462481
-0.477203
-0.48579
-0.478252
-0.434216
-0.369774
-0.303202
-0.236437
-0.184479
-0.129601
-0.093252
-0.0727854
-0.0128226
0.0288706
0.0577945
0.0809702
0.0947186
0.100998
0.102629
-0.297649
-0.302997
-0.30959
-0.315443
-0.314651
-0.298952
-0.271997
-0.238795
-0.196799
-0.158852
-0.121289
-0.0929576
-0.0746327
-0.0317871
-0.00266213
0.0174301
0.0319177
0.0398017
0.0425834
0.0425365
-0.147417
-0.149719
-0.153994
-0.160587
-0.165869
-0.168448
-0.167706
-0.161691
-0.145093
-0.126612
-0.105302
-0.0862948
-0.0702319
-0.0424664
-0.0235159
-0.0109257
-0.00297618
0.000184765
0.000293405
-0.00063821
-0.0359628
-0.0372144
-0.0401693
-0.0474661
-0.058739
-0.0719984
-0.0846174
-0.0935901
-0.0945078
-0.0924655
-0.0835507
-0.0734226
-0.0622373
-0.0457795
-0.0354124
-0.0292864
-0.0264359
-0.0265992
-0.0282164
-0.0295204
0.0291169
0.0282035
0.0259485
0.0185701
0.00447603
-0.0135825
-0.0310068
-0.045454
-0.0545246
-0.0618014
-0.0605755
-0.0564029
-0.0525827
-0.0446798
-0.0407534
-0.0396204
-0.0403009
-0.0424697
-0.0446744
-0.0460612
0.0585481
0.0579296
0.0560975
0.0495274
0.0361237
0.0178804
-0.00033766
-0.0166345
-0.0286232
-0.0388929
-0.0410744
-0.041027
-0.0426576
-0.0408599
-0.041204
-0.0431839
-0.0459113
-0.0490001
-0.0512213
-0.0525601
0.0673128
0.0668247
0.065331
0.0599947
0.048902
0.0331509
0.0163517
3.70738e-06
-0.0128542
-0.0236708
-0.0268786
-0.0296021
-0.0335893
-0.0353717
-0.0384594
-0.0421505
-0.0456042
-0.0486443
-0.0506185
-0.0518343
0.0651803
0.0648296
0.0636778
0.0596197
0.051127
0.0387735
0.0247382
0.00987938
-0.00253715
-0.0135069
-0.0173462
-0.0211784
-0.025792
-0.0292698
-0.0335108
-0.0377759
-0.0412883
-0.0440083
-0.0455833
-0.046645
0.0581493
0.0579164
0.0570751
0.0541231
0.0478722
0.0386174
0.0276593
0.0153117
0.00459972
-0.00607604
-0.0106571
-0.0144293
-0.0191763
-0.0231121
-0.0276332
-0.0317709
-0.0349478
-0.0372822
-0.0384502
-0.0393618
0.0494761
0.0493325
0.0487255
0.0466548
0.0422232
0.0354701
0.027201
0.0174298
0.00902097
-0.000642279
-0.00554237
-0.00868164
-0.0130746
-0.0170595
-0.0215784
-0.0254777
-0.0283427
-0.0303569
-0.0311693
-0.0319164
0.0407289
0.0406624
0.0402489
0.0388293
0.0357517
0.0309764
0.0249422
0.0174052
0.0111643
0.002999
-0.00143896
-0.00405221
-0.00788364
-0.0115852
-0.0159193
-0.0195285
-0.0221308
-0.0239341
-0.0245383
-0.0251481
0.0324455
0.032414
0.0321376
0.0312014
0.0290978
0.0257271
0.0214016
0.0157274
0.0113968
0.00493063
0.00153371
-0.00071409
-0.00427125
-0.00756446
-0.0113163
-0.0143336
-0.0165607
-0.0181353
-0.0185966
-0.0190823
0.0249538
0.0249321
0.0247396
0.0241176
0.0227112
0.0203955
0.0172804
0.0130108
0.0101102
0.00515406
0.00280529
0.00111266
-0.00209985
-0.00483182
-0.00789008
-0.0102914
-0.0120235
-0.0132433
-0.0135964
-0.0140017
0.0183231
0.0183103
0.0181906
0.0177992
0.0168947
0.015382
0.0132801
0.0101298
0.00824051
0.00438308
0.00273706
0.00143665
-0.00117224
-0.00316779
-0.00546742
-0.00721863
-0.00842947
-0.00928164
-0.0095286
-0.00985266
0.0123596
0.0123471
0.01229
0.012079
0.0115622
0.0106551
0.009447
0.00726232
0.00625114
0.00316014
0.00201882
0.00100257
-0.00106663
-0.00209564
-0.00367173
-0.00486047
-0.0056262
-0.00617574
-0.00637467
-0.00665433
0.00701272
0.00699198
0.00696174
0.00691476
0.00671801
0.00628411
0.0058002
0.00438402
0.00412629
0.00178529
0.00118521
0.000435527
-0.00117278
-0.00123697
-0.00250029
-0.0032439
-0.00362946
-0.00389473
-0.00387722
-0.00409096
0.00235215
0.00237051
0.00240981
0.00246579
0.00248823
0.00233274
0.00232378
0.0015339
0.00181754
0.000473765
0.000560116
0.00046312
-0.000596368
-0.000325408
-0.00180443
-0.00244899
-0.00308197
-0.00353058
-0.00329267
-0.00329474
-1.07252
-0.235789
0.0341377
0.30925
0.489284
0.64343
0.766983
0.893096
1.03287
1.11692
-0.0953674
0.309836
0.324995
0.51236
0.634524
0.744139
0.838223
0.922246
0.949243
0.907651
0.278812
0.491524
0.52532
0.661113
0.745716
0.824436
0.889408
0.938228
0.940077
0.954427
0.506422
0.648175
0.682793
0.783433
0.839994
0.896769
0.94117
0.973291
0.982236
1.00601
0.682904
0.783352
0.813049
0.879727
0.924084
0.964519
0.996396
1.02056
1.03026
1.06191
0.825179
0.893435
0.923636
0.966058
1.00192
1.0318
1.05593
1.07664
1.09069
1.11904
0.943693
0.99395
1.01939
1.04715
1.07462
1.09827
1.11815
1.13738
1.15222
1.17877
1.04707
1.08392
1.1049
1.12543
1.14612
1.16544
1.18281
1.20091
1.21578
1.23945
1.14081
1.16984
1.18613
1.20134
1.21739
1.23343
1.24897
1.26587
1.27949
1.30181
1.22895
1.24937
1.26419
1.27733
1.29089
1.30464
1.31814
1.33273
1.34428
1.36392
1.31432
1.33009
1.34391
1.35572
1.36763
1.37926
1.39039
1.40208
1.40975
1.42655
1.39954
1.41207
1.42578
1.43753
1.44817
1.45796
1.46678
1.47505
1.47861
1.48984
1.48828
1.4991
1.51258
1.5221
1.52967
1.53696
1.54415
1.55062
1.55172
1.55908
1.58669
1.5913
1.59949
1.60423
1.60762
1.6121
1.61809
1.62576
1.62966
1.63953
1.69998
1.68687
1.67958
1.67387
1.67114
1.67248
1.67881
1.69118
1.706
1.73567
1.82196
1.76592
1.7349
1.7177
1.70948
1.70942
1.71826
1.73788
1.76968
1.83894
)
;

boundaryField
{
    wall-4
    {
        type            zeroGradient;
    }
    pressure-outlet-7
    {
        type            fixedValue;
        value           uniform 0;
    }
    velocity-inlet-6
    {
        type            zeroGradient;
    }
    velocity-inlet-5
    {
        type            zeroGradient;
    }
    frontAndBackPlanes
    {
        type            empty;
    }
}


// ************************************************************************* //
