/*--------------------------------*- C++ -*----------------------------------*\
  =========                 |
  \\      /  F ield         | OpenFOAM: The Open Source CFD Toolbox
   \\    /   O peration     | Website:  https://openfoam.org
    \\  /    A nd           | Version:  10
     \\/     M anipulation  |
\*---------------------------------------------------------------------------*/
FoamFile
{
    format      ascii;
    class       surfaceScalarField;
    location    "61";
    object      phi;
}
// * * * * * * * * * * * * * * * * * * * * * * * * * * * * * * * * * * * * * //

dimensions      [0 3 -1 0 0 0 0];

internalField   nonuniform List<scalar> 
4262
(
0.10713
0.470859
0.095551
0.705164
0.0693495
0.858505
0.0473182
1.02079
0.0309274
1.21491
0.0197197
1.44943
0.0123112
1.73327
0.00708415
2.07626
0.00307267
2.48926
-0.000640302
2.98601
-0.00419691
2.98585
-0.00796655
2.48901
-0.0130131
2.07608
-0.0201817
1.73303
-0.0311131
1.44915
-0.0471598
1.21456
-0.0688987
1.0205
-0.0951762
0.85858
-0.107059
0.705469
0.470929
0.11288
0.357978
0.135306
0.682739
0.120433
0.873377
0.0979022
1.04333
0.0746599
1.23815
0.0529184
1.47117
0.0344956
1.75169
0.0202708
2.09049
0.00906793
2.50046
-0.000884936
2.99596
-0.0111227
2.99609
-0.0223445
2.50023
-0.0363649
2.0901
-0.0546842
1.75135
-0.0765365
1.471
-0.100322
1.23835
-0.123545
1.04373
-0.137034
0.87207
-0.113568
0.682002
0.357361
0.09204
0.265938
0.124958
0.649821
0.121079
0.877256
0.104814
1.05959
0.0861834
1.25678
0.0670631
1.49029
0.0481207
1.77064
0.0300746
2.10853
0.0134641
2.51707
-0.0026572
3.01208
-0.0183668
3.0118
-0.0343235
2.51619
-0.0518544
2.10763
-0.0702236
1.76972
-0.0885228
1.4893
-0.105685
1.25551
-0.119735
1.05778
-0.125191
0.877525
-0.0923355
0.649147
0.265026
0.0639892
0.201949
0.104827
0.608983
0.106604
0.875479
0.0952033
1.07099
0.0812507
1.27073
0.0664917
1.50505
0.0503495
1.78678
0.033178
2.12571
0.0155265
2.53472
-0.00305571
3.03066
-0.0215538
3.03029
-0.0389138
2.53355
-0.0553609
2.12408
-0.0706637
1.78502
-0.0845554
1.50319
-0.0982981
1.26925
-0.110071
1.06955
-0.107079
0.874533
-0.0649256
0.606993
0.2001
0.0374933
0.164456
0.0807411
0.565736
0.091028
0.865192
0.08383
1.07819
0.0712101
1.28335
0.0593319
1.51693
0.0462949
1.79982
0.0313437
2.14066
0.0143713
2.55169
-0.00498234
3.05002
-0.0237008
3.04901
-0.0395791
2.54943
-0.0534652
2.13797
-0.0654992
1.79706
-0.0767072
1.5144
-0.0886391
1.28119
-0.0950332
1.07594
-0.0832046
0.862705
-0.0383968
0.562185
0.161703
0.0194553
0.145001
0.0571741
0.528017
0.0725468
0.84982
0.0704392
1.0803
0.0616454
1.29215
0.0507978
1.52777
0.0396375
1.81098
0.0269609
2.15333
0.0118664
2.56679
-0.00564382
3.06753
-0.0229751
3.06634
-0.0374307
2.56389
-0.0490192
2.14956
-0.0590158
1.80705
-0.0688744
1.52426
-0.0764824
1.28879
-0.0772502
1.07671
-0.0600524
0.845507
-0.0203875
0.522521
0.141316
0.0106062
0.134394
0.0423147
0.496308
0.0584147
0.83372
0.0586935
1.08002
0.0525472
1.29829
0.0431658
1.53716
0.0327763
1.82137
0.0214284
2.16468
0.00811479
2.5801
-0.00803561
3.08368
-0.0235047
3.08181
-0.0353061
2.57569
-0.0450499
2.1593
-0.0538685
1.81587
-0.0617204
1.53211
-0.0662629
1.29334
-0.0643563
1.0748
-0.0459553
0.827106
-0.0117241
0.488289
0.129592
0.00657736
0.127817
0.032958
0.469928
0.0492231
0.817454
0.0507085
1.07853
0.0455844
1.30342
0.0371943
1.54555
0.0275469
1.83101
0.0166387
2.17559
0.00456519
2.59217
-0.00918675
3.09743
-0.022503
3.09513
-0.033448
2.58663
-0.0426948
2.16855
-0.0504291
1.82361
-0.0569774
1.53866
-0.0601704
1.29653
-0.0564536
1.07109
-0.0372756
0.807928
-0.00788139
0.458895
0.12171
0.00470703
0.12311
0.0265353
0.448099
0.042325
0.801665
0.0444061
1.07645
0.0397452
1.30808
0.0320631
1.55323
0.0229042
1.84017
0.01234
2.18615
0.000602217
2.60391
-0.0124797
3.11051
-0.0244783
3.10713
-0.0340772
2.59623
-0.0422507
2.17672
-0.0491515
1.83051
-0.0545642
1.54407
-0.0568082
1.29877
-0.0517367
1.06602
-0.0320344
0.788226
-0.00637989
0.433241
0.115331
0.0037477
0.119362
0.0216947
0.430152
0.0368604
0.786499
0.0396241
1.07369
0.0352307
1.31247
0.0278016
1.56066
0.0189545
1.84902
0.00889696
2.19621
-0.00229689
2.61511
-0.0144538
3.12267
-0.0257797
3.11845
-0.0351754
2.60563
-0.0427441
2.18429
-0.0487582
1.83652
-0.0534687
1.54878
-0.0546605
1.29996
-0.0482765
1.05963
-0.0283202
0.768269
-0.00577534
0.410696
0.109555
0.00304119
0.116321
0.0175109
0.415683
0.0314054
0.772605
0.034345
1.07075
0.0302324
1.31658
0.0231474
1.56774
0.0145684
1.8576
0.00446549
2.20631
-0.00702491
2.6266
-0.0192108
3.13485
-0.0301048
3.12935
-0.0381982
2.61372
-0.0446138
2.1907
-0.0498468
1.84175
-0.0535447
1.55248
-0.053649
1.30007
-0.04581
1.05179
-0.0256463
0.748106
-0.00552376
0.390573
0.104031
0.00237207
0.113949
0.0138438
0.404211
0.026435
0.760013
0.029534
1.06765
0.0254996
1.32062
0.0183889
1.57485
0.00990381
1.86608
0.000322789
2.2159
-0.0103565
2.63728
-0.0222458
3.14674
-0.0329134
3.14002
-0.0411311
2.62194
-0.0470306
2.1966
-0.0511651
1.84589
-0.0538433
1.55516
-0.0531805
1.29941
-0.0439721
1.04258
-0.0237292
0.727863
-0.00539996
0.372244
0.0986314
0.00170478
0.112244
0.0105463
0.395369
0.021364
0.749196
0.0239627
1.06505
0.0198585
1.32472
0.0128265
1.58188
0.00426226
1.87465
-0.00569637
2.22585
-0.0169971
2.64858
-0.0289244
3.15867
-0.0387838
3.14988
-0.0452131
2.62837
-0.049799
2.20119
-0.0534337
1.84952
-0.0551809
1.55691
-0.0535862
1.29781
-0.0430437
1.03204
-0.0224913
0.70731
-0.00532009
0.355073
0.0933114
0.000819169
0.111425
0.00703872
0.38915
0.0161592
0.740075
0.0183888
1.06282
0.0139639
1.32915
0.00651756
1.58933
-0.00225129
1.88342
-0.0119564
2.23556
-0.022482
2.6591
-0.0337175
3.1699
-0.0433091
3.15947
-0.0498077
2.63487
-0.0537734
2.20516
-0.0564202
1.85217
-0.0571736
1.55766
-0.0546145
1.29525
-0.0427093
1.02014
-0.0217675
0.686368
-0.00529956
0.338605
0.0880118
0.000152319
0.111273
0.00423437
0.385068
0.0110045
0.733305
0.0120058
1.06182
0.0070773
1.33408
-0.000673759
1.59708
-0.0100183
1.89276
-0.0204609
2.246
-0.0317842
2.67042
-0.0431993
3.18132
-0.051571
3.16784
-0.0561281
2.63942
-0.0589767
2.208
-0.0609459
1.85414
-0.060862
1.55758
-0.0566839
1.29107
-0.0431175
1.00657
-0.0215351
0.664786
-0.00534615
0.322416
0.0826656
-0.000822492
0.112095
0.000527931
0.383717
0.00532518
0.728508
0.00567044
1.06147
0.0002247
1.33952
-0.00830692
1.60561
-0.0182399
1.90269
-0.0289302
2.25669
-0.0400202
2.68151
-0.0507509
3.19205
-0.0588957
3.17598
-0.0635369
2.64406
-0.0655874
2.21005
-0.0665989
1.85515
-0.0654781
1.55646
-0.0596833
1.28528
-0.044311
0.991198
-0.0218107
0.642286
-0.00549169
0.306097
0.077174
-0.00167944
0.113775
-0.00254771
0.384586
-0.000640599
0.726601
-0.00238186
1.06322
-0.00896213
1.3461
-0.0182948
1.61495
-0.0291918
1.91359
-0.0411229
2.26862
-0.0532071
2.6936
-0.0640931
3.20294
-0.0708627
3.18275
-0.0739006
2.6471
-0.0750634
2.21122
-0.0746234
1.85471
-0.071807
1.55364
-0.0640443
1.27752
-0.0465106
0.973665
-0.0226536
0.618429
-0.00576991
0.289213
0.071404
-0.00305314
0.116828
-0.00631611
0.387849
-0.00801349
0.728298
-0.0112568
1.06646
-0.0186991
1.35354
-0.0289608
1.62521
-0.0405868
1.92522
-0.0528842
2.28092
-0.0651323
2.70585
-0.0758649
3.21367
-0.082437
3.18932
-0.0849026
2.64957
-0.0845639
2.21088
-0.0832584
1.85341
-0.079612
1.54999
-0.0697429
1.26765
-0.0496319
0.953554
-0.0239987
0.592795
-0.00615128
0.271366
0.0652528
-0.00432971
0.121158
-0.0105058
0.394025
-0.0155549
0.733347
-0.0217462
1.07265
-0.0308189
1.36262
-0.0427106
1.6371
-0.0559851
1.93849
-0.070156
2.29509
-0.0838609
2.71955
-0.0945704
3.22438
-0.0992883
3.19404
-0.0999356
2.65021
-0.0989418
2.20988
-0.0957115
1.85018
-0.0895791
1.54386
-0.0771303
1.2552
-0.0538827
0.930306
-0.0258708
0.564784
-0.00664033
0.252135
0.0586124
-0.00577244
0.12693
-0.015524
0.403776
-0.0246178
0.742441
-0.0337175
1.08175
-0.0447605
1.37366
-0.0584009
1.65074
-0.0731117
1.9532
-0.0878651
2.30984
-0.101455
2.73314
-0.112432
3.23536
-0.11748
3.19909
-0.117187
2.64992
-0.113385
2.20608
-0.108811
1.8456
-0.101573
1.53662
-0.085911
1.23954
-0.0589358
0.903331
-0.0280658
0.533914
-0.00715099
0.231221
0.0514614
-0.00808802
0.135018
-0.0223145
0.418003
-0.0366337
0.75676
-0.0490813
1.0942
-0.062108
1.38669
-0.0778458
1.66648
-0.0948271
1.97018
-0.112356
2.32737
-0.128438
2.74922
-0.139154
3.24607
-0.14084
3.20078
-0.137867
2.64695
-0.1337
2.20192
-0.126997
1.8389
-0.116213
1.52584
-0.0968746
1.2202
-0.0653366
0.871793
-0.030704
0.499281
-0.00771977
0.208236
0.0437417
-0.0105331
0.145551
-0.0296167
0.437086
-0.0500395
0.777183
-0.0675058
1.11166
-0.0840111
1.40319
-0.102695
1.68516
-0.122248
1.98974
-0.140683
2.34581
-0.155324
2.76386
-0.164107
3.25486
-0.166156
3.20282
-0.162283
2.64308
-0.154531
2.19416
-0.145683
1.83005
-0.132885
1.51304
-0.108741
1.19606
-0.0718402
0.834892
-0.0332322
0.460673
-0.0081734
0.183178
0.0355683
-0.015251
0.160802
-0.0418585
0.463694
-0.0692364
0.804561
-0.0915874
1.13402
-0.111584
1.42319
-0.133702
1.70728
-0.155692
2.01173
-0.176288
2.3664
-0.192965
2.78054
-0.202216
3.26411
-0.199673
3.20028
-0.191237
2.63464
-0.182261
2.18519
-0.170383
1.81817
-0.152508
1.49517
-0.123085
1.16663
-0.0798024
0.791609
-0.0359383
0.416809
-0.00857015
0.155809
0.0269981
-0.0193321
0.180134
-0.0546251
0.498987
-0.091661
0.841597
-0.121909
1.16426
-0.148027
1.44931
-0.174714
1.73397
-0.19967
2.03668
-0.220626
2.38736
-0.234341
2.79426
-0.237068
3.26683
-0.231253
3.19447
-0.221911
2.6253
-0.209223
2.1725
-0.195084
1.80403
-0.174269
1.47435
-0.137668
1.13003
-0.0865106
0.740452
-0.0377606
0.368059
-0.00856288
0.126612
0.0184353
-0.0325916
0.212726
-0.0817986
0.548194
-0.129624
0.889422
-0.166309
1.20095
-0.197605
1.4806
-0.228273
1.76464
-0.253833
2.06224
-0.273532
2.40706
-0.285045
2.80577
-0.286651
3.26844
-0.276776
3.18459
-0.261139
2.60966
-0.245492
2.15685
-0.22672
1.78526
-0.19829
1.44592
-0.153671
1.08541
-0.0943011
0.681082
-0.0396343
0.313392
-0.00846318
0.0954406
0.00997208
-0.0469567
0.259682
-0.120589
0.621826
-0.184169
0.953002
-0.229702
1.24648
-0.267253
1.51815
-0.298518
1.7959
-0.321684
2.08541
-0.33746
2.42283
-0.343587
2.8119
-0.336275
3.26113
-0.317884
3.1662
-0.298655
2.59043
-0.278753
2.13695
-0.256169
1.76268
-0.222713
1.41247
-0.167739
1.03044
-0.0974954
0.610839
-0.0387802
0.254677
-0.00823024
0.0648906
0.00174184
-0.033961
0.293644
-0.0975263
0.685391
-0.156177
1.01165
-0.203836
1.29414
-0.247125
1.56144
-0.286109
1.83488
-0.322547
2.12185
-0.355239
2.45553
-0.380093
2.83675
-0.393866
3.2749
-0.39461
3.16695
-0.383328
2.57915
-0.36529
2.11891
-0.336447
1.73383
-0.283973
1.35999
-0.202938
0.949403
-0.109979
0.51788
-0.0420204
0.186718
-0.00947685
0.032347
-0.007735
-0.0126633
0.306307
-0.0476421
0.72037
-0.0896909
1.0537
-0.129406
1.33386
-0.168827
1.60086
-0.20388
1.86994
-0.236365
2.15433
-0.264351
2.48351
-0.284578
2.85698
-0.292861
3.28318
-0.283339
3.15742
-0.263771
2.55958
-0.239437
2.09458
-0.206305
1.7007
-0.16265
1.31634
-0.104874
0.891627
-0.0480593
0.461065
-0.0175473
0.156206
-0.0042674
0.0190671
-0.0120024
0.000169098
0.306138
-0.024543
0.745082
-0.0540477
1.08321
-0.0843668
1.36417
-0.116211
1.63271
-0.147084
1.90081
-0.175599
2.18285
-0.199373
2.50729
-0.21489
2.87249
-0.216423
3.28472
-0.200829
3.14183
-0.178577
2.53733
-0.152936
2.06894
-0.124265
1.67203
-0.0850535
1.27712
-0.0423085
0.848882
-0.0134573
0.432214
-0.00426127
0.14701
-0.00144501
0.0162508
-0.0134474
0.000629418
0.305508
-0.0129878
0.758699
-0.0342977
1.10452
-0.0588454
1.38872
-0.0848474
1.65871
-0.110846
1.92681
-0.13505
2.20705
-0.155066
2.5273
-0.166992
2.88442
-0.164855
3.28258
-0.148928
3.1259
-0.125837
2.51424
-0.0975697
2.04067
-0.0636568
1.63812
-0.0316634
1.24513
-0.00612008
0.823339
0.00543924
0.420655
0.00387886
0.14857
0.000713302
0.0194164
-0.0127341
0.00438504
0.301123
-0.00453444
0.767619
-0.0226325
1.12261
-0.0434776
1.40957
-0.0653069
1.68054
-0.0871421
1.94864
-0.107762
2.22767
-0.124246
2.54379
-0.13274
2.89292
-0.12876
3.2786
-0.11172
3.10886
-0.0871374
2.48966
-0.058807
2.01234
-0.0320107
1.61132
-0.00358831
1.21671
0.0163649
0.803385
0.017982
0.419038
0.00977779
0.156775
0.00249493
0.0266992
-0.0102392
0.00518387
0.295939
-0.000767045
0.77357
-0.0163803
1.13823
-0.03452
1.42771
-0.0536526
1.69967
-0.0727016
1.96769
-0.0905097
2.24548
-0.104989
2.55827
-0.11284
2.90077
-0.108273
3.27403
-0.0900506
3.09064
-0.0660792
2.46569
-0.0392171
1.98548
-0.00961688
1.58172
0.0123116
1.19478
0.0233486
0.792348
0.0221869
0.420199
0.0121064
0.166855
0.00328142
0.0355242
-0.00695775
0.00440169
0.291538
0.000366115
0.777605
-0.01286
1.15145
-0.029348
1.4442
-0.0464723
1.7168
-0.0635802
1.9848
-0.0799237
2.26182
-0.0932937
2.57164
-0.0999399
2.90741
-0.09486
3.26895
-0.0783595
3.07414
-0.054307
2.44163
-0.0275345
1.9587
-0.0053649
1.55955
0.0151252
1.17429
0.0263659
0.781108
0.0226198
0.423946
0.0124553
0.17702
0.00351295
0.0444665
-0.0034448
0.00267534
0.288862
-0.00078602
0.781067
-0.0123031
1.16297
-0.0268525
1.45874
-0.0428448
1.73279
-0.0589606
2.00092
-0.0742697
2.27713
-0.0868318
2.5842
-0.0932239
2.9138
-0.0889981
3.26473
-0.0719313
3.05707
-0.0499325
2.41964
-0.027857
1.93663
-0.0024595
1.53416
0.0149949
1.15684
0.0224414
0.773661
0.0202259
0.426161
0.0112635
0.185982
0.00331209
0.0524179
-0.00013271
0.000916411
0.287946
-0.0021283
0.784111
-0.0127449
1.17359
-0.0262369
1.47224
-0.0412307
1.74778
-0.0563247
2.01601
-0.0709378
2.29174
-0.0832637
2.59652
-0.0901822
2.92072
-0.0879063
3.26245
-0.0736413
3.04281
-0.0528846
2.39888
-0.0285153
1.91226
-0.00930502
1.51495
0.00805817
1.13947
0.0182811
0.763438
0.0159203
0.428522
0.00908912
0.192813
0.00271483
0.0587922
0.00258212
-0.000496669
0.288443
-0.00506305
0.788678
-0.0143974
1.18292
-0.0265036
1.48434
-0.0406631
1.76194
-0.0553477
2.0307
-0.0697748
2.30617
-0.0824525
2.6092
-0.0904214
2.92869
-0.0891342
3.26116
-0.0749741
3.02865
-0.0561824
2.38009
-0.0376556
1.89373
-0.0152519
1.49254
0.00141632
1.1228
0.00896492
0.75589
0.0102617
0.427225
0.00602751
0.197047
0.00199042
0.0628293
0.00457254
-0.00160014
0.290043
-0.00645646
0.793534
-0.0157544
1.19222
-0.0275095
1.4961
-0.0410048
1.77544
-0.0550395
2.04473
-0.069276
2.32041
-0.0822967
2.62222
-0.0912154
2.93761
-0.0921474
3.2621
-0.0818579
3.01836
-0.0633519
2.36158
-0.0411983
1.87158
-0.0247202
1.47606
-0.0091324
1.10722
0.00234937
0.744408
0.00428459
0.42529
0.00320373
0.198128
0.00125502
0.064778
0.00582757
-0.00315096
0.293194
-0.00868048
0.799063
-0.0174214
1.20096
-0.0283631
1.50704
-0.0412583
1.78833
-0.0551563
2.05863
-0.0696155
2.33487
-0.0833657
2.63597
-0.0938636
2.94811
-0.096864
3.2651
-0.0872042
3.0087
-0.0703605
2.34474
-0.0533629
1.85458
-0.0322434
1.45494
-0.0163219
1.09129
-0.00646773
0.734554
-0.000741838
0.419564
0.000250347
0.197136
0.000370677
0.0646577
0.00619824
-0.00390259
0.297096
-0.00950383
0.804665
-0.0184161
1.20987
-0.0293793
1.518
-0.041974
1.80093
-0.0554571
2.07211
-0.0698475
2.34926
-0.0840371
2.65016
-0.0957692
2.95984
-0.10105
3.27038
-0.0949398
3.00259
-0.0795897
2.32939
-0.0576788
1.83267
-0.0408559
1.43812
-0.0242538
1.07469
-0.0106774
0.720977
-0.00489549
0.413782
-0.00131199
0.193553
-3.34028e-05
0.0633791
0.00616484
-0.00428676
0.301383
-0.0108397
0.811218
-0.0195248
1.21856
-0.0298832
1.52836
-0.0420603
1.8131
-0.055491
2.08554
-0.0701326
2.3639
-0.0850649
2.66509
-0.0984824
2.97326
-0.10644
3.27833
-0.102462
2.99861
-0.0878815
2.31481
-0.0701277
1.81492
-0.0468932
1.41489
-0.0282886
1.05609
-0.0155858
0.708275
-0.00683295
0.405029
-0.00236413
0.189084
-0.000369582
0.0613845
0.00579526
-0.00427141
0.305655
-0.0109869
0.817933
-0.0198848
1.22746
-0.0303541
1.53883
-0.0423854
1.82514
-0.0554859
2.09864
-0.0700363
2.37845
-0.0854032
2.68046
-0.100143
2.988
-0.110579
3.28877
-0.109861
2.99789
-0.0967867
2.30173
-0.0743264
1.79246
-0.0533742
1.39393
-0.0320799
1.03479
-0.0149996
0.691194
-0.00694393
0.396974
-0.00223515
0.184375
-0.000571622
0.059721
0.00522364
-0.00444601
0.310101
-0.0117196
0.825207
-0.0203387
1.23607
-0.0302613
1.54875
-0.0418858
1.83676
-0.0549218
2.11168
-0.0697024
2.39323
-0.0857335
2.69649
-0.10185
3.00411
-0.114699
3.30162
-0.116567
2.99976
-0.105484
2.29065
-0.087289
1.77426
-0.0582907
1.36494
-0.0321816
1.00868
-0.0140393
0.673052
-0.00216625
0.3851
0.00154625
0.180662
0.00129248
0.0599748
0.00651612
-0.00441565
0.314516
-0.0114961
0.832287
-0.0201181
1.2447
-0.0301027
1.55874
-0.0415981
1.84825
-0.054341
2.12442
-0.0689849
2.40787
-0.085298
2.71281
-0.102535
3.02135
-0.117875
3.31696
-0.123571
3.00545
-0.114782
2.28186
-0.091871
1.75135
-0.06442
1.33749
-0.0317721
0.976037
-0.00591037
0.64719
0.00671874
0.372471
0.00608759
0.181294
-0.00101617
0.0670785
0.00549995
-0.00452945
0.319046
-0.0118264
0.839584
-0.0200689
1.25294
-0.0294848
1.56815
-0.0405267
1.8593
-0.0531424
2.13704
-0.0679096
2.42264
-0.0847079
2.7296
-0.102976
3.03962
-0.120131
3.33411
-0.128693
3.01402
-0.123262
2.27643
-0.106012
1.7341
-0.0705973
1.30207
-0.0296375
0.935077
0.00687505
0.610678
0.0341652
0.345181
0.0426506
0.172808
0.0273234
0.0824057
0.0328234
-0.00437788
0.323424
-0.0113199
0.846526
-0.0194516
1.26107
-0.02884
1.57754
-0.0397098
1.87017
-0.0520075
2.14934
-0.0665326
2.43717
-0.083423
2.74649
-0.102477
3.05867
-0.121823
3.35346
-0.133822
3.02602
-0.132585
2.27519
-0.111971
1.71348
-0.0789495
1.26905
-0.0301135
0.886241
0.0179536
0.56261
0.0570389
0.306096
0.0513272
0.17852
0.0225318
0.111201
0.0553552
-0.00430283
0.327726
-0.0113358
0.853559
-0.0190646
1.2688
-0.0278494
1.58633
-0.0382438
1.88056
-0.0503298
2.16142
-0.0648598
2.4517
-0.0820441
2.76368
-0.101765
3.0784
-0.122451
3.37415
-0.136577
3.04014
-0.139553
2.27817
-0.127901
1.70183
-0.0907121
1.23186
-0.0364037
0.831933
0.0352092
0.490998
0.132658
0.208647
0.200699
0.11048
0.184238
0.127662
0.239593
-0.00412526
0.331852
-0.0108438
0.860278
-0.0186355
1.27659
-0.0276834
1.59537
-0.0384279
1.89131
-0.050926
2.17392
-0.0662265
2.467
-0.0848437
2.7823
-0.10716
3.10071
-0.132537
3.39952
-0.153295
3.0609
-0.162222
2.2871
-0.149099
1.68871
-0.11602
1.19878
-0.0523943
0.768307
0.00607377
0.43253
-0.0554352
0.270156
-0.355132
0.410177
-0.944023
0.716553
0.901431
-1.60586
-0.00400753
0.335859
-0.010807
0.867077
-0.0183067
1.28409
-0.0269597
1.60403
-0.0374478
1.90179
-0.0501036
2.18658
-0.0659898
2.48288
-0.0857451
2.80205
-0.109994
3.12496
-0.138576
3.4281
-0.163876
3.0862
-0.178121
2.30134
-0.18317
1.69376
-0.15761
1.17322
-0.1246
0.735297
-0.222114
0.530044
-0.693839
0.741881
-1.44941
1.16575
-2.05528
1.32241
1.21614
-2.36999
-0.00375882
0.339618
-0.0100916
0.87341
-0.0174651
1.29146
-0.0261828
1.61275
-0.0367412
1.91235
-0.0494786
2.19931
-0.065641
2.49904
-0.0861378
2.82255
-0.112199
3.15102
-0.14487
3.46078
-0.177453
3.11878
-0.201037
2.32493
-0.206238
1.69896
-0.189431
1.15642
-0.274774
0.820639
-0.753076
1.00835
-1.55323
1.54203
-2.11407
1.7266
-2.35223
1.56057
1.32995
-2.46603
-0.00364653
0.343264
-0.00987387
0.879637
-0.0168869
1.29848
-0.025162
1.62102
-0.035388
1.92258
-0.0481877
2.21211
-0.0648133
2.51567
-0.0863431
2.84408
-0.114315
3.17899
-0.150436
3.4969
-0.188508
3.15685
-0.218761
2.35518
-0.24312
1.72332
-0.317634
1.23093
-0.679175
1.18218
-1.44236
1.77153
-2.0298
2.12948
-2.26875
1.96555
-2.38151
1.67333
1.39368
-2.44524
-0.00331826
0.346583
-0.00898687
0.885306
-0.0157676
1.30526
-0.0240201
1.62927
-0.0343192
1.93288
-0.0471473
2.22494
-0.0639288
2.53245
-0.0860344
2.86618
-0.115636
3.2086
-0.155785
3.53705
-0.202107
3.20318
-0.245153
2.39823
-0.283435
1.7616
-0.464153
1.41165
-1.09563
1.81366
-1.79146
2.46736
-2.10965
2.44767
-2.25717
2.11306
-2.33903
1.75519
1.45966
-2.40501
-0.00332496
0.349908
-0.00912706
0.891108
-0.0158044
1.31194
-0.0238723
1.63734
-0.0342076
1.94321
-0.0473404
2.23807
-0.0647842
2.5499
-0.0880792
2.88948
-0.119686
3.2402
-0.163486
3.58085
-0.215802
3.25549
-0.261795
2.44422
-0.348712
1.84852
-0.742562
1.8055
-1.49216
2.56326
-1.96323
2.93843
-2.1629
2.64733
-2.26889
2.21905
-2.34603
1.83233
1.52294
-2.40931
-0.00337413
0.353282
-0.00917328
0.896907
-0.0163069
1.31907
-0.0250817
1.64612
-0.0361709
1.9543
-0.0499922
2.2519
-0.0681976
2.5681
-0.092558
2.91384
-0.126085
3.27373
-0.173961
3.62872
-0.231858
3.31339
-0.293693
2.50605
-0.480251
2.03507
-1.04579
2.37104
-1.6795
3.19697
-1.95311
3.21204
-2.09964
2.79386
-2.21337
2.33279
-2.30694
1.9259
1.58449
-2.3685
-0.00352475
0.356807
-0.00998437
0.903367
-0.0174348
1.32652
-0.0263754
1.65506
-0.0377067
1.96563
-0.0521583
2.26635
-0.0714195
2.58736
-0.0973756
2.93979
-0.133172
3.30953
-0.185066
3.68062
-0.248452
3.37677
-0.333347
2.59095
-0.614829
2.31656
-1.26408
3.02029
-1.75181
3.6847
-1.95874
3.41897
-2.09817
2.93328
-2.22186
2.45648
-2.33203
2.03607
1.64306
-2.39059
-0.00343593
0.360243
-0.00977759
0.909708
-0.0178247
1.33457
-0.0276992
1.66493
-0.0399645
1.9779
-0.0551966
2.28158
-0.0752587
2.60742
-0.102271
2.96681
-0.139908
3.34716
-0.194978
3.73568
-0.263115
3.44491
-0.387616
2.71545
-0.774213
2.70315
-1.41032
3.6564
-1.76157
4.03595
-1.93414
3.59153
-2.03573
3.03488
-2.12412
2.54487
-2.19094
2.10289
1.6357
-2.18358
-0.0034822
0.363725
-0.0106519
0.916878
-0.0190464
1.34296
-0.0290232
1.67491
-0.0414931
1.99037
-0.0573755
2.29746
-0.078564
2.62861
-0.107263
2.99551
-0.147125
3.38703
-0.204768
3.79333
-0.283785
3.52393
-0.452968
2.88463
-0.905628
3.15581
-1.4619
4.21267
-1.7229
4.29695
-1.87407
3.7427
-1.96727
3.12808
-1.96818
2.54578
-1.89845
2.03316
1.59886
-1.86161
-0.00321648
0.366941
-0.00998192
0.923643
-0.0189798
1.35196
-0.0299999
1.68593
-0.0434484
2.00382
-0.0599346
2.31395
-0.081436
2.65011
-0.11025
3.02432
-0.150372
3.42715
-0.207239
3.8502
-0.293031
3.60972
-0.497687
3.08929
-0.988441
3.64657
-1.42877
4.653
-1.59315
4.46133
-1.65991
3.80946
-1.66414
3.13231
-1.51633
2.39797
-1.01645
1.53328
0.582406
-0.00286815
0.369809
-0.0107553
0.931531
-0.0201302
1.36133
-0.0312445
1.69704
-0.0451138
2.01769
-0.0627821
2.33162
-0.086354
2.67369
-0.11832
3.05629
-0.162727
3.47155
-0.227121
3.91459
-0.330499
3.7131
-0.584044
3.34283
-1.1236
4.18612
-1.48118
5.01058
-1.58024
4.56039
-1.57788
3.8071
-1.47392
3.02835
-1.23513
2.15918
-0.631044
0.929194
-0.0486376
-0.00252233
0.372332
-0.0092393
0.938247
-0.0192014
1.3713
-0.0318211
1.70966
-0.0473866
2.03325
-0.0666232
2.35085
-0.0919411
2.699
-0.126183
3.09053
-0.174754
3.52013
-0.244598
3.98443
-0.367064
3.83556
-0.681972
3.65774
-1.24229
4.74644
-1.502
5.27029
-1.56017
4.61857
-1.53765
3.78459
-1.33582
2.82651
-0.78192
1.60528
-0.108445
0.255719
-0.157082
-0.00164664
0.373978
-0.00965724
0.946258
-0.0198653
1.3815
-0.0322962
1.72209
-0.0479519
2.04891
-0.0682002
2.3711
-0.0956062
2.72641
-0.133267
3.12819
-0.185913
3.57277
-0.264749
4.06327
-0.414116
3.98493
-0.785878
4.0295
-1.32027
5.28083
-1.49593
5.44594
-1.52713
4.64977
-1.43871
3.69616
-1.10093
2.48873
-0.312511
0.816861
0.0247299
-0.0815222
-0.132353
-0.000851282
0.37483
-0.00664456
0.952051
-0.017141
1.392
-0.0312559
1.73621
-0.048782
2.06643
-0.0706911
2.39301
-0.0998265
2.75555
-0.139379
3.16774
-0.194702
3.62809
-0.281164
4.14973
-0.456068
4.15984
-0.894349
4.46779
-1.36564
5.75212
-1.48168
5.56198
-1.48405
4.65214
-1.25882
3.47094
-0.685413
1.91532
-0.0626213
0.194069
0.030141
-0.174285
-0.102212
1.53667e-05
0.374814
-0.00613254
0.958199
-0.0164976
1.40237
-0.0300645
1.74977
-0.0470507
2.08342
-0.069642
2.4156
-0.100554
2.78646
-0.143162
3.21035
-0.202264
3.6872
-0.298595
4.24606
-0.50059
4.36183
-0.988656
4.95585
-1.36126
6.12473
-1.42481
5.62553
-1.37847
4.60581
-1.08989
3.18236
-0.321821
1.14725
0.00498724
-0.13274
0.0150341
-0.184331
-0.0871775
0.00333829
0.371476
0.00056424
0.960973
-0.0104561
1.41339
-0.0258867
1.76521
-0.0446171
2.10215
-0.0689185
2.4399
-0.101278
2.81882
-0.145015
3.25409
-0.206314
3.74849
-0.309848
4.3496
-0.537038
4.58902
-1.04948
5.46829
-1.3249
6.40015
-1.3661
5.66673
-1.22535
4.46506
-0.77027
2.72727
-0.0679218
0.444906
0.0446082
-0.24527
0.0242956
-0.164019
-0.0628818
0.00432048
0.367155
0.00224862
0.963045
-0.00763629
1.42327
-0.0213554
1.77892
-0.0386325
2.11943
-0.063054
2.46432
-0.0963596
2.85212
-0.142438
3.30016
-0.206925
3.81298
-0.319553
4.46223
-0.577933
4.8474
-1.07315
5.96351
-1.26255
6.58954
-1.27061
5.6748
-1.05066
4.24511
-0.459756
2.13637
-0.0186588
0.0038091
-0.00676855
-0.25716
0.00476526
-0.175553
-0.0581166
0.00868507
0.35847
0.0100762
0.961654
0.00293925
1.43041
-0.0112701
1.79313
-0.030376
2.13853
-0.0560755
2.49002
-0.0900678
2.88612
-0.135857
3.34595
-0.201279
3.8784
-0.318844
4.57979
-0.597789
5.12634
-1.0485
6.41422
-1.17199
6.71303
-1.15741
5.66022
-0.896794
3.98449
-0.262836
1.50241
-0.070741
-0.188286
-0.0389586
-0.288942
-0.0144118
-0.200099
-0.0725284
0.0113445
0.347126
0.0157587
0.95724
0.0106229
1.43554
0.000464569
1.80329
-0.0177123
2.15671
-0.0419032
2.51421
-0.07511
2.91932
-0.121598
3.39244
-0.188286
3.94509
-0.311186
4.70269
-0.598584
5.41374
-0.986247
6.80188
-1.0514
6.77818
-0.979643
5.58846
-0.675814
3.68066
-0.0703233
0.896919
0.014939
-0.273549
0.00022335
-0.274227
-0.00165323
-0.198223
-0.0741816
0.0185198
0.328606
0.0302144
0.945545
0.0290259
1.43673
0.0177811
1.81454
-0.00044585
2.17494
-0.0234505
2.53722
-0.055938
2.95181
-0.100302
3.4368
-0.164821
4.00961
-0.286029
4.8239
-0.565588
5.6933
-0.872328
7.10862
-0.906014
6.81187
-0.804945
5.48739
-0.445121
3.32084
0.0683905
0.383407
0.078338
-0.283496
0.0581376
-0.254026
0.0224789
-0.162564
-0.0517027
0.0242301
0.304376
0.0421334
0.927642
0.0450361
1.43383
0.038326
1.82125
0.0260647
2.1872
0.00480247
2.55848
-0.0248292
2.98144
-0.0669675
3.47894
-0.128801
4.07144
-0.245
4.9401
-0.494575
5.94288
-0.715139
7.32919
-0.745417
6.84215
-0.638805
5.38078
-0.306586
2.98862
-0.00137427
0.0781959
0.0188391
-0.303709
0.0300282
-0.265216
0.0155037
-0.148039
-0.036199
0.035242
0.269134
0.0654265
0.897457
0.0765299
1.42273
0.0731495
1.82463
0.0621027
2.19824
0.0426909
2.57789
0.0153393
3.00879
-0.0225683
3.51685
-0.0775573
4.12643
-0.17665
5.03919
-0.379809
6.14603
-0.536466
7.48584
-0.556668
6.86235
-0.459502
5.28362
-0.180981
2.7101
-0.0692699
-0.0335156
-0.0534853
-0.319494
-0.0219039
-0.296797
-0.00350099
-0.166442
-0.0397
0.0446642
0.22447
0.0869736
0.855148
0.106916
1.40278
0.111329
1.82021
0.107139
2.20243
0.0933092
2.59172
0.0724634
3.02964
0.0405967
3.54872
-0.00985595
4.17689
-0.0851045
5.11444
-0.222055
6.28299
-0.312708
7.5765
-0.325998
6.87564
-0.267156
5.22477
-0.0666063
2.50955
-0.0848359
-0.015286
-0.0705893
-0.333741
-0.0270635
-0.340323
0.00555915
-0.199065
-0.0341408
0.0581723
0.166297
0.120826
0.792495
0.157577
1.36603
0.170119
1.80767
0.170156
2.2024
0.160018
2.60186
0.145136
3.04452
0.123024
3.57083
0.088476
4.21143
0.0418494
5.16107
-0.0126641
6.3375
-0.0481339
7.61197
-0.0529083
6.88041
-0.0318289
5.20369
0.0149987
2.46272
-0.132069
0.131782
-0.120986
-0.344824
-0.0496377
-0.411671
0.0186868
-0.26739
-0.015454
0.0602746
0.106023
0.150626
0.702144
0.2069
1.30976
0.233589
1.78098
0.245131
2.19086
0.244406
2.60259
0.238178
3.05075
0.226526
3.58248
0.209644
4.22832
0.190419
5.18029
0.24483
6.28309
0.290953
7.56584
0.279575
6.89179
0.133015
5.35025
-0.145137
2.74088
-0.423201
0.409846
-0.440344
-0.327681
-0.32459
-0.527425
-0.139971
-0.452009
-0.155425
0.050269
0.0557539
0.184091
0.568321
0.279883
1.21397
0.325882
1.73499
0.345924
2.17081
0.353206
2.5953
0.353816
3.05014
0.356723
3.57957
0.361311
4.22373
0.37948
5.16212
0.527396
6.13517
0.680273
7.41297
0.676147
6.89592
0.511301
5.5151
-0.00197127
3.25415
-0.541915
0.94979
-0.706536
-0.16306
-0.55491
-0.679051
-0.297215
-0.709703
-0.45264
0.0344671
0.0212867
0.218968
0.383821
0.344845
1.08809
0.421534
1.6583
0.46312
2.12923
0.486562
2.57186
0.494384
3.04232
0.509834
3.56412
0.53911
4.19445
0.601595
5.09964
0.866162
5.87061
1.2541
7.02503
1.5053
6.64472
1.64727
5.37313
1.23988
3.66153
0.47165
1.71802
-0.0931696
0.40176
-0.353407
-0.418814
-0.257934
-0.805176
-0.710574
0.0308229
-0.00953614
0.23714
0.177503
0.448152
0.877077
0.562654
1.54379
0.613108
2.07877
0.646617
2.53835
0.668729
3.0202
0.695965
3.53689
0.749683
4.14073
0.868664
4.98066
1.24184
5.49743
1.90091
6.36596
2.27021
6.27542
2.50164
5.1417
2.36882
3.79435
1.74977
2.33708
1.11471
1.03681
0.487146
0.208753
0.142537
-0.460567
-0.568037
0.0256389
-0.0351751
0.162657
0.040485
0.493812
0.545922
0.6891
1.34851
0.789258
1.97862
0.838287
2.48932
0.872895
2.9856
0.901643
3.50814
0.977149
4.06523
1.1188
4.83901
1.50563
5.11059
2.2939
5.57769
2.68579
5.88353
2.87069
4.9568
2.75573
3.90932
2.26337
2.82943
1.61918
1.681
1.04903
0.778912
0.442899
0.145559
-0.125138
0.00425442
-0.0394295
0.0823892
-0.0376498
0.414293
0.214018
0.707531
1.05527
0.841635
1.84451
0.883862
2.4471
0.89285
2.97661
0.876964
3.52403
0.875099
4.06709
0.918109
4.796
1.06977
4.95893
1.50848
5.13898
1.68294
5.70907
1.72219
4.91754
1.64018
3.99134
1.40831
3.06129
1.02805
2.06127
0.63756
1.1694
0.259826
0.523294
0.134688
0.00398825
-0.0434177
0.0455049
-0.0791664
0.223283
0.0362401
0.539938
0.738614
0.709385
1.67506
0.764585
2.3919
0.781769
2.95942
0.777546
3.52825
0.760898
4.08374
0.781236
4.77566
0.854001
4.88616
1.14359
4.8494
1.33195
5.52072
1.34021
4.90928
1.27754
4.054
1.11802
3.22082
0.83127
2.34801
0.518816
1.48185
0.219938
0.822171
0.354626
0.00478928
-0.048207
0.0241251
-0.0985023
0.0971277
-0.0367624
0.370467
0.465274
0.562982
1.48255
0.647973
2.30691
0.663279
2.94412
0.660452
3.53108
0.636314
4.10788
0.633884
4.77809
0.663233
4.85681
0.830989
4.68164
1.00865
5.34305
1.00394
4.91399
0.943937
4.114
0.823907
3.34085
0.624327
2.54759
0.385435
1.72074
0.154675
1.05293
0.509301
-0.0077713
-0.0404357
-0.00765972
-0.0986138
0.0259454
-0.0703675
0.235258
0.255962
0.42257
1.29524
0.520223
2.20925
0.546658
2.91768
0.547907
3.52983
0.520901
4.13488
0.501246
4.79775
0.505474
4.85259
0.605085
4.58203
0.736494
5.21164
0.727565
4.92292
0.66431
4.17726
0.568838
3.43632
0.428323
2.68811
0.253869
1.8952
0.0917766
1.21502
0.601078
-0.0148345
-0.0256012
-0.0100515
-0.103397
0.0172808
-0.0976998
0.151205
0.122037
0.322148
1.12429
0.394642
2.13676
0.416358
2.89597
0.421539
3.52465
0.408308
4.14812
0.388749
4.8173
0.377051
4.86428
0.431545
4.52754
0.5188
5.12439
0.510025
4.9317
0.452202
4.23508
0.376764
3.51176
0.276438
2.78843
0.156323
2.01531