/*--------------------------------*- C++ -*----------------------------------*\
  =========                 |
  \\      /  F ield         | OpenFOAM: The Open Source CFD Toolbox
   \\    /   O peration     | Website:  https://openfoam.org
    \\  /    A nd           | Version:  10
     \\/     M anipulation  |
\*---------------------------------------------------------------------------*/
FoamFile
{
    format      ascii;
    class       volVectorField;
    location    "61";
    object      U;
}
// * * * * * * * * * * * * * * * * * * * * * * * * * * * * * * * * * * * * * //

dimensions      [0 1 -1 0 0 0 0];

internalField   nonuniform List<vector> 
2200
(
(0.878854 -0.0304104 0)
(1.0058 -0.0512778 0)
(1.0033 -0.0353821 0)
(1.00031 -0.0244214 0)
(0.999909 -0.0166316 0)
(1.00002 -0.0107048 0)
(1.00001 -0.00680929 0)
(0.999987 -0.00417377 0)
(0.999945 -0.00214278 0)
(1.00019 -0.000579494 0)
(1.00004 0.00112473 0)
(1.00016 0.00259839 0)
(1.00028 0.00451057 0)
(1.0002 0.0070962 0)
(1.00014 0.0108446 0)
(1.00007 0.016659 0)
(1.00037 0.024374 0)
(1.00348 0.0348602 0)
(1.00599 0.0513797 0)
(0.879054 0.030296 0)
(0.712013 -0.0327664 0)
(0.99665 -0.0630146 0)
(1.03332 -0.0561753 0)
(1.02489 -0.0464426 0)
(1.01586 -0.0361467 0)
(1.00964 -0.0264041 0)
(1.00593 -0.0181679 0)
(1.00381 -0.0114336 0)
(1.00267 -0.00609337 0)
(1.00208 -0.00167092 0)
(1.00191 0.00247327 0)
(1.0022 0.00703896 0)
(1.00331 0.0123177 0)
(1.00553 0.0189044 0)
(1.00932 0.0271997 0)
(1.01543 0.0369487 0)
(1.02456 0.0474591 0)
(1.03316 0.058002 0)
(0.996709 0.063138 0)
(0.711777 0.0330363 0)
(0.535563 -0.0238909 0)
(0.969923 -0.0569266 0)
(1.05644 -0.0547113 0)
(1.05228 -0.0487391 0)
(1.03629 -0.0404129 0)
(1.02448 -0.0322562 0)
(1.01591 -0.0239764 0)
(1.01038 -0.0161117 0)
(1.0071 -0.00881006 0)
(1.00558 -0.00210477 0)
(1.00584 0.00436165 0)
(1.0074 0.0107833 0)
(1.01049 0.0177932 0)
(1.0158 0.0254717 0)
(1.0242 0.0334318 0)
(1.03624 0.0414058 0)
(1.0523 0.0493962 0)
(1.05633 0.0532387 0)
(0.969221 0.0576476 0)
(0.534412 0.0239358 0)
(0.392341 -0.0136481 0)
(0.911829 -0.0463863 0)
(1.05751 -0.0468987 0)
(1.06952 -0.0442946 0)
(1.05483 -0.0381525 0)
(1.03932 -0.031456 0)
(1.02756 -0.0246651 0)
(1.01911 -0.0174327 0)
(1.01379 -0.00995546 0)
(1.01114 -0.00244085 0)
(1.01064 0.00502033 0)
(1.01281 0.0125287 0)
(1.01807 0.0197896 0)
(1.02653 0.0266431 0)
(1.03839 0.0330827 0)
(1.0539 0.039563 0)
(1.06811 0.0456538 0)
(1.05548 0.0483317 0)
(0.909884 0.0470007 0)
(0.389921 0.013781 0)
(0.307723 -0.00451608 0)
(0.846754 -0.0323859 0)
(1.04943 -0.0399378 0)
(1.07952 -0.0381911 0)
(1.06827 -0.0335296 0)
(1.05173 -0.0279224 0)
(1.03835 -0.0225019 0)
(1.0281 -0.0164409 0)
(1.02097 -0.00953451 0)
(1.01708 -0.00186673 0)
(1.0172 0.00611345 0)
(1.02084 0.0133089 0)
(1.02752 0.0197566 0)
(1.03739 0.0254204 0)
(1.05034 0.0303384 0)
(1.06675 0.0356523 0)
(1.0778 0.0399928 0)
(1.04739 0.0417287 0)
(0.843042 0.0329527 0)
(0.303764 0.00473505 0)
(0.264302 0.000102871 0)
(0.789035 -0.0200655 0)
(1.03342 -0.0314468 0)
(1.08357 -0.0320117 0)
(1.07732 -0.0287333 0)
(1.06088 -0.0238453 0)
(1.04724 -0.0193821 0)
(1.03637 -0.0142706 0)
(1.02857 -0.00818878 0)
(1.02422 -0.00121295 0)
(1.02349 0.00603595 0)
(1.027 0.0128799 0)
(1.03437 0.0186131 0)
(1.04497 0.0231711 0)
(1.0586 0.0271645 0)
(1.07487 0.0315756 0)
(1.08029 0.0342701 0)
(1.02915 0.0333472 0)
(0.782593 0.0207341 0)
(0.25875 0.000121204 0)
(0.240387 0.00107076 0)
(0.738438 -0.0122732 0)
(1.01376 -0.0249722 0)
(1.08409 -0.0267372 0)
(1.08306 -0.0244576 0)
(1.06784 -0.0203203 0)
(1.05431 -0.0163068 0)
(1.04343 -0.0117862 0)
(1.03519 -0.00640992 0)
(1.03013 4.43035e-05 0)
(1.02994 0.00687745 0)
(1.03422 0.0127156 0)
(1.04162 0.0173637 0)
(1.05179 0.0213066 0)
(1.06478 0.0246412 0)
(1.07948 0.0280623 0)
(1.07998 0.0296828 0)
(1.00762 0.0272287 0)
(0.728957 0.013147 0)
(0.23313 -0.000835757 0)
(0.226067 0.000957294 0)
(0.695559 -0.00803937 0)
(0.993142 -0.0207452 0)
(1.08224 -0.0231121 0)
(1.08686 -0.0212527 0)
(1.07339 -0.0176694 0)
(1.05993 -0.0138599 0)
(1.04937 -0.00956434 0)
(1.04146 -0.00458434 0)
(1.03669 0.00102862 0)
(1.03567 0.00687458 0)
(1.03886 0.0121767 0)
(1.04581 0.0165812 0)
(1.05586 0.0199835 0)
(1.0692 0.0230413 0)
(1.08193 0.0258031 0)
(1.07567 0.0267513 0)
(0.983306 0.0234255 0)
(0.681855 0.00911163 0)
(0.216684 -0.000715158 0)
(0.2165 0.000622527 0)
(0.660189 -0.00566763 0)
(0.972664 -0.0176127 0)
(1.07961 -0.0201881 0)
(1.09033 -0.0186025 0)
(1.0783 -0.0154455 0)
(1.06489 -0.0117768 0)
(1.05436 -0.00758331 0)
(1.04635 -0.00275741 0)
(1.0411 0.00268373 0)
(1.04035 0.00806125 0)
(1.04417 0.0128003 0)
(1.0508 0.0163973 0)
(1.06015 0.0196858 0)
(1.07262 0.0223781 0)
(1.0835 0.0245364 0)
(1.07094 0.0250172 0)
(0.959335 0.021 0)
(0.641839 0.00707089 0)
(0.204618 -0.000334872 0)
(0.209317 0.000298154 0)
(0.631625 -0.00421292 0)
(0.953775 -0.0150089 0)
(1.07647 -0.0179541 0)
(1.09342 -0.0166184 0)
(1.08299 -0.0136606 0)
(1.06956 -0.0100159 0)
(1.05913 -0.00593929 0)
(1.05143 -0.00129152 0)
(1.0466 0.0036616 0)
(1.04511 0.00874878 0)
(1.04721 0.013042 0)
(1.05318 0.0169136 0)
(1.0626 0.0196775 0)
(1.07558 0.0221059 0)
(1.08443 0.023864 0)
(1.06394 0.0237757 0)
(0.93454 0.0191081 0)
(0.606905 0.00592169 0)
(0.194164 3.94782e-05 0)
(0.203489 8.44045e-05 0)
(0.608347 -0.00314977 0)
(0.935816 -0.012553 0)
(1.07337 -0.0155599 0)
(1.0968 -0.0144078 0)
(1.0877 -0.0116676 0)
(1.07413 -0.00815808 0)
(1.0633 -0.00405825 0)
(1.05506 0.000679898 0)
(1.0495 0.00585554 0)
(1.04797 0.0106028 0)
(1.05111 0.0148541 0)
(1.05722 0.0177345 0)
(1.06614 0.0204342 0)
(1.07804 0.0224963 0)
(1.08479 0.0236603 0)
(1.05723 0.0230247 0)
(0.91084 0.0175818 0)
(0.5767 0.00526495 0)
(0.184574 0.000319076 0)
(0.19893 7.01833e-06 0)
(0.59017 -0.00229562 0)
(0.920485 -0.0102462 0)
(1.07042 -0.013454 0)
(1.10008 -0.0123896 0)
(1.09256 -0.00965943 0)
(1.07904 -0.00606232 0)
(1.06823 -0.00216612 0)
(1.06008 0.0023045 0)
(1.05468 0.00710493 0)
(1.05239 0.0119777 0)
(1.05352 0.015861 0)
(1.05866 0.0192012 0)
(1.06773 0.0211925 0)
(1.08023 0.0228524 0)
(1.08452 0.0237321 0)
(1.048 0.0224545 0)
(0.886128 0.0163628 0)
(0.549024 0.00489822 0)
(0.175117 0.000491802 0)
(0.195333 2.4458e-05 0)
(0.575413 -0.0015654 0)
(0.905868 -0.00813373 0)
(1.06764 -0.0110524 0)
(1.10371 -0.00995677 0)
(1.09753 -0.00722814 0)
(1.08378 -0.00369787 0)
(1.07227 0.000340469 0)
(1.06315 0.00500019 0)
(1.05661 0.0101285 0)
(1.05414 0.014658 0)
(1.05646 0.0182841 0)
(1.06216 0.0204183 0)
(1.07076 0.0223766 0)
(1.08172 0.0237234 0)
(1.08374 0.0241274 0)
(1.03917 0.0222607 0)
(0.862433 0.015513 0)
(0.524039 0.00471168 0)
(0.166004 0.000575759 0)
(0.193246 6.66205e-05 0)
(0.564952 -0.000765441 0)
(0.894671 -0.00588222 0)
(1.06538 -0.00870927 0)
(1.10732 -0.00746311 0)
(1.10271 -0.00458601 0)
(1.08902 -0.000819131 0)
(1.07751 0.00310294 0)
(1.06853 0.00754237 0)
(1.06196 0.0121999 0)
(1.0583 0.0167056 0)
(1.0585 0.0201198 0)
(1.06285 0.0226107 0)
(1.07167 0.0238456 0)
(1.0828 0.0247542 0)
(1.0818 0.0247664 0)
(1.02705 0.0224023 0)
(0.836864 0.0149785 0)
(0.499574 0.00465027 0)
(0.156739 0.000616541 0)
(0.192375 0.000106666 0)
(0.557457 -0.000220385 0)
(0.884333 -0.00392704 0)
(1.06369 -0.00603851 0)
(1.11138 -0.00455256 0)
(1.10814 -0.00146224 0)
(1.09429 0.00237475 0)
(1.0819 0.00660726 0)
(1.07158 0.0113346 0)
(1.06359 0.0163963 0)
(1.05982 0.0206651 0)
(1.06089 0.0233995 0)
(1.06603 0.0248742 0)
(1.07427 0.0260285 0)
(1.08286 0.0265111 0)
(1.07933 0.0260072 0)
(1.01541 0.0229338 0)
(0.812203 0.0147654 0)
(0.476636 0.00469271 0)
(0.147714 0.000635059 0)
(0.192966 8.4118e-05 0)
(0.55319 0.000832254 0)
(0.878155 -0.00156264 0)
(1.06313 -0.00341369 0)
(1.11583 -0.00159736 0)
(1.11399 0.00167032 0)
(1.10013 0.00585058 0)
(1.08768 0.0102248 0)
(1.07752 0.0149799 0)
(1.06943 0.0197406 0)
(1.06392 0.0237797 0)
(1.06255 0.0266318 0)
(1.06553 0.0280986 0)
(1.07378 0.0285819 0)
(1.08277 0.0287557 0)
(1.07467 0.0277285 0)
(0.999815 0.0237864 0)
(0.78496 0.0149297 0)
(0.452859 0.00483722 0)
(0.138234 0.00065516 0)
(0.195023 0.000233091 0)
(0.553427 0.00152675 0)
(0.873287 0.000499798 0)
(1.06375 -6.39713e-05 0)
(1.12084 0.00213112 0)
(1.12014 0.00583045 0)
(1.10618 0.0103046 0)
(1.09283 0.0152405 0)
(1.08103 0.0205053 0)
(1.07085 0.0255671 0)
(1.065 0.0294519 0)
(1.06446 0.0313211 0)
(1.06847 0.0323038 0)
(1.07571 0.0325866 0)
(1.08095 0.0318222 0)
(1.06951 0.0300243 0)
(0.984601 0.0252213 0)
(0.758109 0.0154479 0)
(0.42957 0.00510723 0)
(0.128701 0.000684487 0)
(0.199203 0.000672532 0)
(0.556088 0.00233988 0)
(0.873654 0.00336634 0)
(1.06633 0.00333439 0)
(1.1268 0.00621097 0)
(1.12712 0.0101696 0)
(1.11279 0.0151205 0)
(1.09902 0.0202707 0)
(1.08706 0.0256241 0)
(1.07685 0.0306758 0)
(1.069 0.0343916 0)
(1.06516 0.0363397 0)
(1.06615 0.036831 0)
(1.07319 0.0361995 0)
(1.07934 0.0355517 0)
(1.06175 0.0330697 0)
(0.964624 0.0270581 0)
(0.727605 0.0163572 0)
(0.404152 0.00548261 0)
(0.118265 0.00071498 0)
(0.205596 0.000873517 0)
(0.56283 0.00344613 0)
(0.87743 0.00580084 0)
(1.07103 0.00748899 0)
(1.13366 0.011025 0)
(1.13489 0.0157983 0)
(1.12029 0.0213573 0)
(1.1056 0.0273414 0)
(1.09193 0.0334803 0)
(1.07901 0.0389187 0)
(1.0697 0.0422416 0)
(1.06661 0.0431607 0)
(1.06868 0.0429612 0)
(1.07421 0.0424347 0)
(1.07522 0.0402961 0)
(1.05297 0.0368278 0)
(0.944414 0.0296218 0)
(0.696525 0.0176137 0)
(0.378119 0.00596054 0)
(0.107417 0.000750762 0)
(0.214009 0.00105457 0)
(0.574032 0.00473927 0)
(0.885663 0.00894522 0)
(1.07869 0.0120872 0)
(1.14219 0.0167383 0)
(1.1439 0.022113 0)
(1.12828 0.0285613 0)
(1.11227 0.0349032 0)
(1.09725 0.0411025 0)
(1.08324 0.0463912 0)
(1.0722 0.0500636 0)
(1.06586 0.0510185 0)
(1.06468 0.0502014 0)
(1.06941 0.0478061 0)
(1.07155 0.0460723 0)
(1.04101 0.04142 0)
(0.918028 0.0325507 0)
(0.660374 0.0191993 0)
(0.34877 0.00647821 0)
(0.0953391 0.000772432 0)
(0.22632 0.00140416 0)
(0.592286 0.0066825 0)
(0.900557 0.0132166 0)
(1.08951 0.0182239 0)
(1.15229 0.0237037 0)
(1.15421 0.0300799 0)
(1.13759 0.0373539 0)
(1.12011 0.0448209 0)
(1.10319 0.052239 0)
(1.08673 0.0585108 0)
(1.07281 0.0610313 0)
(1.066 0.0604467 0)
(1.06543 0.0587037 0)
(1.06896 0.0568223 0)
(1.06442 0.0529742 0)
(1.02699 0.0469549 0)
(0.890644 0.0364664 0)
(0.622408 0.0211147 0)
(0.317864 0.00705348 0)
(0.0826911 0.000793127 0)
(0.241946 0.00194244 0)
(0.615352 0.00852419 0)
(0.920988 0.0178681 0)
(1.10469 0.0252191 0)
(1.16473 0.0325501 0)
(1.16611 0.040043 0)
(1.14763 0.0487615 0)
(1.12802 0.0569504 0)
(1.1084 0.0643332 0)
(1.08867 0.0694209 0)
(1.07246 0.0717532 0)
(1.0634 0.0715193 0)
(1.06007 0.0690129 0)
(1.06137 0.0647662 0)
(1.05734 0.0608758 0)
(1.00884 0.0534039 0)
(0.8549 0.0403192 0)
(0.577368 0.0231318 0)
(0.282668 0.00753848 0)
(0.0687323 0.000786475 0)
(0.264006 0.00281457 0)
(0.648752 0.0123012 0)
(0.950375 0.0247909 0)
(1.12452 0.034936 0)
(1.17992 0.0433608 0)
(1.1803 0.0528612 0)
(1.15959 0.0625487 0)
(1.13732 0.0718197 0)
(1.11478 0.0801319 0)
(1.09268 0.0862156 0)
(1.07401 0.0879741 0)
(1.06227 0.0848513 0)
(1.05811 0.0808662 0)
(1.05883 0.0768483 0)
(1.04593 0.0703398 0)
(0.986999 0.0606964 0)
(0.817263 0.0454669 0)
(0.529915 0.0253961 0)
(0.245802 0.00796979 0)
(0.0544942 0.000767378 0)
(0.295056 0.00369829 0)
(0.693338 0.0154013 0)
(0.988724 0.0327022 0)
(1.15082 0.0464261 0)
(1.19872 0.0579183 0)
(1.19636 0.0694795 0)
(1.17199 0.0810734 0)
(1.14635 0.0911446 0)
(1.12022 0.0991289 0)
(1.09343 0.102965 0)
(1.0701 0.101642 0)
(1.05708 0.098658 0)
(1.05158 0.0940029 0)
(1.04793 0.0874541 0)
(1.03385 0.0807028 0)
(0.960048 0.0690421 0)
(0.768199 0.0499961 0)
(0.472136 0.0271865 0)
(0.203884 0.00809255 0)
(0.0391346 0.000663949 0)
(0.331477 0.00708972 0)
(0.751442 0.0247244 0)
(1.03826 0.0466451 0)
(1.18306 0.0646602 0)
(1.22116 0.0775171 0)
(1.21454 0.0922096 0)
(1.18552 0.104554 0)
(1.15554 0.11463 0)
(1.12478 0.121661 0)
(1.0944 0.124734 0)
(1.07018 0.123624 0)
(1.05426 0.117492 0)
(1.04583 0.109943 0)
(1.0426 0.102708 0)
(1.01596 0.0928924 0)
(0.926145 0.0775367 0)
(0.715673 0.055568 0)
(0.413614 0.0292094 0)
(0.162224 0.00804738 0)
(0.0250827 0.000600711 0)
(0.411457 0.0106618 0)
(0.838962 0.0356815 0)
(1.10436 0.0673647 0)
(1.2235 0.0901227 0)
(1.24827 0.106377 6.2471e-34)
(1.23452 0.122801 -2.81865e-34)
(1.19909 0.135124 0)
(1.16427 0.143941 0)
(1.12951 0.149299 0)
(1.09514 0.149517 0)
(1.06455 0.143171 0)
(1.04594 0.134262 0)
(1.03734 0.125847 0)
(1.0267 0.11614 0)
(0.996216 0.104722 0)
(0.886257 0.086867 0)
(0.648642 0.0593114 0)
(0.339442 0.0291716 0)
(0.112766 0.00751086 0)
(0.00941243 0.000757725 0)
(0.482367 0.0258582 4.58745e-20)
(0.941205 0.0597919 -3.47496e-20)
(1.17542 0.101908 0)
(1.26497 0.128984 2.69649e-20)
(1.27649 0.144462 -2.1867e-20)
(1.2534 0.162944 2.97394e-34)
(1.21097 0.173429 0)
(1.17072 0.180187 1.58679e-20)
(1.12987 0.182557 -5.21275e-20)
(1.0894 0.179434 1.06473e-20)
(1.05759 0.171534 0)
(1.0383 0.161529 -2.70631e-20)
(1.02579 0.149797 -3.25211e-20)
(1.01586 0.138223 5.69375e-20)
(0.962316 0.122685 -4.49689e-20)
(0.82082 0.0963635 0)
(0.555452 0.0627354 -1.61774e-20)
(0.25388 0.0280411 0)
(0.0628908 0.00716168 -8.93395e-20)
(-0.00736527 0.00045828 1.05291e-19)
(0.518703 0.0536901 -6.03752e-21)
(1.00634 0.10245 1.03195e-19)
(1.22636 0.152441 -5.55403e-21)
(1.29894 0.176869 -6.60229e-20)
(1.30136 0.194369 -4.62589e-20)
(1.26919 0.210943 7.5266e-20)
(1.22021 0.218549 0)
(1.17434 0.222458 0)
(1.12871 0.222378 8.2885e-20)
(1.08502 0.216698 0)
(1.04837 0.205842 9.76267e-20)
(1.02262 0.190814 2.9039e-20)
(1.00743 0.176995 4.74987e-22)
(0.981656 0.162196 -6.185e-20)
(0.92078 0.141282 0)
(0.758585 0.111041 0)
(0.480015 0.066523 -2.63532e-19)
(0.195161 0.0265622 6.62652e-19)
(0.0311775 0.00530239 -3.91712e-19)
(-0.0189083 -0.00134215 -4.61395e-19)
(0.526006 0.0761752 -5.70285e-20)
(1.04232 0.159567 2.2021e-20)
(1.2625 0.212597 1.21943e-20)
(1.32549 0.236036 1.14953e-19)
(1.32075 0.25196 1.45581e-20)
(1.28117 0.264054 -1.95978e-19)
(1.22655 0.267688 6.69333e-20)
(1.1754 0.268202 0)
(1.12397 0.264505 -1.75149e-19)
(1.07363 0.254893 1.55796e-19)
(1.03075 0.238835 -2.63463e-19)
(1.00371 0.221479 1.23509e-19)
(0.986594 0.206097 -8.00726e-20)
(0.964813 0.190328 1.80483e-19)
(0.887707 0.166874 0)
(0.712884 0.125002 -6.57928e-20)
(0.434851 0.0725374 0)
(0.176138 0.027692 3.61879e-19)
(0.0229256 0.00425542 -8.57901e-19)
(-0.0225682 -0.00315682 5.37081e-19)
(0.522473 0.108068 1.52864e-19)
(1.06499 0.216945 -6.75047e-20)
(1.28519 0.278262 -1.45725e-20)
(1.34278 0.300896 0)
(1.33303 0.314552 -8.52317e-20)
(1.28826 0.321451 1.05246e-19)
(1.22892 0.320271 -7.15499e-20)
(1.17274 0.31658 0)
(1.1166 0.308922 1.24424e-19)
(1.06266 0.2951 -1.09423e-19)
(1.01755 0.275589 2.27849e-19)
(0.987137 0.256614 0)
(0.965306 0.238996 -1.7009e-19)
(0.931003 0.217479 9.58466e-20)
(0.854669 0.187978 2.41334e-19)
(0.681069 0.142672 -2.12344e-19)
(0.416715 0.0830048 3.3565e-19)
(0.173118 0.0322466 -7.42199e-19)
(0.0237675 0.00445314 4.69776e-19)
(-0.0228651 -0.00469379 -5.87491e-19)
(0.509758 0.132054 -4.87938e-20)
(1.07022 0.269716 3.47001e-20)
(1.29521 0.343407 -4.85766e-20)
(1.35182 0.366468 9.8735e-20)
(1.33893 0.37808 -9.43704e-20)
(1.29052 0.379869 3.3042e-20)
(1.22762 0.374014 3.73114e-21)
(1.1679 0.366007 -1.40134e-19)
(1.10801 0.353602 -1.30164e-19)
(1.04938 0.334811 -2.34708e-19)
(0.999232 0.311745 -4.90004e-19)
(0.964018 0.289605 -1.5117e-19)
(0.940781 0.269063 2.21704e-21)
(0.912966 0.247716 -3.28225e-19)
(0.830557 0.216858 -5.3303e-21)
(0.658821 0.1617 3.08985e-19)
(0.408935 0.0952292 -9.28704e-20)
(0.177985 0.0396872 -5.37686e-20)
(0.0316153 0.0059984 0)
(-0.0197395 -0.00512931 1.2494e-18)
(0.494068 0.153189 0)
(1.06707 0.32055 -1.5425e-21)
(1.29816 0.407254 -7.32011e-21)
(1.35406 0.430622 -1.29103e-20)
(1.3386 0.440961 9.05369e-20)
(1.28781 0.438372 -7.74067e-20)
(1.22235 0.427999 7.79157e-20)
(1.15934 0.415466 2.30194e-19)
(1.09556 0.398965 -7.25016e-20)
(1.03252 0.376294 1.15771e-19)
(0.978564 0.348925 2.63437e-19)
(0.943666 0.323961 3.29618e-19)
(0.917689 0.301216 -1.98632e-19)
(0.878303 0.275892 3.55544e-19)
(0.801381 0.238372 -2.81791e-19)
(0.639206 0.184048 0)
(0.404899 0.111258 -7.05185e-19)
(0.188284 0.0497134 9.49158e-19)
(0.0438317 0.0104916 7.08423e-20)
(-0.0142241 -0.00456167 -1.32182e-18)
(0.478186 0.172786 -5.09208e-21)
(1.05659 0.367284 -1.15993e-20)
(1.29432 0.467346 5.29808e-20)
(1.35126 0.492461 -7.59943e-20)
(1.33402 0.50191 7.59175e-20)
(1.28149 0.495167 -7.45528e-20)
(1.21391 0.480874 1.53957e-19)
(1.14828 0.464542 -6.87671e-20)
(1.08132 0.443755 -2.92482e-19)
(1.01496 0.416453 -2.0839e-22)
(0.959537 0.385664 -2.86543e-19)
(0.919564 0.357502 -3.54936e-19)
(0.890708 0.331372 2.19515e-19)
(0.860308 0.306193 -1.27918e-19)
(0.779216 0.269399 3.06678e-19)
(0.623299 0.204364 0)
(0.402514 0.12852 -4.3845e-19)
(0.197553 0.0608698 6.4759e-19)
(0.0553614 0.0162721 1.22485e-18)
(-0.00845984 -0.00329476 -1.44038e-18)
(0.464651 0.190773 -8.30085e-20)
(1.04607 0.413013 3.59944e-20)
(1.28785 0.525555 -3.22362e-20)
(1.34459 0.551653 7.82592e-20)
(1.3256 0.560367 1.21591e-20)
(1.27165 0.550309 -1.45812e-19)
(1.20234 0.532572 -8.96447e-20)
(1.13458 0.512318 -8.85174e-20)
(1.06536 0.487706 -1.65375e-19)
(0.996918 0.456426 2.66105e-19)
(0.937787 0.421699 2.8935e-19)
(0.896642 0.389201 5.63192e-19)
(0.867479 0.362933 0)
(0.826343 0.333847 6.51129e-21)
(0.7527 0.290295 -8.43502e-19)
(0.606423 0.227943 1.97846e-19)
(0.399726 0.145887 9.51343e-19)
(0.205759 0.0732065 -2.80766e-19)
(0.0663175 0.0231012 5.82678e-19)
(-0.00264434 -0.00140457 -4.85547e-20)
(0.453286 0.208081 5.8291e-21)
(1.03207 0.454217 5.55115e-20)
(1.27757 0.579667 -1.02498e-20)
(1.33501 0.60812 7.96745e-20)
(1.31471 0.616394 -1.45082e-19)
(1.25974 0.603 1.44388e-19)
(1.18929 0.582031 9.27762e-20)
(1.1202 0.558531 2.63991e-19)
(1.04893 0.53024 3.31481e-19)
(0.977185 0.495116 -3.07949e-19)
(0.915034 0.457214 0)
(0.871418 0.422604 -2.13422e-19)
(0.840024 0.391999 2.45033e-19)
(0.808302 0.361976 3.09639e-19)
(0.732111 0.320864 -1.79185e-19)
(0.590921 0.247793 -4.35957e-19)
(0.39555 0.163411 -1.29926e-19)
(0.211483 0.0855273 -1.96185e-21)
(0.0749745 0.030167 0)
(0.00227707 0.000651288 0)
(0.445338 0.224445 -8.0969e-20)
(1.02106 0.495449 0)
(1.26676 0.632085 4.80696e-21)
(1.32343 0.661822 -1.49273e-20)
(1.30193 0.669245 1.66351e-19)
(1.24615 0.653222 -4.19635e-20)
(1.1747 0.629595 9.42519e-20)
(1.10417 0.602948 -1.78455e-19)
(1.03096 0.571646 2.51411e-19)
(0.957607 0.533507 -1.01734e-19)
(0.893479 0.491299 1.66067e-19)
(0.84902 0.452785 6.77387e-19)
(0.81658 0.421592 1.43759e-20)
(0.774727 0.38839 -3.23176e-19)
(0.706049 0.339162 5.9867e-19)
(0.572813 0.27086 3.68007e-21)
(0.389454 0.179665 1.39002e-19)
(0.213834 0.097663 -6.62685e-19)
(0.0805163 0.0365108 6.82955e-19)
(0.00595388 0.00256115 -8.04582e-19)
(0.437845 0.241338 2.63117e-23)
(1.00763 0.532067 0)
(1.25379 0.680149 0)
(1.31041 0.712703 5.17491e-22)
(1.28805 0.719751 -4.84718e-20)
(1.23163 0.700972 6.70896e-20)
(1.15946 0.674671 -1.74666e-19)
(1.08803 0.645396 0)
(1.01317 0.611113 -3.7094e-19)
(0.937123 0.569582 4.46442e-19)
(0.870193 0.524197 4.74592e-19)
(0.822602 0.483908 -2.48692e-19)
(0.789261 0.447724 -3.0151e-19)
(0.757183 0.412479 7.07201e-19)
(0.684495 0.367678 -2.12888e-19)
(0.555141 0.287366 -2.53813e-19)
(0.379736 0.194705 -1.51793e-19)
(0.212099 0.107413 -7.15983e-19)
(0.0827566 0.0417152 1.04974e-19)
(0.00836793 0.0040376 8.70901e-19)
(0.43322 0.259101 -3.94734e-20)
(0.997586 0.569366 -5.27568e-20)
(1.24118 0.726693 2.36849e-20)
(1.29658 0.760696 -1.97796e-22)
(1.2734 0.766834 -5.24358e-20)
(1.21641 0.745984 1.06728e-19)
(1.14353 0.717657 0)
(1.0709 0.685929 1.08187e-19)
(0.994408 0.649345 -8.53056e-20)
(0.916966 0.605629 7.45427e-19)
(0.848376 0.556814 -1.07362e-19)
(0.799847 0.512177 1.23271e-19)
(0.765904 0.474889 0)
(0.723947 0.436627 -3.8304e-19)
(0.658204 0.381033 4.6427e-19)
(0.535334 0.306873 0)
(0.368939 0.207249 -3.26842e-19)
(0.208029 0.115739 9.62043e-19)
(0.0818846 0.0455066 1.14125e-19)
(0.00936798 0.00495078 -1.07331e-18)
(0.430021 0.276173 -9.88318e-20)
(0.98604 0.602328 1.26089e-19)
(1.22734 0.76901 0)
(1.28219 0.805801 2.08014e-20)
(1.25832 0.81181 0)
(1.20081 0.788763 -1.39867e-19)
(1.1274 0.75822 0)
(1.05419 0.724398 0)
(0.976573 0.685599 -1.13476e-19)
(0.896695 0.639092 -7.08703e-19)
(0.825164 0.587053 -8.77592e-19)
(0.773293 0.54013 1.44458e-19)
(0.738196 0.497808 5.21753e-19)
(0.705673 0.456603 4.22228e-19)
(0.636459 0.405877 -1.48993e-18)
(0.51592 0.317644 -5.9619e-19)
(0.355734 0.217865 3.49461e-19)
(0.201134 0.121826 0)
(0.0795728 0.0474727 9.78283e-19)
(0.00933878 0.00548271 -1.15667e-18)
(0.428287 0.291748 1.17508e-19)
(0.977431 0.636027 -1.46065e-19)
(1.21441 0.81018 0)
(1.26767 0.848166 -1.12671e-20)
(1.24311 0.853339 -2.65136e-21)
(1.18516 0.828708 0)
(1.11135 0.796671 5.39653e-20)
(1.03734 0.761007 7.54072e-20)
(0.958393 0.720582 -2.13117e-19)
(0.876944 0.67251 9.3813e-20)
(0.803366 0.618294 0)
(0.750532 0.56689 5.98652e-19)
(0.714115 0.522299 5.79481e-21)
(0.672082 0.477457 2.27862e-19)
(0.609899 0.413018 2.70435e-19)
(0.495298 0.331827 0)
(0.342677 0.224827 -5.69486e-19)
(0.193011 0.125651 1.11583e-18)
(0.0759531 0.0484894 -1.18279e-18)
(0.00873641 0.00564226 2.49043e-18)
(0.426753 0.306638 0)
(0.967141 0.665489 0)
(1.20083 0.847242 -7.17745e-20)
(1.25314 0.887802 0)
(1.22795 0.893085 0)
(1.16961 0.86675 -1.13704e-19)
(1.09554 0.832903 5.52126e-20)
(1.02119 0.795602 1.77903e-20)
(0.941204 0.753619 -4.85949e-20)
(0.857123 0.703524 0)
(0.780201 0.646541 -1.33978e-19)
(0.723719 0.591931 -4.88364e-19)
(0.684944 0.54257 -5.88577e-19)
(0.65279 0.49228 -2.36854e-19)
(0.58733 0.433225 2.92855e-19)
(0.475418 0.335354 -6.89962e-19)
(0.328832 0.229371 1.2257e-18)
(0.184759 0.126715 1.6899e-21)
(0.0721164 0.0487433 -1.13157e-18)
(0.00809188 0.00573889 -1.67958e-19)
(0.425691 0.320931 0)
(0.959522 0.696177 -1.18596e-19)
(1.18847 0.883597 8.74055e-20)
(1.23891 0.925033 0)
(1.21311 0.929507 0)
(1.15451 0.901963 2.26869e-19)
(1.08028 0.867091 0)
(1.00527 0.828473 0)
(0.923938 0.785372 -4.6798e-19)
(0.838426 0.734289 1.30253e-19)
(0.759302 0.675825 -1.18807e-18)
(0.700737 0.617885 0)
(0.660524 0.565918 -6.40316e-19)
(0.61711 0.509979 1.0343e-20)
(0.558936 0.432314 -9.42597e-19)
(0.454299 0.342203 3.71076e-19)
(0.3168 0.228656 1.29191e-21)
(0.179366 0.124294 -1.27758e-18)
(0.0698109 0.0470625 6.08866e-19)
(0.00614415 0.00376586 1.79656e-19)
(0.424491 0.335007 0)
(0.950433 0.7228 -1.62305e-19)
(1.17571 0.916059 9.2107e-20)
(1.22499 0.959765 1.25041e-19)
(1.19864 0.96448 -8.49015e-21)
(1.13974 0.935622 2.26068e-20)
(1.06537 0.899301 -3.1956e-20)
(0.990095 0.859431 4.44932e-19)
(0.907841 0.815257 5.00606e-19)
(0.819789 0.762934 9.91706e-19)
(0.736572 0.702736 9.87104e-19)
(0.673437 0.642061 1.73812e-19)
(0.628901 0.584139 9.21073e-19)
(0.595107 0.520199 5.6961e-19)
(0.533252 0.446833 6.76492e-19)
(0.433757 0.334732 -4.06036e-19)
(0.303412 0.221545 -4.68735e-19)
(0.178567 0.120299 5.49466e-19)
(0.0758643 0.0534153 -3.27319e-19)
(0.0127686 0.0124477 5.82043e-19)
(0.423665 0.348588 2.27472e-19)
(0.943862 0.750804 2.54323e-19)
(1.16424 0.948262 5.31262e-20)
(1.21154 0.992446 1.57066e-20)
(1.18468 0.996303 -6.62291e-21)
(1.12562 0.966492 -6.27101e-20)
(1.05121 0.929524 3.06175e-20)
(0.975421 0.888808 -1.94346e-20)
(0.891972 0.843949 -5.83141e-19)
(0.802577 0.79118 -1.0765e-18)
(0.717125 0.730251 6.85454e-20)
(0.650865 0.667473 0)
(0.603764 0.607388 0)
(0.555165 0.536615 -2.97177e-19)
(0.499333 0.436859 -1.10896e-18)
(0.410373 0.330112 8.74738e-19)
(0.299866 0.202997 5.13013e-19)
(0.188999 0.100229 0)
(0.0920971 0.0248229 1.04761e-18)
(0.00665088 -0.0138522 -6.20661e-19)
(0.422674 0.36174 -1.20675e-19)
(0.935828 0.774599 1.06583e-19)
(1.15239 0.976671 -1.27303e-19)
(1.19853 1.02281 -1.05522e-19)
(1.17119 1.02697 -1.81765e-20)
(1.11192 0.996136 -1.99847e-20)
(1.03746 0.958018 0)
(0.961544 0.916393 -5.59475e-19)
(0.877353 0.870858 7.07851e-20)
(0.785545 0.817442 0)
(0.695896 0.756072 0)
(0.624193 0.692172 1.1131e-19)
(0.569445 0.625218 1.49754e-19)
(0.528594 0.543826 -3.21391e-19)
(0.46683 0.447909 7.95943e-19)
(0.381008 0.307256 -9.53428e-19)
(0.280427 0.178241 -1.09993e-18)
(0.207617 0.086692 9.7469e-19)
(0.157626 0.0747465 -3.72451e-19)
(0.111425 0.0766068 2.16687e-19)
(0.421966 0.374025 1.50457e-19)
(0.930029 0.799847 0)
(1.1418 1.00518 0)
(1.18604 1.05143 -2.93663e-20)
(1.15827 1.05467 2.3774e-20)
(1.09895 1.02306 -2.0064e-20)
(1.02461 0.984589 1.38793e-19)
(0.948325 0.942524 5.72692e-19)
(0.863063 0.896656 1.0586e-18)
(0.77011 0.843252 -8.13044e-20)
(0.678541 0.78204 1.68359e-19)
(0.602811 0.717156 -9.96577e-19)
(0.544592 0.649743 -9.95332e-19)
(0.482846 0.563028 -1.72796e-19)
(0.418475 0.431581 0)
(0.343845 0.298643 -5.15926e-21)
(0.260222 0.105809 6.07172e-19)
(0.248144 -0.0165478 -1.01965e-18)
(0.214006 -0.103898 7.74905e-19)
(0.0875872 -0.0984431 6.41554e-19)
(0.420856 0.386026 -3.32032e-19)
(0.922605 0.820811 -1.4957e-19)
(1.13071 1.03002 6.92883e-21)
(1.17391 1.07808 5.95193e-20)
(1.14572 1.08178 0)
(1.08623 1.04946 -5.65639e-20)
(1.01188 1.01016 -2.00853e-19)
(0.935533 0.967547 -1.93563e-21)
(0.849682 0.921433 -5.54687e-19)
(0.754543 0.867977 -7.98462e-20)
(0.658776 0.80752 7.41645e-20)
(0.577038 0.743888 8.75618e-19)
(0.507024 0.670332 9.7096e-19)
(0.4501 0.570306 1.6867e-19)
(0.377479 0.450526 8.61093e-19)
(0.279662 0.26487 0)
(0.152959 0.0889605 0)
(-0.00713102 0.183644 6.97864e-19)
(-0.0786479 0.630079 -2.77848e-20)
(0.00899071 1.54245 -8.6445e-19)
(0.420139 0.397238 1.83261e-19)
(0.917368 0.843729 4.21238e-19)
(1.12083 1.05563 -5.81e-19)
(1.16217 1.10369 2.94231e-19)
(1.13356 1.10659 -9.52231e-21)
(1.07403 1.07383 -7.92948e-21)
(0.999812 1.03467 0)
(0.923093 0.992227 -4.77131e-19)
(0.836216 0.946459 0)
(0.740011 0.893845 1.12306e-18)
(0.642203 0.834615 -9.07181e-20)
(0.55569 0.771395 1.01723e-19)
(0.482695 0.700918 1.1167e-18)
(0.395276 0.604227 -3.66444e-19)
(0.286112 0.436885 -4.37352e-19)
(0.187259 0.316173 0)
(0.077804 0.472047 0)
(0.0249009 1.35258 0)
(0.0713536 2.47064 -3.96177e-19)
(0.0981544 2.91425 -2.44514e-19)
(0.418679 0.40798 0)
(0.910404 0.862136 0)
(1.11042 1.07751 2.11683e-19)
(1.15085 1.12747 -2.39303e-19)
(1.12182 1.13116 1.09229e-19)
(1.06209 1.09813 1.61992e-20)
(0.98783 1.05858 2.62136e-20)
(0.91108 1.01609 -2.0409e-20)
(0.823806 0.97075 7.86238e-20)
(0.725528 0.918894 -1.28893e-18)
(0.623472 0.861701 1.64278e-19)
(0.531145 0.802798 8.78979e-19)
(0.441481 0.729558 -1.11207e-18)
(0.358131 0.613485 -1.22709e-18)
(0.265286 0.494813 4.12351e-19)
(0.182949 0.637343 0)
(0.115477 1.57942 5.63844e-19)
(0.119433 2.69905 6.11134e-19)
(0.12702 3.08987 -6.82911e-19)
(0.119527 3.22311 7.28975e-19)
(0.417716 0.418441 0)
(0.905674 0.882806 3.70215e-19)
(1.1013 1.10054 -5.30402e-20)
(1.13998 1.1504 3.32793e-19)
(1.11052 1.15341 -1.14654e-19)
(1.05078 1.12022 0)
(0.9767 1.0812 0)
(0.899657 1.03943 0)
(0.811472 0.995068 4.41084e-19)
(0.712346 0.944962 5.93297e-20)
(0.60856 0.890213 0)
(0.511192 0.832348 -8.73685e-19)
(0.424748 0.764897 0)
(0.303572 0.65963 8.77905e-19)
(0.201447 0.711654 -5.94396e-19)
(0.147457 1.46505 -4.76778e-19)
(0.151004 2.68588 -1.10158e-18)
(0.174072 3.12628 -5.79419e-19)
(0.164753 3.26585 -7.81321e-19)
(0.151594 3.30606 5.74302e-19)
(0.416119 0.427862 -1.29068e-19)
(0.8991 0.898691 1.50144e-20)
(1.09158 1.11965 -5.89067e-20)
(1.12957 1.17156 -2.57696e-19)
(1.09969 1.17566 0)
(1.03976 1.14256 0)
(0.96561 1.10348 0)
(0.888602 1.06202 3.35768e-20)
(0.800256 1.0186 -5.57772e-19)
(0.699419 0.969941 0)
(0.592074 0.918167 0)
(0.491697 0.866943 0)
(0.380886 0.794707 0)
(0.308651 0.751583 6.43893e-19)
(0.267242 1.14646 1.58095e-18)
(0.240969 2.39629 4.65153e-19)
(0.257216 3.08201 9.32693e-19)
(0.251842 3.27983 -7.14802e-19)
(0.20349 3.34527 2.62259e-19)
(0.171613 3.35833 0)
(0.41499 0.437142 1.32728e-19)
(0.894711 0.917835 -8.20696e-19)
(1.08302 1.14101 -2.2107e-19)
(1.11934 1.19269 -4.88689e-20)
(1.08905 1.19616 2.65945e-20)
(1.02916 1.16308 -1.00449e-19)
(0.955282 1.12481 -1.61732e-21)
(0.878091 1.08446 -3.70306e-19)
(0.788993 1.0425 0)
(0.687713 0.996421 -7.5758e-20)
(0.579447 0.94842 6.89174e-20)
(0.474302 0.897324 0)
(0.38123 0.840258 0)
(0.320911 0.942046 -8.06621e-19)
(0.26789 1.85322 1.00771e-19)
(0.264347 2.94459 -3.49899e-19)
(0.288686 3.28324 7.31655e-19)
(0.260283 3.38147 5.26328e-19)
(0.195573 3.40598 -7.13604e-19)
(0.171107 3.416 3.52549e-19)
(0.412913 0.446684 2.60286e-19)
(0.887525 0.932938 7.99203e-19)
(1.07283 1.15954 2.6578e-19)
(1.10872 1.21356 0)
(1.07811 1.21839 0)
(1.0181 1.1855 7.80362e-20)
(0.944226 1.1472 5.9714e-20)
(0.867265 1.10721 3.29895e-19)
(0.778392 1.0664 2.16886e-20)
(0.676003 1.02212 9.66613e-19)
(0.56566 0.977202 -1.14844e-18)
(0.454974 0.929935 0)
(0.377226 0.914259 0)
(0.333732 1.31497 -5.50129e-19)
(0.33047 2.49412 -6.60989e-19)
(0.374659 3.19534 0)
(0.399501 3.36412 -7.40841e-19)
(0.328985 3.4269 4.94241e-20)
(0.260499 3.47225 3.45274e-19)
(0.238325 3.49765 -1.13388e-19)
(0.411151 0.456536 -4.94773e-19)
(0.882482 0.954144 -3.83558e-19)
(1.06315 1.18302 0)
(1.09727 1.23625 0)
(1.06635 1.24006 0)
(1.0066 1.20697 0)
(0.933284 1.16946 -7.1318e-20)
(0.856432 1.13065 2.8833e-19)
(0.767143 1.09138 0)
(0.665124 1.05008 -8.79912e-19)
(0.55521 1.00972 2.06085e-18)
(0.445802 0.971665 8.43907e-20)
(0.395778 1.03938 1.13452e-19)
(0.385436 1.74495 8.96449e-19)
(0.396652 2.90174 -4.82599e-19)
(0.436126 3.31535 0)
(0.419328 3.43713 2.0828e-19)
(0.333666 3.52602 9.1231e-20)
(0.259572 3.58995 1.47961e-19)
(0.184146 3.56942 -1.30534e-20)
(0.408137 0.466953 2.35145e-19)
(0.873371 0.970152 -3.91112e-19)
(1.05098 1.20288 0)
(1.08501 1.25881 -7.1529e-20)
(1.05388 1.2642 2.46341e-19)
(0.994167 1.23119 0)
(0.921063 1.19336 0)
(0.844792 1.15462 -5.00087e-19)
(0.756314 1.11637 -5.62067e-20)
(0.654037 1.07681 8.6308e-19)
(0.540614 1.03853 -9.79135e-19)
(0.449746 1.01875 5.74351e-19)
(0.410464 1.22301 0)
(0.420203 2.18691 -4.75344e-19)
(0.462723 3.14366 3.11713e-19)
(0.527302 3.41768 1.96133e-19)
(0.518485 3.51327 0)
(0.456 3.59489 -3.63596e-20)
(0.386928 3.63489 -4.08422e-19)
(0.30654 3.60687 -9.59982e-20)
(0.405447 0.477528 -4.67782e-19)
(0.867145 0.9944 5.599e-19)