/*--------------------------------*- C++ -*----------------------------------*\
  =========                 |
  \\      /  F ield         | OpenFOAM: The Open Source CFD Toolbox
   \\    /   O peration     | Website:  https://openfoam.org
    \\  /    A nd           | Version:  10
     \\/     M anipulation  |
\*---------------------------------------------------------------------------*/
FoamFile
{
    format      ascii;
    class       volScalarField;
    location    "32";
    object      p;
}
// * * * * * * * * * * * * * * * * * * * * * * * * * * * * * * * * * * * * * //

dimensions      [0 2 -2 0 0 0 0];

internalField   nonuniform List<scalar> 
8800
(
1.50889
1.4611
1.4224
1.3934
1.37253
1.35768
1.34705
1.33953
1.33466
1.33254
1.33371
1.33782
1.3444
1.35367
1.36641
1.38412
1.40888
1.44281
1.48535
1.54405
1.34015
1.34783
1.35529
1.3586
1.35708
1.35199
1.34549
1.33938
1.33461
1.3317
1.33134
1.33375
1.33816
1.34404
1.35077
1.35701
1.36063
1.35988
1.35444
1.34575
1.31857
1.32473
1.32886
1.33179
1.33383
1.33441
1.33328
1.33114
1.32906
1.32807
1.32893
1.33122
1.33394
1.33606
1.33662
1.33539
1.33302
1.32961
1.32504
1.32128
1.31281
1.31546
1.3182
1.3206
1.32222
1.32336
1.32407
1.32414
1.32378
1.32364
1.32428
1.32534
1.32609
1.32609
1.32542
1.32428
1.32243
1.31983
1.31742
1.31591
1.30748
1.30891
1.31068
1.31271
1.31448
1.3158
1.31675
1.3175
1.31804
1.31849
1.31901
1.31939
1.31938
1.319
1.31823
1.31692
1.31518
1.31329
1.31197
1.31114
1.30248
1.3034
1.30464
1.3062
1.30783
1.30933
1.31058
1.31159
1.31247
1.31324
1.31377
1.31395
1.31377
1.31322
1.31224
1.31096
1.30957
1.30825
1.30741
1.30686
1.29767
1.29834
1.29931
1.30061
1.30201
1.30345
1.30486
1.30613
1.30723
1.30819
1.30882
1.309
1.30874
1.30808
1.30715
1.30609
1.30499
1.304
1.30338
1.30298
1.29302
1.29353
1.29432
1.29546
1.29674
1.2981
1.29952
1.30094
1.30226
1.30342
1.3042
1.30443
1.30417
1.30359
1.30282
1.30195
1.30105
1.30028
1.29982
1.29951
1.28846
1.28887
1.28953
1.29055
1.29177
1.29309
1.2945
1.29599
1.29749
1.29887
1.29984
1.3002
1.30008
1.29966
1.29906
1.29836
1.29763
1.29703
1.29667
1.29642
1.28392
1.28424
1.28482
1.28578
1.28695
1.28826
1.28969
1.29125
1.2929
1.29454
1.29575
1.29633
1.29643
1.29621
1.29579
1.29525
1.29466
1.2942
1.29392
1.29372
1.27934
1.2796
1.28012
1.28104
1.28221
1.28354
1.28505
1.28673
1.28856
1.29045
1.292
1.29289
1.29325
1.29324
1.29299
1.29261
1.29215
1.29179
1.29158
1.29142
1.27466
1.27487
1.27535
1.27627
1.27746
1.27886
1.28048
1.28234
1.28443
1.28668
1.28862
1.28987
1.29051
1.29073
1.29067
1.29044
1.29012
1.28985
1.2897
1.28956
1.26982
1.26999
1.27045
1.27138
1.27264
1.27415
1.27591
1.278
1.28043
1.28312
1.28556
1.28723
1.28821
1.28872
1.28888
1.2888
1.2886
1.28843
1.28832
1.28821
1.26477
1.2649
1.26534
1.26631
1.26766
1.2693
1.27125
1.2736
1.2764
1.27964
1.28268
1.28491
1.28635
1.2872
1.28764
1.28777
1.2877
1.28762
1.28756
1.28746
1.25943
1.25952
1.25997
1.26099
1.26247
1.2643
1.26653
1.26927
1.27261
1.27654
1.28034
1.28321
1.28514
1.28637
1.2871
1.28745
1.28755
1.28756
1.28755
1.28747
1.25373
1.25379
1.25423
1.25531
1.25691
1.25895
1.26148
1.26467
1.26865
1.27343
1.27816
1.28183
1.28443
1.28617
1.28729
1.28793
1.28825
1.28838
1.28842
1.28835
1.24746
1.24751
1.24796
1.24907
1.25084
1.25313
1.25608
1.25985
1.26462
1.27046
1.27634
1.28101
1.28436
1.28671
1.28833
1.28938
1.28999
1.29028
1.29036
1.2903
1.24034
1.24037
1.24086
1.24205
1.24403
1.24669
1.25016
1.2547
1.26053
1.26771
1.27497
1.2808
1.28507
1.28816
1.29037
1.29185
1.2928
1.29327
1.29339
1.29332
1.23192
1.23195
1.2325
1.23385
1.23611
1.23923
1.24339
1.2489
1.25601
1.26484
1.27383
1.28108
1.28648
1.29043
1.29333
1.29536
1.29668
1.29733
1.29749
1.2974
1.22168
1.22171
1.22236
1.22397
1.2267
1.23052
1.23566
1.24248
1.25129
1.26218
1.27323
1.28216
1.28881
1.29374
1.29741
1.30001
1.30171
1.30253
1.30273
1.30263
1.20907
1.20911
1.20992
1.21193
1.21533
1.22012
1.22657
1.2351
1.24605
1.25949
1.27304
1.28395
1.29211
1.29817
1.30269
1.30592
1.30802
1.30902
1.30925
1.30913
1.19335
1.19339
1.19445
1.19706
1.20144
1.20759
1.21583
1.22665
1.24036
1.25695
1.27347
1.28667
1.29654
1.30388
1.30938
1.31333
1.31587
1.31704
1.31731
1.31717
1.17341
1.17348
1.17492
1.17842
1.18425
1.19233
1.20307
1.21694
1.23418
1.25461
1.2746
1.29043
1.30223
1.31104
1.31765
1.32242
1.32545
1.3268
1.3271
1.32693
1.14745
1.14757
1.14965
1.15461
1.1627
1.17367
1.18796
1.20593
1.22762
1.25265
1.27664
1.2954
1.30935
1.31978
1.32768
1.33339
1.33692
1.33845
1.33876
1.33856
1.11248
1.11274
1.11609
1.12371
1.13561
1.15109
1.17046
1.19383
1.22099
1.25134
1.27977
1.30174
1.31803
1.33026
1.33956
1.34627
1.35031
1.35201
1.35232
1.35208
1.06288
1.06401
1.07068
1.08373
1.10219
1.12458
1.15093
1.18112
1.21472
1.25101
1.28419
1.30955
1.32831
1.34248
1.35325
1.36098
1.36558
1.36743
1.3677
1.3674
0.989929
0.997476
1.01283
1.03591
1.064
1.09553
1.13042
1.16846
1.20923
1.25203
1.29044
1.31959
1.34121
1.35765
1.37024
1.37929
1.38468
1.38688
1.38723
1.38701
0.912023
0.929425
0.954165
0.987637
1.02567
1.06646
1.10996
1.15607
1.20449
1.25464
1.29942
1.33349
1.35894
1.37838
1.39339
1.40444
1.41101
1.41357
1.41414
1.41411
0.847955
0.868219
0.900791
0.942809
0.989411
1.03881
1.09058
1.14458
1.20047
1.25773
1.30854
1.34711
1.37591
1.39793
1.41482
1.42707
1.43459
1.43793
1.43842
1.43846
0.795838
0.817889
0.855626
0.903674
0.956985
1.01349
1.0725
1.13369
1.19659
1.26055
1.31694
1.35951
1.39112
1.41511
1.43347
1.44697
1.45567
1.45902
1.45963
1.45975
0.75267
0.775807
0.817016
0.869807
0.928437
0.99076
1.05595
1.12349
1.19273
1.26284
1.32428
1.37035
1.40433
1.43
1.44963
1.46402
1.47324
1.47705
1.47788
1.47803
0.715819
0.739594
0.783519
0.839968
0.902991
0.970226
1.04075
1.11389
1.18884
1.26454
1.33056
1.37971
1.41569
1.44268
1.46318
1.47817
1.48778
1.49201
1.49308
1.49324
0.683296
0.707511
0.753512
0.813043
0.879775
0.951257
1.02647
1.10464
1.18477
1.26562
1.33584
1.38776
1.42546
1.45351
1.47465
1.49007
1.49996
1.50448
1.50565
1.5058
0.653658
0.678278
0.726001
0.788146
0.858096
0.933302
1.01271
1.09542
1.18034
1.266
1.34018
1.3947
1.43396
1.4629
1.48449
1.5002
1.51014
1.51481
1.51603
1.51614
0.626028
0.651014
0.700303
0.764678
0.837457
0.915957
0.999119
1.08599
1.17536
1.2656
1.34364
1.4007
1.44147
1.47125
1.49327
1.50911
1.51912
1.52388
1.52517
1.52524
0.599686
0.625096
0.675799
0.74217
0.817484
0.898929
0.98548
1.07616
1.1697
1.26435
1.34622
1.40588
1.44823
1.47891
1.50139
1.51743
1.52747
1.53214
1.53349
1.5336
0.574364
0.60021
0.651988
0.720334
0.797917
0.882017
0.971637
1.06581
1.16327
1.26219
1.34793
1.41033
1.45442
1.48613
1.50916
1.52544
1.53553
1.54014
1.5414
1.54146
0.5497
0.57611
0.628935
0.698988
0.778599
0.865087
0.957492
1.05488
1.156
1.25906
1.34875
1.41411
1.46016
1.49307
1.51678
1.53337
1.54353
1.54807
1.54918
1.54917
0.525616
0.552479
0.60644
0.678013
0.759454
0.848086
0.943003
1.04332
1.14786
1.25494
1.34866
1.41722
1.46548
1.49979
1.52431
1.54127
1.55147
1.55589
1.55688
1.55677
0.502035
0.52945
0.584385
0.657356
0.740451
0.831002
0.92817
1.03114
1.13885
1.24978
1.34758
1.41958
1.47037
1.50634
1.5318
1.54917
1.55935
1.56356
1.56439
1.5642
0.478868
0.506885
0.562759
0.637017
0.721586
0.813851
0.913027
1.01838
1.12898
1.24354
1.3454
1.4211
1.4748
1.51273
1.53929
1.55706
1.56713
1.57104
1.57167
1.57143
0.45613
0.484808
0.541599
0.617024
0.702914
0.796685
0.897632
1.00509
1.11828
1.23619
1.34206
1.42166
1.47864
1.51896
1.54686
1.56498
1.57474
1.57821
1.57863
1.57834
0.433991
0.463284
0.520946
0.597419
0.684481
0.779577
0.882057
0.991354
1.10682
1.22779
1.33748
1.4211
1.48175
1.525
1.55465
1.57309
1.58219
1.58496
1.58513
1.58481
0.412484
0.442362
0.500833
0.578262
0.666354
0.762594
0.866399
0.97726
1.0947
1.21836
1.33162
1.41926
1.48389
1.5307
1.56282
1.58183
1.58979
1.59129
1.59105
1.59076
0.391552
0.422085
0.481303
0.559594
0.6486
0.745825
0.85075
0.96292
1.08202
1.20799
1.32444
1.41599
1.48479
1.53575
1.5714
1.5919
1.59851
1.59767
1.59639
1.5963
0.371369
0.402479
0.462416
0.541487
0.631285
0.729354
0.83521
0.94845
1.06891
1.19679
1.31597
1.41118
1.48413
1.53958
1.57992
1.60383
1.61046
1.60662
1.60256
1.60158
0.35185
0.383553
0.444155
0.523915
0.614374
0.713135
0.81972
0.933787
1.05528
1.18469
1.30609
1.40455
1.48158
1.54144
1.58725
1.61706
1.6274
1.6241
1.61367
1.59674
0.333067
0.365317
0.426399
0.506686
0.597576
0.69683
0.803858
0.918437
1.04059
1.17102
1.29409
1.39525
1.47645
1.54015
1.59075
1.62768
1.64275
1.63338
1.61636
1.59895
0.315194
0.347636
0.409333
0.490043
0.581191
0.680789
0.787853
0.902736
1.02517
1.15607
1.28014
1.38295
1.46824
1.53474
1.58529
1.62234
1.64057
1.62222
1.55169
1.51837
0.298882
0.329342
0.393288
0.474578
0.565934
0.665503
0.772
0.886909
1.00923
1.13999
1.26425
1.36746
1.45585
1.52525
1.56683
1.59565
1.5976
1.54756
1.47591
1.43123
0.242815
0.313302
0.378554
0.459142
0.550355
0.64957
0.756238
0.870685
0.992421
1.12237
1.24587
1.34843
1.43598
1.5127
1.51693
1.53173
1.49606
1.4311
1.35386
1.31035
0.281461
0.297445
0.357081
0.437275
0.527722
0.626648
0.732291
0.845869
0.966294
1.0943
1.21501
1.3149
1.39385
1.47076
1.4678
1.36263
1.25909
1.18725
1.11346
1.14848
0.250263
0.279541
0.340023
0.419657
0.510127
0.608704
0.714498
0.827326
0.946517
1.07247
1.19
1.28569
1.357
1.3976
1.35324
1.2091
1.08063
0.989026
0.888308
0.943054
0.226201
0.258452
0.320136
0.400068
0.490604
0.589022
0.694638
0.80652
0.924166
1.04754
1.16115
1.25119
1.31278
1.32213
1.21886
1.0433
0.886761
0.764902
0.630589
0.667199
0.202695
0.236488
0.299355
0.380126
0.470833
0.569105
0.674154
0.784975
0.900901
1.02137
1.13032
1.21407
1.26075
1.23767
1.0805
0.878506
0.68128
0.502921
0.304306
0.294707
0.1799
0.214052
0.277796
0.359298
0.450213
0.548286
0.65266
0.762316
0.876293
0.993532
1.09728
1.17393
1.20339
1.14554
0.949013
0.730504
0.502627
0.300136
0.042093
-0.280487
0.156846
0.190958
0.255196
0.337191
0.428324
0.526253
0.630028
0.738502
0.850452
0.964267
1.06267
1.13107
1.14311
1.03444
0.834896
0.616598
0.400474
0.217288
0.147447
0.0509406
0.132666
0.166758
0.231238
0.313473
0.404693
0.502392
0.605478
0.712608
0.822233
0.932152
1.0248
1.08351
1.07079
0.925763
0.734133
0.535622
0.364833
0.266308
0.242205
0.224394
0.107038
0.141134
0.205762
0.288071
0.379207
0.476517
0.578685
0.684178
0.791073
0.896485
0.982913
1.02957
0.99668
0.825303
0.643109
0.470659
0.337577
0.296333
0.281456
0.279608
0.0797541
0.113937
0.178719
0.261017
0.351938
0.448651
0.549663
0.653195
0.756929
0.857267
0.936742
0.970298
0.920096
0.731295
0.55888
0.404597
0.317535
0.302675
0.300931
0.300938
0.0507962
0.0851792
0.150104
0.232343
0.322907
0.41884
0.518448
0.619685
0.719833
0.814588
0.886158
0.908227
0.825242
0.645077
0.480375
0.352061
0.314908
0.311453
0.311336
0.31199
0.0204752
0.0550652
0.120062
0.202171
0.29224
0.387188
0.485125
0.583733
0.679849
0.768557
0.831773
0.838289
0.730125
0.564361
0.416137
0.330818
0.321259
0.319432
0.318623
0.318999
-0.0106314
0.0240225
0.0888782
0.170758
0.260172
0.35391
0.449913
0.545544
0.637217
0.71941
0.774587
0.763144
0.643875
0.492904
0.362652
0.342518
0.325559
0.323047
0.323937
0.324506
-0.0420589
-0.00746885
0.0570865
0.13853
0.227098
0.319397
0.413174
0.505497
0.592337
0.66772
0.71444
0.687948
0.558954
0.430848
0.326512
0.288611
0.311853
0.324847
0.328344
0.329252
-0.0729761
-0.038645
0.0254573
0.106139
0.193609
0.284209
0.37547
0.464186
0.545829
0.61427
0.651453
0.61328
0.4719
0.384488
0.31401
0.316925
0.316276
0.318799
0.322688
0.324982
-0.101827
-0.0683563
-0.00512811
0.0744871
0.160545
0.24915
0.337609
0.422461
0.498639
0.559678
0.589749
0.533571
0.378901
0.31768
0.358517
0.303323
0.283091
0.277448
0.278811
0.281508
-0.127269
-0.0947958
-0.0335453
0.0447332
0.128988
0.215277
0.30066
0.381445
0.452141
0.505113
0.531912
0.445884
0.268007
0.18166
0.250673
0.21565
0.196811
0.187565
0.185635
0.187215
-0.147345
-0.116699
-0.0577571
0.0182849
0.100254
0.183862
0.26597
0.342594
0.407993
0.452696
0.475292
0.360899
0.136102
-0.150035
-0.202609
-0.0649011
0.00392458
0.0240376
0.0358012
0.0447175
-0.16016
-0.132106
-0.0762652
-0.00313811
0.0759062
0.156432
0.235099
0.307707
0.368174
0.405696
0.420404
0.29205
0.0707548
-0.316185
-0.526785
-0.217862
-0.111281
-0.0883302
-0.0791973
-0.0753513
-0.163394
-0.139127
-0.087363
-0.0179015
0.0576661
0.134657
0.209837
0.278851
0.335025
0.367249
0.369526
0.27989
0.234302
0.363986
0.363023
0.152446
-0.0651642
-0.0658083
-0.0607072
-0.0594538
-0.155639
-0.135722
-0.0891815
-0.0245498
0.0469319
0.120143
0.192017
0.258275
0.311528
0.340836
0.337788
0.294895
0.380208
0.750269
0.902621
0.416197
0.0482495
0.0164148
0.0176425
-0.00102135
-0.135047
-0.119351
-0.0803519
-0.0220684
0.0446535
0.11408
0.183185
0.247934
0.301095
0.329989
0.3175
0.187382
-0.147646
-0.780875
-1.40539
-1.79922
-1.58488
-1.16821
-0.763345
-0.666135
-0.103046
-0.0923126
-0.0612444
-0.0106429
0.0509564
0.116805
0.184197
0.249241
0.306351
0.341801
0.33169
0.0965004
-0.579953
-1.50242
-2.12979
-2.40441
-2.28015
-1.95163
-1.60043
-1.36949
-0.0640811
-0.0577396
-0.0352863
0.00767112
0.0642322
0.127478
0.19463
0.263095
0.327891
0.384375
0.403313
0.312925
0.01016
-0.293798
-0.492628
-0.396004
-0.125549
0.166126
0.391005
0.505381
-0.0243377
-0.020828
-0.00715421
0.0285873
0.0814855
0.143584
0.212403
0.286824
0.364986
0.448604
0.537035
0.665805
0.866674
1.25079
1.73563
2.22396
2.61155
2.84845
2.96076
2.9939
0.00998467
0.0120187
0.0195138
0.0479467
0.0979643
0.161323
0.233311
0.314358
0.406972
0.513617
0.649663
0.802055
1.11879
1.68699
2.34051
2.9225
3.34841
3.59414
3.70092
3.72946
0.0428048
0.0433682
0.0458475
0.0655415
0.111981
0.176722
0.252271
0.337762
0.434313
0.547037
0.668504
0.804769
0.997594
1.47551
2.02367
2.49887
2.84574
3.04598
3.13737
3.16372
0.071704
0.072586
0.0732502
0.0845947
0.125465
0.190848
0.268483
0.354945
0.448835
0.55606
0.666488
0.779309
0.902852
1.20993
1.63097
1.98307
2.24663
2.39848
2.467
2.48563
0.0904729
0.0916354
0.0913766
0.0988529
0.138777
0.206533
0.285816
0.370597
0.460575
0.559831
0.654718
0.740932
0.819124
1.01279
1.30013
1.54688
1.72837
1.83267
1.87826
1.88966
0.103514
0.101583
0.0984748
0.107488
0.15454
0.228325
0.309055
0.389792
0.472482
0.559803
0.638469
0.700228
0.757724
0.879794
1.07138
1.2341
1.35024
1.41644
1.44481
1.45097
0.15018
0.145302
0.140314
0.152294
0.199601
0.270489
0.34404
0.415402
0.486864
0.560209
0.625088
0.671609
0.711921
0.791264
0.919375
1.02289
1.09419
1.13304
1.14891
1.15071
0.264257
0.259626
0.25593
0.264799
0.297123
0.344414
0.396281
0.44971
0.50536
0.564164
0.616077
0.651591
0.679939
0.73277
0.814991
0.881992
0.925178
0.948465
0.957564
0.957832
0.40804
0.405927
0.403232
0.404249
0.414201
0.432156
0.457588
0.489064
0.526829
0.570842
0.611661
0.64266
0.666363
0.70267
0.753081
0.794591
0.821465
0.835648
0.84104
0.840623
0.521656
0.520939
0.518347
0.512828
0.506987
0.505715
0.511639
0.525594
0.548163
0.579085
0.611948
0.641421
0.666862
0.694519
0.72423
0.74697
0.76256
0.771398
0.774622
0.773691
0.585472
0.58506
0.582372
0.575061
0.564139
0.554783
0.55082
0.55415
0.565675
0.585804
0.6123
0.639833
0.666279
0.687716
0.704693
0.718428
0.728386
0.734312
0.736496
0.735312
0.612247
0.611812
0.60945
0.603154
0.593106
0.58291
0.575648
0.573519
0.577904
0.589929
0.609371
0.633987
0.659625
0.674024
0.683048
0.692794
0.702305
0.708947
0.711501
0.71006
0.619671
0.619191
0.617292
0.612738
0.605319
0.596901
0.589606
0.585224
0.584815
0.589507
0.600157
0.618352
0.639618
0.647993
0.651252
0.662604
0.675317
0.684684
0.688262
0.68644
0.61952
0.619046
0.617554
0.61434
0.60928
0.603024
0.59668
0.591405
0.587722
0.585808
0.58567
0.588649
0.594736
0.596389
0.604913
0.622193
0.638945
0.650462
0.654935
0.65342
0.617568
0.617145
0.615969
0.613526
0.609909
0.605322
0.600099
0.59465
0.588764
0.580582
0.567323
0.549104
0.528729
0.527603
0.5481
0.574604
0.596136
0.608907
0.613305
0.611852
0.615745
0.615432
0.614586
0.612674
0.609854
0.606344
0.602155
0.597134
0.590284
0.577608
0.551121
0.51074
0.467443
0.467397
0.501883
0.534967
0.555901
0.566213
0.568824
0.567866
0.613658
0.613509
0.613077
0.611863
0.609609
0.607009
0.603987
0.600453
0.595289
0.583259
0.555904
0.503775
0.449655
0.459048
0.495947
0.522258
0.534819
0.538768
0.540723
0.541309
0.609796
0.6098
0.609748
0.609242
0.608115
0.606751
0.605374
0.604843
0.602928
0.596947
0.57806
0.537448
0.500872
0.514496
0.536949
0.548272
0.552458
0.554247
0.555054
0.554653
0.602639
0.602826
0.603193
0.603485
0.603689
0.60427
0.605779
0.608708
0.613356
0.616899
0.613792
0.598265
0.587752
0.593683
0.595072
0.592184
0.589964
0.589328
0.588444
0.5874
0.59057
0.590943
0.591693
0.592816
0.594652
0.597554
0.60247
0.610544
0.622547
0.637499
0.651423
0.659958
0.670484
0.668461
0.650459
0.632593
0.624192
0.620036
0.61848
0.618013
0.57116
0.571842
0.573263
0.575503
0.578857
0.584307
0.593003
0.606672
0.625366
0.650654
0.676802
0.700154
0.723405
0.706707
0.681258
0.665468
0.655318
0.650565
0.646416
0.645289
0.54073
0.541806
0.543964
0.547466
0.552846
0.560985
0.573191
0.591289
0.615185
0.64694
0.678856
0.701692
0.718031
0.700376
0.684436
0.674425
0.672664
0.665106
0.659374
0.659481
0.495366
0.496849
0.499843
0.504836
0.512332
0.522868
0.537234
0.556549
0.58116
0.612425
0.644149
0.663153
0.667113
0.648379
0.653655
0.671885
0.682612
0.678822
0.672056
0.6718
0.431348
0.433172
0.436999
0.443556
0.45293
0.464742
0.478374
0.493119
0.508587
0.529543
0.565016
0.581851
0.568137
0.56033
0.601293
0.64739
0.668533
0.665513
0.660834
0.659456
0.347116
0.348996
0.353469
0.361389
0.371805
0.382613
0.390246
0.388727
0.374816
0.380937
0.43325
0.463257
0.437607
0.452265
0.515739
0.576161
0.606095
0.594927
0.588936
0.587114
0.245865
0.24729
0.252054
0.260504
0.270326
0.276941
0.27055
0.236088
0.176614
0.168685
0.267291
0.32457
0.293294
0.327265
0.402814
0.458239
0.462238
0.45508
0.449064
0.446829
0.136638
0.137661
0.141168
0.149077
0.156693
0.157621
0.133626
0.0583232
-0.0377418
-0.0293785
0.0901103
0.160397
0.148459
0.175082
0.237928
0.248122
0.247907
0.249219
0.249762
0.24945
0.0366266
0.0358865
0.0356916
0.0372276
0.0392648
0.0397325
0.0288707
-0.00758249
-0.0636701
-0.0879577
-0.0281404
0.0372666
0.0530871
0.0347637
-0.0156215
-0.0239003
0.0316689
0.0419464
0.0452067
0.0462285
0.546175
0.726835
0.937739
1.11837
1.26381
1.37973
1.47641
1.55801
1.59445
1.57146
0.875148
1.00447
1.14271
1.26238
1.3637
1.44797
1.51619
1.56453
1.58899
1.60084
1.10921
1.19745
1.2915
1.37487
1.44673
1.50687
1.55463
1.58948
1.61448
1.63222
1.27923
1.34132
1.4072
1.46746
1.51992
1.56442
1.60087
1.62985
1.65342
1.67156
1.41063
1.45615
1.50407
1.54991
1.5904
1.62567
1.65577
1.68072
1.7016
1.71934
1.51848
1.55268
1.5922
1.6291
1.66288
1.69306
1.71937
1.74141
1.75959
1.7769
1.6132
1.6427
1.67767
1.71063
1.7413
1.76908
1.79331
1.81339
1.82912
1.84619
1.7032
1.73292
1.76754
1.80009
1.83015
1.85713
1.88031
1.89903
1.91257
1.92961
1.79942
1.83286
1.8699
1.90383
1.93417
1.96061
1.98277
2.0002
2.01219
2.0296
1.91506
1.95287
1.99179
2.0263
2.05583
2.08073
2.10123
2.11721
2.12876
2.14685
2.06044
2.09911
2.13522
2.16601
2.1918
2.21398
2.23311
2.2487
2.26117
2.27918
2.23542
2.26733
2.29356
2.31603
2.33606
2.35483
2.37259
2.3891
2.40448
2.42256
2.42414
2.44145
2.45659
2.47287
2.4888
2.50337
2.5166
2.53055
2.54811
2.56827
2.60612
2.61557
2.62714
2.63797
2.64727
2.65688
2.6677
2.67909
2.69046
2.70583
2.81326
2.81695
2.80203
2.78723
2.78098
2.78668
2.80517
2.83549
2.86768
2.89434
3.11961
2.98474
2.90812
2.86579
2.84838
2.85235
2.87977
2.93618
3.03881
3.26318
1.39949
1.39735
1.39287
1.38424
1.372
1.35986
1.34961
1.34169
1.33602
1.3327
1.33225
1.33489
1.33991
1.34707
1.35641
1.36791
1.38054
1.39156
1.39766
1.40071
1.32395
1.3298
1.33613
1.34062
1.34308
1.34274
1.33998
1.33614
1.33258
1.33024
1.32999
1.33209
1.33566
1.33988
1.34364
1.34548
1.34452
1.34101
1.33583
1.3292
1.31556
1.31786
1.32126
1.32425
1.32631
1.32779
1.32852
1.32817
1.32709
1.32612
1.32619
1.3275
1.32922
1.33044
1.33056
1.32962
1.32804
1.32567
1.32239
1.31946
1.3101
1.31118
1.31301
1.31538
1.3174
1.31881
1.3198
1.32051
1.32085
1.32098
1.32135
1.32202
1.3225
1.32248
1.32199
1.32108
1.31956
1.31744
1.31532
1.31393
1.30495
1.30562
1.30672
1.30842
1.3102
1.31181
1.31308
1.31405
1.31486
1.31555
1.31613
1.31652
1.31658
1.31629
1.31563
1.31449
1.313
1.3114
1.31005
1.30926
1.30006
1.30052
1.3013
1.3026
1.30408
1.30559
1.30703
1.30828
1.30933
1.31027
1.31101
1.31138
1.31136
1.31093
1.31011
1.30901
1.3078
1.30659
1.30563
1.30511
1.29533
1.29567
1.29629
1.29736
1.29866
1.30002
1.30144
1.30284
1.30413
1.30528
1.30618
1.30664
1.30659
1.30612
1.30535
1.30443
1.30346
1.30249
1.30177
1.30138
1.29073
1.291
1.29149
1.29241
1.29359
1.29489
1.29626
1.2977
1.29915
1.30051
1.30161
1.30219
1.30221
1.30184
1.30123
1.30049
1.29968
1.29892
1.29836
1.29807
1.28619
1.2864
1.28681
1.28763
1.28874
1.28999
1.29135
1.29283
1.29439
1.29596
1.29729
1.29806
1.29826
1.29807
1.29764
1.29706
1.29642
1.29581
1.29538
1.29515
1.28164
1.2818
1.28216
1.28291
1.28398
1.28522
1.2866
1.28814
1.28982
1.29158
1.29319
1.29425
1.29472
1.29476
1.29451
1.29411
1.29361
1.29314
1.2928
1.29262
1.27702
1.27715
1.27746
1.27817
1.27924
1.2805
1.28196
1.28362
1.28549
1.28752
1.28948
1.29089
1.29164
1.29192
1.29187
1.29162
1.29128
1.29092
1.29067
1.29053
1.27226
1.27236
1.27264
1.27333
1.27443
1.27577
1.27733
1.27915
1.28126
1.28363
1.28601
1.28787
1.28897
1.28953
1.28971
1.28964
1.28943
1.28918
1.28901
1.2889
1.26732
1.26739
1.26764
1.26834
1.2695
1.27094
1.27263
1.27465
1.27707
1.27987
1.2828
1.28516
1.28669
1.28761
1.28807
1.28822
1.28815
1.28801
1.2879
1.28783
1.26214
1.26218
1.26242
1.26314
1.26436
1.26592
1.2678
1.2701
1.27288
1.27618
1.27976
1.28282
1.28492
1.28626
1.28703
1.28743
1.28754
1.28753
1.28749
1.28744
1.25663
1.25664
1.25687
1.25762
1.25894
1.26067
1.2628
1.26546
1.26877
1.27279
1.27721
1.28103
1.28372
1.28555
1.28671
1.28735
1.28771
1.28784
1.28788
1.28786
1.25069
1.25069
1.2509
1.25166
1.25306
1.25496
1.25737
1.26044
1.26431
1.26912
1.27455
1.27939
1.28293
1.28541
1.28707
1.28814
1.28881
1.28913
1.28927
1.28926
1.24402
1.24399
1.24423
1.24503
1.24656
1.2487
1.25151
1.25516
1.25985
1.26574
1.27244
1.27845
1.28291
1.2861
1.28835
1.28993
1.29095
1.29152
1.29175
1.29175
1.23632
1.23628
1.23654
1.23742
1.23911
1.24156
1.24485
1.24921
1.25489
1.26208
1.27035
1.27783
1.28345
1.28757
1.29055
1.29267
1.29414
1.29498
1.2953
1.29532
1.22704
1.22698
1.2273
1.22833
1.2303
1.2332
1.23718
1.24252
1.24951
1.25838
1.26856
1.27779
1.28476
1.28991
1.2937
1.29648
1.29841
1.29953
1.29995
1.29997
1.21567
1.21559
1.21599
1.21726
1.21966
1.22326
1.22821
1.23485
1.24354
1.25452
1.26705
1.27837
1.28692
1.29327
1.29799
1.30148
1.3039
1.3053
1.30581
1.30583
1.20157
1.20147
1.20201
1.20364
1.20668
1.21125
1.21752
1.22591
1.2368
1.25042
1.26581
1.27961
1.29001
1.29775
1.30352
1.30778
1.31077
1.31246
1.31306
1.31308
1.18385
1.18373
1.18449
1.18666
1.19062
1.19657
1.2047
1.21546
1.22926
1.2462
1.26502
1.2817
1.29421
1.30353
1.3105
1.31566
1.31928
1.32128
1.32196
1.32199
1.16107
1.16094
1.16207
1.16509
1.17045
1.17843
1.18923
1.20327
1.22084
1.2419
1.26479
1.28476
1.29965
1.31074
1.31907
1.32526
1.32958
1.3319
1.33268
1.33269
1.1309
1.13081
1.13258
1.13704
1.14474
1.15597
1.17072
1.18927
1.21171
1.23777
1.26534
1.289
1.3065
1.31954
1.32939
1.33676
1.3418
1.34444
1.3453
1.34529
1.0893
1.08939
1.09258
1.09998
1.11195
1.12848
1.14909
1.17373
1.20225
1.23414
1.26692
1.29454
1.31485
1.33001
1.34151
1.35013
1.35591
1.35886
1.35977
1.35973
1.02879
1.03005
1.03779
1.05164
1.07132
1.09621
1.12499
1.15737
1.19305
1.23144
1.26978
1.30153
1.32475
1.3421
1.35528
1.3651
1.37168
1.37494
1.3758
1.37572
0.956957
0.958967
0.973548
0.997347
1.02778
1.06237
1.10007
1.14074
1.18416
1.22983
1.27476
1.31183
1.33907
1.35958
1.3752
1.38678
1.39454
1.39839
1.39945
1.39943
0.883278
0.889904
0.911418
0.945135
0.985463
1.02943
1.07598
1.12494
1.17617
1.22924
1.28098
1.32357
1.35492
1.37864
1.39686
1.41057
1.41966
1.42338
1.42451
1.42474
0.824041
0.83259
0.858831
0.899299
0.947159
0.998949
1.05334
1.11002
1.16868
1.22885
1.28705
1.33471
1.36967
1.39603
1.41616
1.43122
1.44101
1.44579
1.44769
1.44803
0.776012
0.785128
0.814798
0.860108
0.913713
0.971724
1.03268
1.09611
1.16151
1.22826
1.29244
1.34465
1.3827
1.41121
1.43293
1.44922
1.46037
1.46585
1.46803
1.46841
0.735822
0.745166
0.777147
0.826181
0.884366
0.947466
1.01396
1.08326
1.15466
1.22738
1.29699
1.35327
1.39398
1.4243
1.44728
1.46455
1.47631
1.48245
1.48489
1.48532
0.700912
0.710353
0.744051
0.796114
0.858064
0.92547
0.996755
1.07121
1.14801
1.22614
1.30072
1.36066
1.40369
1.43548
1.45941
1.47733
1.48961
1.49623
1.49883
1.49928
0.669673
0.67916
0.71419
0.768781
0.833912
0.905029
0.980533
1.0596
1.1413
1.22444
1.30363
1.36696
1.41208
1.44512
1.46979
1.48814
1.50073
1.50766
1.51032
1.51078
0.640904
0.650452
0.686612
0.743381
0.811249
0.885623
0.964866
1.0481
1.13429
1.22211
1.30571
1.37229
1.41939
1.45358
1.47888
1.49751
1.51023
1.5173
1.51992
1.52043
0.613829
0.623436
0.660599
0.719274
0.789606
0.866866
0.949446
1.03646
1.12681
1.21906
1.30693
1.37674
1.42584
1.46119
1.4871
1.50604
1.51888
1.52601
1.52866
1.52899
0.587939
0.597653
0.635759
0.696043
0.768626
0.848475
0.934065
1.02452
1.11872
1.21517
1.30725
1.38036
1.43157
1.4682
1.49482
1.5141
1.52708
1.53417
1.53679
1.5371
0.56284
0.572745
0.611682
0.673524
0.748086
0.830262
0.918573
1.01216
1.10993
1.2104
1.30664
1.3832
1.43672
1.47478
1.50224
1.52196
1.53511
1.54219
1.54472
1.54503
0.538348
0.548493
0.588203
0.651545
0.727866
0.812127
0.902892
0.999333
1.1004
1.20468
1.30506
1.38524
1.44132
1.48104
1.50949
1.52975
1.54311
1.55016
1.55255
1.55281
0.514409
0.524782
0.565307
0.629966
0.707896
0.794036
0.886998
0.986017
1.09012
1.19799
1.30247
1.38646
1.44536
1.487
1.51663
1.53751
1.55108
1.55803
1.56025
1.56043
0.49092
0.501613
0.542866
0.608769
0.688155
0.775974
0.870899
0.972231
1.07909
1.19032
1.29879
1.38672
1.44879
1.49268
1.52369
1.54527
1.55901
1.5658
1.56779
1.56786
0.467934
0.478919
0.520933
0.587962
0.668664
0.757978
0.854646
0.958027
1.06736
1.18166
1.29397
1.38595
1.4515
1.49804
1.53072
1.55306
1.56685
1.57333
1.57502
1.57499
0.445427
0.456729
0.499526
0.567586
0.649467
0.740098
0.838296
0.943477
1.05498
1.17205
1.28797
1.38403
1.45335
1.50298
1.53777
1.56101
1.57466
1.58056
1.58186
1.58174
0.423592
0.435136
0.478682
0.547688
0.630623
0.722417
0.821924
0.928663
1.04205
1.16156
1.28079
1.38084
1.45414
1.50737
1.54489
1.56938
1.58264
1.5875
1.58819
1.58796
0.402298
0.414191
0.45844
0.528305
0.612177
0.704982
0.80563
0.913676
1.02867
1.1503
1.27244
1.37629
1.45367
1.51093
1.55198
1.57854
1.59146
1.5945
1.59399
1.59358
0.381717
0.393926
0.438838
0.509495
0.594212
0.687884
0.789501
0.898642
1.01495
1.13833
1.263
1.3703
1.45171
1.51327
1.55868
1.58871
1.60233
1.60312
1.59989
1.59834
0.361796
0.374301
0.419931
0.491316
0.576775
0.671194
0.773623
0.883646
1.00102
1.1258
1.25255
1.36283
1.4481
1.5139
1.56415
1.59932
1.61629
1.61688
1.60962
1.59958
0.342617
0.355362
0.401619
0.473616
0.559653
0.654625
0.757651
0.86827
0.986397
1.11219
1.24051
1.35322
1.44223
1.5122
1.56715
1.60877
1.63241
1.63654
1.62758
1.61847
0.324238
0.3372
0.383903
0.456438
0.542861
0.638175
0.741607
0.852501
0.971051
1.09738
1.22674
1.34117
1.43345
1.50744
1.56516
1.61139
1.63825
1.64751
1.61132
1.55736
0.306928
0.320587
0.366888
0.439846
0.526291
0.621714
0.725451
0.836463
0.955053
1.08147
1.2112
1.32655
1.4208
1.49938
1.55628
1.59584
1.62382
1.61405
1.55674
1.49094
0.290376
0.304873
0.350762
0.424455
0.510271
0.60572
0.708961
0.820216
0.938549
1.06463
1.19393
1.30926
1.40325
1.48917
1.53939
1.59245
1.5658
1.52595
1.45609
1.38658
0.304363
0.322429
0.371083
0.448939
0.539636
0.638863
0.747418
0.861585
0.98292
1.11231
1.23516
1.33723
1.42284
1.51404
1.56444
1.48416
1.4401
1.378
1.30452
1.25562
0.279928
0.296335
0.331981
0.400095
0.485458
0.580369
0.683719
0.794293
0.911731
1.0364
1.16356
1.27675
1.36717
1.44703
1.51856
1.52073
1.40027
1.31667
1.25377
1.16936
0.259788
0.275483
0.316864
0.386403
0.472021
0.566524
0.668673
0.778289
0.894663
1.01778
1.14298
1.25372
1.34103
1.4081
1.43543
1.36578
1.22453
1.1275
1.05137
0.960976
0.239228
0.25178
0.297646
0.368482
0.454295
0.548968
0.651038
0.760264
0.875642
0.997104
1.1193
1.22535
1.30547
1.35689
1.33527
1.20643
1.05171
0.931566
0.831683
0.691668
0.215453
0.228553
0.276461
0.348438
0.434588
0.52928
0.631205
0.739777
0.853955
0.973403
1.09208
1.19275
1.26499
1.29659
1.23878
1.05382
0.867506
0.708908
0.562285
0.361529
0.192756
0.205475
0.254623
0.327774
0.414436
0.509085
0.610614
0.718281
0.831013
0.948087
1.06287
1.15764
1.22134
1.22348
1.11412
0.909642
0.689917
0.479883
0.293016
-0.123994
0.17007
0.182382
0.232024
0.306049
0.393127
0.487799
0.588924
0.695674
0.806849
0.921316
1.03188
1.12013
1.17338
1.14127
0.990036
0.782143
0.555172
0.332262
0.141468
-0.168277
0.1465
0.158653
0.208453
0.283015
0.370385
0.465091
0.565848
0.671705
0.781266
0.892958
0.999074
1.08032
1.12012
1.06956
0.878223
0.678791
0.47204
0.296333
0.221776
0.185666
0.121583
0.133568
0.183542
0.25838
0.34584
0.440417
0.540652
0.645387
0.753005
0.861441
0.962467
1.03609
1.06167
0.980891
0.778705
0.592025
0.421859
0.309081
0.271701
0.26013
0.0951299
0.107051
0.157135
0.23214
0.319564
0.413843
0.513344
0.616697
0.722001
0.826674
0.921922
0.987756
0.991202
0.876037
0.688619
0.515513
0.370746
0.310904
0.296971
0.291912
0.0670618
0.0787845
0.129176
0.204299
0.291587
0.385395
0.483951
0.58563
0.688245
0.7887
0.877482
0.93514
0.912133
0.77687
0.603035
0.440957
0.335801
0.299096
0.305517
0.306051
0.0374293
0.0491061
0.0997021
0.174925
0.261979
0.355154
0.45253
0.552248
0.651795
0.747543
0.829401
0.876618
0.837868
0.683368
0.524592
0.380574
0.334063
0.32
0.315756
0.315499
0.0066207
0.0183173
0.0689399
0.144219
0.23091
0.323274
0.419229
0.516689
0.612775
0.703355
0.777964
0.813612
0.768868
0.601521
0.454461
0.350735
0.302111
0.316849
0.320582
0.32122
-0.0248806
-0.0132441
0.0373663
0.112519
0.198712
0.29006
0.38435
0.479241
0.571489
0.6565
0.723504
0.750009
0.685018
0.527175
0.395865
0.322205
0.320436
0.32247
0.324949
0.326154
-0.0562263
-0.0448704
0.00574435
0.0803594
0.165887
0.255992
0.348341
0.440361
0.528427
0.607509
0.66671
0.682476
0.591572
0.459426
0.351602
0.330787
0.318898
0.3215
0.327835