/*--------------------------------*- C++ -*----------------------------------*\
  =========                 |
  \\      /  F ield         | OpenFOAM: The Open Source CFD Toolbox
   \\    /   O peration     | Website:  https://openfoam.org
    \\  /    A nd           | Version:  10
     \\/     M anipulation  |
\*---------------------------------------------------------------------------*/
FoamFile
{
    format      ascii;
    class       surfaceScalarField;
    location    "32";
    object      phi;
}
// * * * * * * * * * * * * * * * * * * * * * * * * * * * * * * * * * * * * * //

dimensions      [0 3 -1 0 0 0 0];

internalField   nonuniform List<scalar> 
17370
(
-0.0916071
0.0960063
0.284612
-0.0775895
0.0594126
0.364952
-0.0430343
0.031615
0.427587
-0.0223101
0.0162556
0.505306
-0.011659
0.00878073
0.60228
-0.00656502
0.00507925
0.720543
-0.00384727
0.00297638
0.863777
-0.00221738
0.00165268
1.03602
-0.00113462
0.000723262
1.24291
-0.000317398
-7.36194e-05
1.49158
0.000459012
-0.000865157
1.4916
0.00126955
-0.00177722
1.2432
0.00233198
-0.00308047
1.03639
0.00394278
-0.00516621
0.86413
0.00664394
-0.00884978
0.721263
0.0117176
-0.0163011
0.603798
0.0223428
-0.0316339
0.50873
0.0430385
-0.0594076
0.432537
0.0775866
-0.0960031
0.365192
0.0916184
0.197392
-0.127086
0.088017
0.0390693
-0.364349
0.354023
-0.0714791
0.0818051
-0.446655
0.454245
-0.0791675
0.0715769
-0.521008
0.529106
-0.0637276
0.0556295
-0.612986
0.620758
-0.0482413
0.040469
-0.727159
0.73368
-0.0338543
0.0273326
-0.867579
0.872416
-0.0221338
0.0172958
-1.03856
1.04188
-0.0136164
0.0103006
-1.24471
1.2471
-0.00776975
0.0053824
-1.49284
1.49484
-0.00343229
0.00143375
-1.49269
1.4945
0.000375692
-0.00218322
-1.2441
1.24602
0.00415346
-0.00606768
-1.03761
1.0401
0.00841177
-0.0109019
-0.86619
0.869829
0.0141726
-0.0178119
-0.724601
0.729761
0.022607
-0.0277667
-0.60907
0.615647
0.0342461
-0.0408233
-0.515126
0.522473
0.0485547
-0.0559023
-0.43988
0.447672
0.0639405
-0.0717319
-0.374714
0.377364
0.0792401
-0.0818897
-0.25691
0.224458
0.0715449
-0.0390936
-0.0687984
0.0591842
0.0096142
-0.0521218
0.0589586
-0.37483
0.367993
-0.058115
0.0542771
-0.453937
0.457775
-0.0487923
0.0442343
-0.527603
0.532161
-0.0396845
0.0357885
-0.620783
0.624679
-0.0315777
0.027592
-0.734643
0.738629
-0.023256
0.0193952
-0.873944
0.877805
-0.0153831
0.011954
-1.04335
1.04678
-0.00846166
0.00544973
-1.24863
1.25164
-0.00226194
-0.000702882
-1.49692
1.49989
0.00365058
-0.00679047
-1.49741
1.50055
0.00973684
-0.0131493
-1.25007
1.25348
0.0165018
-0.0204282
-1.04567
1.04959
0.0242128
-0.0284683
-0.877155
0.881411
0.0323817
-0.0365137
-0.739002
0.743134
0.0403415
-0.044825
-0.625991
0.630474
0.0493299
-0.0547635
-0.535034
0.540468
0.0585433
-0.0593187
-0.458098
0.458873
0.0523884
-0.0320293
-0.336798
0.316439
0.00966207
-0.0686849
0.0590228
-0.0533923
0.0492784
0.00411386
-0.0332619
0.0436946
-0.358536
0.348103
-0.0473759
0.0467917
-0.459557
0.460141
-0.0438639
0.0406505
-0.536104
0.539317
-0.0369724
0.0336187
-0.628363
0.631716
-0.0299929
0.0267706
-0.742002
0.745224
-0.0233509
0.0201915
-0.881298
0.884458
-0.0166431
0.0133273
-1.05019
1.05351
-0.00966416
0.00628938
-1.25489
1.25826
-0.00252946
-0.00106079
-1.50323
1.50682
0.00462601
-0.00831008
-1.50404
1.50773
0.0115862
-0.0151262
-1.25704
1.26058
0.0183231
-0.0217404
-1.05329
1.05671
0.0247857
-0.0280872
-0.885026
0.888328
0.0312052
-0.0347207
-0.746833
0.750348
0.0379779
-0.041557
-0.634606
0.638185
0.044687
-0.0475226
-0.54462
0.547456
0.0480124
-0.0442008
-0.457007
0.453196
0.0336101
-0.0163381
-0.297155
0.279883
0.00416621
-0.0531848
0.0490186
-0.0461056
0.0435484
0.00255718
-0.0230591
0.0334171
-0.337498
0.32714
-0.0391609
0.0401204
-0.459877
0.458918
-0.0388818
0.0365658
-0.541959
0.544275
-0.0339362
0.0314026
-0.634661
0.637194
-0.0284439
0.0256218
-0.748293
0.751115
-0.0224224
0.0194483
-0.887511
0.890486
-0.0161381
0.0130387
-1.05667
1.05977
-0.00952033
0.0061579
-1.26163
1.26499
-0.00229165
-0.00146623
-1.51053
1.51428
0.00519055
-0.00895232
-1.5115
1.51526
0.0121778
-0.0155243
-1.26403
1.26738
0.0184593
-0.0215914
-1.05992
1.06305
0.0244132
-0.0274559
-0.89153
0.894573
0.0301394
-0.0329494
-0.753543
0.756353
0.0353513
-0.0378464
-0.641157
0.643653
0.0400508
-0.0411472
-0.54931
0.550407
0.0400422
-0.0340886
-0.448106
0.442152
0.0235029
-0.010318
-0.264747
0.251562
0.00262197
-0.0457893
0.0431673
-0.0414282
0.0396275
0.00180071
-0.0169447
0.026233
-0.317262
0.307974
-0.0328344
0.0349594
-0.457341
0.455216
-0.0345291
0.0328337
-0.546279
0.547974
-0.0306083
0.0284865
-0.639474
0.641596
-0.0260688
0.0237295
-0.753697
0.756036
-0.0209799
0.0183011
-0.893332
0.896011
-0.0151881
0.0122128
-1.06278
1.06576
-0.00880588
0.00554235
-1.26827
1.27153
-0.00175775
-0.00194105
-1.51802
1.52172
0.00559691
-0.00924959
-1.519
1.52265
0.0123372
-0.0155181
-1.27065
1.27383
0.0182729
-0.0211436
-1.06608
1.06895
0.0236161
-0.0261582
-0.897366
0.899908
0.0283202
-0.0305531
-0.758812
0.761045
0.0325109
-0.0345644
-0.645897
0.64795
0.0360996
-0.0363363
-0.551014
0.551251
0.0339899
-0.0270853
-0.435625
0.428721
0.0174948
-0.00739723
-0.240063
0.229966
0.0018797
-0.0409784
0.0390987
-0.0380774
0.0367282
0.00134918
-0.0129228
0.0209143
-0.299332
0.29134
-0.0276842
0.030617
-0.452648
0.449715
-0.0308396
0.0297302
-0.549395
0.550504
-0.0277451
0.0258359
-0.643625
0.645534
-0.0236566
0.0215631
-0.758251
0.760344
-0.0191256
0.0167275
-0.898526
0.900924
-0.013883
0.0110939
-1.0686
1.07139
-0.00783889
0.00469721
-1.27471
1.27785
-0.00105321
-0.00249239
-1.52532
1.52887
0.00598303
-0.00946459
-1.52624
1.52972
0.0123888
-0.0153609
-1.27694
1.27991
0.0178729
-0.0204123
-1.07166
1.0742
0.0225516
-0.0247304
-0.902214
0.904393
0.0266012
-0.0285456
-0.763108
0.765053
0.0302464
-0.0320203
-0.64986
0.651634
0.0328939
-0.0324001
-0.551132
0.550638
0.0291529
-0.0219721
-0.421619
0.414439
0.0135967
-0.00566645
-0.221053
0.213123
0.00144534
-0.0374648
0.0360194
-0.0355491
0.0345141
0.00103499
-0.0100613
0.0168042
-0.283991
0.277248
-0.0233007
0.0266836
-0.446521
0.443138
-0.0274829
0.0268159
-0.551355
0.552022
-0.0250865
0.023343
-0.647367
0.64911
-0.0213409
0.0194102
-0.762387
0.764317
-0.0171481
0.0149201
-0.903226
0.905454
-0.0122917
0.0097122
-1.07402
1.0766
-0.00667893
0.00371182
-1.28087
1.28384
-0.000232767
-0.00316362
-1.53232
1.53571
0.00649512
-0.00977414
-1.53311
1.53639
0.0124755
-0.0151617
-1.28277
1.28545
0.0173956
-0.0196344
-1.0766
1.07884
0.0215199
-0.0234428
-0.906434
0.908357
0.025095
-0.0268116
-0.766852
0.768569
0.0283019
-0.0297488
-0.653264
0.654711
0.0301232
-0.0289457
-0.549812
0.548635
0.0251357
-0.0181039
-0.407305
0.400273
0.010883
-0.00449996
-0.206037
0.199654
0.00115194
-0.034739
0.0335871
-0.0336052
0.0328045
0.000800694
-0.00792041
0.0135616
-0.271078
0.265436
-0.0195573
0.0231298
-0.439641
0.436069
-0.0243959
0.0239606
-0.552584
0.553019
-0.022483
0.0208393
-0.650827
0.652471
-0.0189422
0.0171292
-0.766221
0.768034
-0.0150167
0.0129369
-0.907582
0.909662
-0.010475
0.00805732
-1.07903
1.08145
-0.00521788
0.00244151
-1.28666
1.28944
0.000808214
-0.00397747
-1.53898
1.54215
0.00706823
-0.0100789
-1.53955
1.54256
0.0125271
-0.0149298
-1.28802
1.29042
0.0169127
-0.0188886
-1.08095
1.08293
0.0205459
-0.0222395
-0.910152
0.911845
0.0237097
-0.0252592
-0.770159
0.771709
0.0265913
-0.0277071
-0.655992
0.657108
0.027751
-0.0259678
-0.547172
0.545389
0.0218279
-0.0151514
-0.393416
0.38674
0.00892153
-0.00367016
-0.193888
0.188637
0.000943196
-0.0325551
0.0316119
-0.0321007
0.0314829
0.00061784
-0.00624216
0.0109192
-0.260297
0.25562
-0.0162839
0.019845
-0.432481
0.42892
-0.021457
0.021292
-0.553325
0.55349
-0.0201099
0.018586
-0.654081
0.655605
-0.0167949
0.0150586
-0.769849
0.771585
-0.0130159
0.011
-0.911673
0.913689
-0.00862224
0.00630598
-1.08375
1.08607
-0.00360822
0.000996508
-1.29209
1.2947
0.00203472
-0.00496658
-1.54517
1.5481
0.00779944
-0.0105344
-1.54544
1.54817
0.012748
-0.0149209
-1.29275
1.29492
0.016709
-0.0184828
-1.08483
1.0866
0.0199677
-0.021473
-0.913435
0.914941
0.0227655
-0.0241189
-0.773118
0.774472
0.0252743
-0.0259774
-0.658007
0.65871
0.0256535
-0.0233649
-0.543376
0.541088
0.0190746
-0.0128597
-0.380308
0.374093
0.00746119
-0.00306169
-0.183854
0.179455
0.000791257
-0.030759
0.0299677
-0.0309454
0.0304779
0.000467464
-0.0048616
0.00868603
-0.251386
0.247562
-0.0133513
0.0167197
-0.425444
0.422076
-0.0184916
0.018521
-0.553563
0.553533
-0.0175595
0.0161145
-0.657121
0.658566
-0.0143984
0.0127278
-0.77332
0.774991
-0.0107634
0.0088356
-0.915616
0.917544
-0.00657672
0.004384
-1.08826
1.09045
-0.00183398
-0.000628169
-1.29719
1.29965
0.00347693
-0.00620601
-1.55091
1.55364
0.00881284
-0.0112938
-1.55079
1.55327
0.013266
-0.0151638
-1.29699
1.29889
0.0166961
-0.0182035
-1.08829
1.0898
0.0194618
-0.0207467
-0.916343
0.917628
0.021863
-0.0230371
-0.775681
0.776855
0.0240144
-0.0243558
-0.659202
0.659544
0.0236904
-0.0210467
-0.538647
0.536003
0.0167593
-0.0110466
-0.368151
0.362438
0.00634337
-0.00260351
-0.175421
0.171681
0.000678431
-0.0292471
0.0285686
-0.0300808
0.0297425
0.000338262
-0.00367296
0.00672602
-0.244138
0.241085
-0.0106664
0.0137278
-0.418864
0.415802
-0.0155317
0.0157069
-0.553462
0.553286
-0.0148404
0.0134824
-0.66003
0.661388
-0.0118071
0.0101865
-0.776664
0.778285
-0.00829735
0.00644787
-0.91935
0.921199
-0.00428273
0.00218635
-1.0925
1.09459
0.000235191
-0.00256174
-1.30199
1.30431
0.00521293
-0.00770637
-1.55622
1.55871
0.010048
-0.012243
-1.55562
1.55781
0.0139595
-0.0155743
-1.3007
1.30231
0.0168508
-0.0180758
-1.09122
1.09244
0.0190856
-0.020138
-0.91878
0.919832
0.0210878
-0.0220986
-0.777874
0.778885
0.0228559
-0.0229592
-0.659768
0.659872
0.0219603
-0.0190485
-0.533269
0.530357
0.0148393
-0.0096117
-0.357003
0.351776
0.00548514
-0.00226048
-0.168236
0.165011
0.000596746
-0.027948
0.0273513
-0.0294685
0.0292499
0.000218554
-0.00258736
0.00491529
-0.238406
0.236078
-0.0081047
0.0107644
-0.412949
0.41029
-0.0125086
0.0128166
-0.553083
0.552775
-0.0120889
0.0108827
-0.662748
0.663954
-0.00929374
0.00770429
-0.779908
0.781497
-0.0058137
0.0039598
-0.922945
0.924799
-0.00181092
-0.000239065
-1.09656
1.09861
0.0025813
-0.00478885
-1.30651
1.30872
0.00726807
-0.00956562
-1.56106
1.56336
0.0116776
-0.0136052
-1.55988
1.56181
0.0150658
-0.0164155
-1.30385
1.30519
0.0174819
-0.0185086
-1.09361
1.09463
0.0193509
-0.0201775
-0.92077
0.921596
0.0208661
-0.0215696
-0.779711
0.780414
0.0219773
-0.0217714
-0.659791
0.659585
0.0204167
-0.0172745
-0.527378
0.524236
0.013196
-0.00843696
-0.346823
0.342064
0.00480329
-0.0019957
-0.162032
0.159224
0.000536432
-0.0268021
0.0262657
-0.0290928
0.0289912
0.000101659
-0.00154911
0.0031701
-0.234121
0.2325
-0.00556837
0.00770796
-0.407903
0.405764
-0.00922814
0.00955294
-0.552488
0.552164
-0.0089089
0.00780484
-0.665185
0.666289
-0.00626462
0.00468556
-0.7831
0.784679
-0.00279993
0.000963096
-0.926536
0.928373
0.00114811
-0.00314167
-1.10053
1.10252
0.00538819
-0.00747604
-1.31079
1.31288
0.0097815
-0.0118652
-1.56551
1.5676
0.0137215
-0.0153341
-1.56358
1.56519
0.0164957
-0.0175058
-1.30646
1.30747
0.0182559
-0.0189522
-1.09556
1.09626
0.0195131
-0.0200676
-0.922321
0.922876
0.020531
-0.021018
-0.780931
0.781418
0.0211297
-0.0205993
-0.659142
0.658611
0.0189324
-0.0156723
-0.521073
0.517813
0.0117907
-0.0074811
-0.337581
0.333272
0.0042693
-0.00179749
-0.156626
0.154154
0.000494545
-0.0257703
0.0252757
-0.0289505
0.0289622
-1.16807e-05
-0.000521684
0.00145068
-0.231238
0.230309
-0.00305793
0.00463124
-0.403944
0.402371
-0.00582061
0.00603354
-0.551978
0.551766
-0.0053453
0.00423782
-0.667508
0.668616
-0.00270336
0.00114781
-0.786238
0.787794
0.000687019
-0.00246164
-0.930017
0.931792
0.00449949
-0.00643326
-1.10434
1.10628
0.00861001
-0.0106204
-1.31483
1.31684
0.0127975
-0.0147035
-1.56954
1.57144
0.0163261
-0.0176601
-1.56667
1.568
0.0185341
-0.0192106
-1.30837
1.30905
0.0196332
-0.0199372
-1.0968
1.0971
0.0201311
-0.020311
-0.923251
0.923431
0.0204975
-0.0206624
-0.781709
0.781874
0.020469
-0.0196454
-0.657825
0.657001
0.0177478
-0.0143989
-0.514612
0.511263
0.0106878
-0.00674986
-0.329226
0.325288
0.00387534
-0.00166135
-0.151863
0.149649
0.000470326
-0.0248197
0.0243493
-0.0290427
0.0291911
-0.000148469
0.0005128
-0.000311103
-0.229738
0.229536
-0.000469635
0.00143824
-0.401143
0.400174
-0.00226871
0.00240714
-0.551712
0.551574
-0.00177363
0.000722138
-0.669836
0.670887
0.000797729
-0.00239324
-0.789317
0.790913
0.00430723
-0.00616347
-0.933413
0.93527
0.00828274
-0.0102673
-1.10808
1.11006
0.0124652
-0.0144417
-1.31873
1.32071
0.0165031
-0.0182167
-1.57319
1.5749
0.019577
-0.0205923
-1.56918
1.57019
0.0211639
-0.021498
-1.30962
1.30996
0.0216287
-0.0216281
-1.0973
1.0973
0.0215366
-0.0213971
-0.923489
0.92335
0.0212289
-0.0210224
-0.781754
0.781547
0.0205198
-0.0192308
-0.65588
0.654591
0.0169359
-0.0134095
-0.507938
0.504411
0.0098278
-0.00620155
-0.321597
0.317971
0.00359385
-0.00156971
-0.147593
0.145568
0.000455985
-0.0239138
0.0234578
-0.0294111
0.0296902
-0.000279112
0.00157239
-0.00201933
-0.229669
0.230116
0.00210631
-0.00183737
-0.399612
0.399343
0.00150729
-0.0015587
-0.551691
0.551742
0.00219902
-0.00324413
-0.67207
0.673115
0.00479682
-0.00648116
-0.79247
0.794155
0.00853464
-0.0105221
-0.936985
0.938972
0.0127672
-0.0148357
-1.11193
1.114
0.0170736
-0.0190362
-1.32256
1.32452
0.0210196
-0.0225845
-1.57647
1.57803
0.0237158
-0.0244139
-1.57104
1.57174
0.0246466
-0.0245936
-1.31018
1.31012
0.0243635
-0.0239915
-1.09715
1.09678
0.0235767
-0.0230658
-0.922989
0.922478
0.022597
-0.0219935
-0.780993
0.780389
0.0210051
-0.0191555
-0.653011
0.651161
0.0165562
-0.0129304
-0.501001
0.497375
0.00945134
-0.00601314
-0.314568
0.31113
0.00352997
-0.00156314
-0.143657
0.141691
0.000458585
-0.0230383
0.0225797
-0.0300455
0.0304685
-0.000422988
0.0025662
-0.0036738
-0.23091
0.232017
0.00457907
-0.00508597
-0.399513
0.40002
0.00544013
-0.0058934
-0.552237
0.55269
0.00675214
-0.00797498
-0.674401
0.675624
0.00972021
-0.0115766
-0.795794
0.79765
0.0138016
-0.0159228
-0.940792
0.942913
0.0182892
-0.0204383
-1.11592
1.11807
0.022724
-0.0246748
-1.32634
1.32829
0.0265702
-0.0279566
-1.57943
1.58081
0.0288093
-0.0291343
-1.57222
1.57255
0.0290204
-0.0285443
-1.30992
1.30944
0.0279067
-0.0270782
-1.09618
1.09535
0.0262709
-0.025379
-0.921699
0.920807
0.024566
-0.0235405
-0.779381
0.778356
0.0221593
-0.0199313
-0.649213
0.646985
0.0170773
-0.0133022
-0.493907
0.490132
0.00978733
-0.00632529
-0.307842
0.30438
0.00376978
-0.00168634
-0.139766
0.137683
0.000495283
-0.0221476
0.0216523
-0.0309685
0.0315413
-0.000572761
0.00357135
-0.00528953
-0.233457
0.235175
0.00696677
-0.0081805
-0.400883
0.402097
0.00922009
-0.0101665
-0.553726
0.554672
0.0114333
-0.0129826
-0.677198
0.678747
0.0150515
-0.0171685
-0.799462
0.801579
0.01964
-0.0219664
-0.944862
0.947189
0.0245522
-0.0268963
-1.12009
1.12244
0.0293682
-0.0314356
-1.33014
1.3322
0.0333462
-0.0346083
-1.58203
1.58329
0.035235
-0.0352222
-1.57264
1.57263
0.0347426
-0.0338387
-1.30876
1.30786
0.0327964
-0.0315116
-1.09426
1.09298
0.0302832
-0.0289613
-0.919592
0.91827
0.0277845
-0.0263393
-0.776903
0.775458
0.0245989
-0.0219474
-0.644704
0.642053
0.0187398
-0.0146514
-0.486488
0.4824
0.0109015
-0.00716424
-0.300981
0.297244
0.004323
-0.00194623
-0.135567
0.133191
0.00057141
-0.0211696
0.0205982
-0.0321896
0.0329436
-0.000753979
0.00474638
-0.00714376
-0.237239
0.239636
0.00964849
-0.0115953
-0.403711
0.405658
0.0133241
-0.0147298
-0.556244
0.55765
0.0163577
-0.0182223
-0.680677
0.682541
0.0206741
-0.0231682
-0.803654
0.806149
0.0260813
-0.0288251
-0.949413
0.952157
0.0318588
-0.0345751
-1.12473
1.12744
0.0373865
-0.0396682
-1.33421
1.33649
0.0416722
-0.0428709
-1.58441
1.58561
0.0432792
-0.0429298
-1.5724
1.57205
0.0420646
-0.040719
-1.3067
1.30535
0.0392538
-0.0375058
-1.09137
1.08962
0.0358659
-0.0341034
-0.916576
0.914813
0.0325306
-0.0305513
-0.773586
0.771607
0.0283137
-0.0250833
-0.639311
0.63608
0.0213802
-0.0168161
-0.478409
0.473845
0.0126393
-0.00839461
-0.2935
0.289255
0.00509372
-0.00229577
-0.130734
0.127936
0.000672022
-0.0200309
0.0193589
-0.0337748
0.0347762
-0.00100144
0.00628245
-0.00951286
-0.242398
0.245628
0.0130047
-0.0158341
-0.408135
0.410965
0.0183815
-0.020382
-0.559825
0.561826
0.022498
-0.0247693
-0.684831
0.687102
0.0277225
-0.0307454
-0.80862
0.811643
0.0342787
-0.0375822
-0.954856
0.958159
0.0411872
-0.044341
-1.13013
1.13329
0.0475032
-0.0499618
-1.33869
1.34115
0.0519952
-0.0530404
-1.58662
1.58767
0.0531348
-0.0523155
-1.57142
1.5706
0.0509924
-0.0491099
-1.30368
1.3018
0.0471417
-0.0448589
-1.08751
1.08523
0.0427629
-0.0405047
-0.912572
0.910313
0.0384462
-0.0358218
-0.769154
0.76653
0.0329999
-0.0291206
-0.632745
0.628866
0.0248655
-0.0196986
-0.469377
0.46421
0.0149045
-0.00993754
-0.284944
0.279977
0.00603384
-0.00271836
-0.125028
0.121713
0.000795835
-0.0186849
0.0178891
-0.0358516
0.0372086
-0.00135706
0.00841514
-0.0127284
-0.249232
0.253545
0.0174183
-0.021297
-0.414482
0.418361
0.0248908
-0.0277513
-0.564888
0.567748
0.0307011
-0.0337087
-0.689988
0.692996
0.0374718
-0.0412011
-0.814688
0.818417
0.0454588
-0.0493641
-0.961411
0.965317
0.0535204
-0.0570484
-1.13636
1.13989
0.0604401
-0.0629312
-1.34344
1.34593
0.0647821
-0.0654364
-1.5884
1.58905
0.0649547
-0.0634151
-1.56937
1.56783
0.0613958
-0.058793
-1.29952
1.29692
0.0562479
-0.0533772
-1.08247
1.0796
0.0507323
-0.047878
-0.907438
0.904584
0.0452525
-0.0420632
-0.763414
0.760225
0.0386917
-0.0341938
-0.624936
0.620438
0.029285
-0.0232437
-0.459121
0.453079
0.0175555
-0.011653
-0.274902
0.268999
0.00704591
-0.00316026
-0.118297
0.114411
0.000920067
-0.0171024
0.0161823
-0.0386277
0.0405114
-0.00188365
0.0114684
-0.0172305
-0.258215
0.263977
0.0233933
-0.0284791
-0.423206
0.428292
0.0332597
-0.03719
-0.572034
0.575964
0.0413356
-0.0454321
-0.696839
0.700935
0.0502727
-0.05488
-0.822188
0.826795
0.0599777
-0.0645057
-0.96914
0.973668
0.0691766
-0.0730052
-1.14326
1.14709
0.0765353
-0.0789474
-1.34815
1.35056
0.0804499
-0.0805345
-1.58926
1.58934
0.0792926
-0.0768259
-1.56573
1.56326
0.0739189
-0.07034
-1.29376
1.29018
0.066933
-0.0632584
-1.07617
1.0725
0.060067
-0.0567295
-0.901092
0.897755
0.0536939
-0.0500501
-0.756514
0.75287
0.0461421
-0.0408143
-0.615861
0.610533
0.034858
-0.027482
-0.446996
0.439621
0.0206114
-0.0135989
-0.262985
0.255973
0.00818498
-0.00365126
-0.11043
0.105896
0.00105546
-0.0152762
0.0142207
-0.0424179
0.0451247
-0.00270679
0.0160393
-0.0237787
-0.270052
0.277791
0.0317833
-0.0382414
-0.434809
0.441268
0.044289
-0.0493514
-0.581705
0.586767
0.0548221
-0.0601485
-0.705926
0.711252
0.0662673
-0.0718898
-0.831481
0.837103
0.0778879
-0.0830537
-0.978097
0.983262
0.0882255
-0.0923422
-1.15071
1.15482
0.0959866
-0.0983018
-1.35265
1.35496
0.0994553
-0.0989887
-1.58894
1.58847
0.0970559
-0.0937637
-1.56023
1.55694
0.0900664
-0.0855835
-1.28603
1.28155
0.081322
-0.0767018
-1.0681
1.06348
0.0726862
-0.0686132
-0.893616
0.889543
0.0649863
-0.060693
-0.7486
0.744306
0.0558016
-0.0489484
-0.604836
0.597983
0.0413702
-0.0322755
-0.432103
0.423008
0.024053
-0.0157971
-0.248921
0.240666
0.0094598
-0.0041852
-0.101293
0.0960181
0.00119561
-0.0131922
0.0119965
-0.0477731
0.0518971
-0.004124
0.0233544
-0.033911
-0.285881
0.296437
0.0444188
-0.0527208
-0.450062
0.458364
0.060238
-0.0664526
-0.594105
0.60032
0.0732435
-0.079807
-0.717423
0.723986
0.0870787
-0.0935415
-0.842684
0.849146
0.100286
-0.105978
-0.988266
0.993958
0.11155
-0.115853
-1.15868
1.16298
0.11948
-0.121589
-1.35688
1.35899
0.122304
-0.12125
-1.58749
1.58644
0.118626
-0.114574
-1.55311
1.54906
0.110195
-0.104967
-1.27658
1.27135
0.100004
-0.0945617
-1.05818
1.05274
0.0897358
-0.084612
-0.88439
0.879267
0.07976
-0.0738115
-0.738766
0.732818
0.0670569
-0.0579981
-0.590287
0.581228
0.0485372
-0.0376672
-0.413838
0.402969
0.0280024
-0.0183133
-0.232501
0.222812
0.0108789
-0.00474953
-0.0907338
0.0846044
0.00133275
-0.0108471
0.00951436
-0.0557503
0.0629047
-0.00715445
0.036611
-0.0514265
-0.307882
0.322697
0.0655405
-0.0763627
-0.470416
0.481239
0.0854201
-0.0926776
-0.609339
0.616597
0.100612
-0.108041
-0.731047
0.738475
0.11595
-0.122793
-0.85532
0.862163
0.129804
-0.135584
-0.999289
1.00507
0.141073
-0.145085
-1.1668
1.17081
0.148191
-0.149609
-1.36047
1.36189
0.149412
-0.147366
-1.58466
1.58262
0.143721
-0.138645
-1.54435
1.53928
0.133384
-0.127229
-1.26558
1.25942
0.121407
-0.114959
-1.04657
1.04012
0.10904
-0.102386
-0.872711
0.866057
0.0957946
-0.087617
-0.724957
0.716779
0.0787038
-0.0675399
-0.571081
0.559917
0.0564166
-0.0438624
-0.392139
0.379585
0.0326082
-0.021243
-0.213388
0.202022
0.0124919
-0.00535889
-0.0786456
0.0715126
0.00146262
-0.00826967
0.00680705
-0.0696383
0.0734716
-0.00383328
0.0273173
-0.0400651
-0.340069
0.352817
0.052536
-0.0621396
-0.497104
0.506708
0.0706363
-0.0789762
-0.62703
0.63537
0.0885281
-0.0971154
-0.745531
0.754118
0.106963
-0.115961
-0.868202
0.877201
0.125679
-0.134379
-1.01
1.0187
0.143456
-0.151161
-1.17385
1.18156
0.158644
-0.164348
-1.36227
1.36797
0.168935
-0.171153
-1.57948
1.5817
0.170854
-0.168415
-1.53319
1.53075
0.16452
-0.158817
-1.25241
1.24671
0.152746
-0.144701
-1.0327
1.02465
0.136663
-0.126844
-0.857646
0.847827
0.116872
-0.104803
-0.706358
0.694289
0.0921697
-0.0771591
-0.547726
0.532716
0.0629761
-0.0471288
-0.366831
0.350984
0.0334344
-0.0203318
-0.190945
0.177842
0.0110365
-0.00430306
-0.0650918
0.0583584
0.00102108
-0.00557964
0.00455856
-0.0804297
0.0783176
0.00211204
0.00564284
-0.0136475
-0.368395
0.376399
0.0228929
-0.0296925
-0.52091
0.52771
0.036671
-0.043781
-0.645742
0.652852
0.0523796
-0.0603864
-0.762509
0.770516
0.0691766
-0.0774689
-0.885705
0.893997
0.0864479
-0.0941853
-1.02715
1.03489
0.102464
-0.109149
-1.18912
1.1958
0.115596
-0.120205
-1.37339
1.37799
0.123266
-0.124033
-1.58297
1.58374
0.122161
-0.117989
-1.52716
1.52299
0.112291
-0.104644
-1.23992
1.23227
0.0967802
-0.0871346
-1.01535
1.0057
0.0774724
-0.0661466
-0.835434
0.824108
0.0556615
-0.0447626
-0.678253
0.667354
0.0353601
-0.0255012
-0.51579
0.505931
0.0172405
-0.00993695
-0.334699
0.327396
0.00514628
-0.00179158
-0.165223
0.161868
0.000211069
0.000299919
-0.0519566
0.0514456
-0.000212333
-0.00337203
0.00358436
-0.0813155
0.078366
0.00294957
-0.00292863
-0.00141617
-0.387213
0.391558
0.00741691
-0.0124967
-0.538463
0.543543
0.0180372
-0.0241665
-0.661599
0.667728
0.0315486
-0.0384546
-0.777856
0.784762
0.0462809
-0.0535109
-0.901606
0.908836
0.0611069
-0.0680124
-1.04245
1.04935
0.075187
-0.0810479
-1.20203
1.20789
0.0862059
-0.0895922
-1.38184
1.38522
0.0915768
-0.0911134
-1.58354
1.58307
0.0880284
-0.0826619
-1.51778
1.51241
0.0760819
-0.0678447
-1.22401
1.21578
0.0592804
-0.0494695
-0.99522
0.985409
0.0400857
-0.0296272
-0.81237
0.801912
0.020564
-0.0115541
-0.654389
0.645379
0.00459385
0.0021075
-0.494187
0.487485
-0.00634308
0.00836045
-0.3181
0.316083
-0.00826132
0.00675103
-0.156606
0.158116
-0.00471556
0.00239929
-0.0501862
0.0525025
-0.000787727
-0.00338298
0.00417071
-0.0798432
0.0770827
0.00276052
-0.00596812
0.00399283
-0.399541
0.401516
-0.000415898
-0.00354297
-0.551734
0.555692
0.00852389
-0.0137363
-0.67466
0.679872
0.0200971
-0.0260789
-0.791319
0.797301
0.0328018
-0.0390132
-0.915615
0.921826
0.0458977
-0.0517405
-1.05582
1.06166
0.057981
-0.0626057
-1.2133
1.21793
0.0669138
-0.0695587
-1.38829
1.39093
0.0706125
-0.0691853
-1.58198
1.58055
0.0656731
-0.0600909
-1.50629
1.50071
0.0535079
-0.0451513
-1.20721
1.19886
0.037043
-0.0279689
-0.975263
0.966189
0.0193478
-0.0102497
-0.791204
0.782106
0.00217567
0.00534235
-0.634446
0.626928
-0.0108344
0.0150237
-0.479098
0.474908
-0.016693
0.0158971
-0.310619
0.311415
-0.0134958
0.00989534
-0.157456
0.161057
-0.00657485
0.00316522
-0.0537419
0.0571516
-0.000982301
-0.00447962
0.00546192
-0.0782828
0.0759242
0.00235864
-0.00663362
0.00602003
-0.407816
0.408429
-0.00331339
0.000433736
-0.562716
0.565596
0.00384743
-0.0087187
-0.685769
0.69064
0.0141379
-0.0194814
-0.802831
0.808175
0.0253515
-0.0307683
-0.927674
0.933091
0.0366832
-0.0418797
-1.06738
1.07257
0.0471474
-0.0513498
-1.22238
1.22659
0.0549717
-0.0570752
-1.39316
1.39526
0.0576625
-0.0559575
-1.57888
1.57718
0.0523781
-0.0467777
-1.49442
1.48882
0.0405886
-0.0330511
-1.19057
1.18304
0.0257572
-0.0175759
-0.957028
0.948847
0.0101463
-0.00230172
-0.772805
0.76496
-0.00433882
0.0105207
-0.618104
0.611922
-0.0147788
0.017802
-0.468095
0.465071
-0.0188283
0.0173159
-0.308214
0.309726
-0.0142187
0.0103086
-0.162185
0.166096
-0.00675893
0.00318653
-0.0592445
0.0628169
-0.000991168
-0.00597706
0.00696822
-0.0769796
0.0750021
0.00197746
-0.00623417
0.00595692
-0.413597
0.413874
-0.00439902
0.00189738
-0.571314
0.573816
0.00237496
-0.00664019
-0.695437
0.699702
0.011423
-0.0161672
-0.812947
0.817692
0.0214657
-0.0263543
-0.938252
0.943141
0.0317961
-0.0363644
-1.07751
1.08208
0.0411077
-0.0448855
-1.2305
1.23428
0.0480601
-0.0498455
-1.39709
1.39887
0.0501994
-0.0488289
-1.57537
1.574
0.0454091
-0.0403761
-1.48289
1.47786
0.0347193
-0.027926
-1.17549
1.1687
0.0216801
-0.0144169
-0.940786
0.933522
0.00794691
-0.00131068
-0.757103
0.750467
-0.00434031
0.00958695
-0.604778
0.599532
-0.0131938
0.0157011
-0.459649
0.457141
-0.0162602
0.0149478
-0.30757
0.308883
-0.0124125
0.00893712
-0.167387
0.170862
-0.00578568
0.00275286
-0.0646668
0.0676997
-0.000864503
-0.00740524
0.00826974
-0.0760844
0.0745706
0.0015138
-0.00520525
0.00513854
-0.418021
0.418087
-0.0037227
0.00172964
-0.579092
0.581085
0.00228037
-0.00623344
-0.70407
0.708023
0.0109165
-0.0151033
-0.822218
0.826405
0.0198459
-0.0242422
-0.948086
0.952483
0.0294552
-0.0336423
-1.08671
1.09089
0.0378899
-0.0414853
-1.23789
1.24148
0.0448254
-0.0464991
-1.40068
1.40236
0.0469913
-0.0457179
-1.57228
1.571
0.0429305
-0.0381854
-1.47272
1.46797
0.0332899
-0.0274051
-1.16194
1.15605
0.0217956
-0.0156233
-0.926493
0.92032
0.0099711
-0.00406698
-0.743646
0.737742
-0.000590954
0.00518132
-0.593387
0.588797
-0.00840386
0.0104929
-0.452482
0.450393
-0.0111763
0.0104897
-0.307203
0.307889
-0.00864369
0.00607806
-0.171559
0.174125
-0.00388496
0.00187782
-0.0688677
0.0708748
-0.000616915
-0.00853229
0.00914921
-0.0757147
0.0745423
0.00117245
-0.00406788
0.00405051
-0.421661
0.421678
-0.00261529
0.000634447
-0.586074
0.588055
0.00316855
-0.00679246
-0.712045
0.715668
0.0109094
-0.0150427
-0.830677
0.834811
0.0195096
-0.024102
-0.956774
0.961366
0.0286501
-0.0326893
-1.09521
1.09925
0.0370914
-0.0404746
-1.24498
1.24837
0.0433859
-0.0455194
-1.40396
1.4061
0.046282
-0.0454191
-1.56982
1.56896
0.0429726
-0.0390278
-1.46349
1.45954
0.0347024
-0.029463
-1.14998
1.14474
0.0245586
-0.0190862
-0.914163
0.908691
0.0141256
-0.00909952
-0.731952
0.726926
0.00473104
-0.000667044
-0.583492
0.579428
-0.0021822
0.00429067
-0.446316
0.444207
-0.00513378
0.0048847
-0.30594
0.306189
-0.00407054
0.00281666
-0.173792
0.175045
-0.00178127
0.000867541
-0.0710994
0.0720131
-0.000313247
-0.00917747
0.00949072
-0.0758714
0.0748964
0.00097498
-0.00279164
0.00253653
-0.425045
0.4253
-0.00124889
-0.000863205
-0.592563
0.594675
0.00439337
-0.00796953
-0.719634
0.723211
0.01201
-0.0158301
-0.838855
0.842675
0.0204859
-0.024361
-0.965468
0.969343
0.0289228
-0.0328189
-1.10348
1.10737
0.0371426
-0.0407507
-1.25176
1.25537
0.0439862
-0.0459605
-1.40802
1.40999
0.0471393
-0.0467706
-1.56806
1.56769
0.0450657
-0.041558
-1.45552
1.45202
0.0377861
-0.0330829
-1.13964
1.13494
0.028694
-0.0236848
-0.903066
0.898057
0.0192853
-0.0146138
-0.721675
0.717004
0.010636
-0.00679918
-0.574773
0.570937
0.00388841
-0.00176541
-0.440344
0.438221
0.000476325
1.04464e-05
-0.303576
0.30309
-0.000254338
0.00025978
-0.173713
0.173707
-0.000230801
0.000237883
-0.0713481
0.0713411
-0.000142523
-0.00927907
0.0094216
-0.0762982
0.0756254
0.000672777
-0.00167607
0.00105752
-0.428604
0.429223
1.30721e-05
-0.00246177
-0.598335
0.600784
0.00569152
-0.00918756
-0.726847
0.730344
0.0131221
-0.0171267
-0.846458
0.850462
0.0212431
-0.0253201
-0.973484
0.977561
0.0298865
-0.0336127
-1.11173
1.11545
0.0380603
-0.0416579
-1.25881
1.26241
0.0449958
-0.0475402
-1.4124
1.41494
0.0492668
-0.0492488
-1.56739
1.56737
0.0478612
-0.0451221
-1.44869
1.44595
0.041927
-0.037618
-1.13012
1.12581
0.0335023
-0.0290471
-0.892972
0.888517
0.0246133
-0.0203676
-0.712057
0.707811
0.0165959
-0.0127908
-0.566741
0.562936
0.00995408
-0.00741352
-0.434258
0.431718
0.00571157
-0.00431795
-0.300055
0.298661
0.00320347
-0.00202611
-0.171563
0.170385
0.00100941
-0.000248395
-0.0698861
0.0691251
-3.03619e-05
-0.00892754
0.00895791
-0.0771151
0.0765905
0.000524614
-0.000748384
0.000243505
-0.432393
0.432898
0.00159964
-0.00380318
-0.604393
0.606597
0.00718239
-0.0105816
-0.733656
0.737055
0.0144098
-0.0180691
-0.854226
0.857885
0.0223531
-0.0261592
-0.981698
0.985504
0.0307111
-0.0348942
-1.11966
1.12384
0.0390214
-0.0429746
-1.26607
1.27003
0.0467659
-0.0494453
-1.41741
1.42009
0.0515943
-0.052402
-1.56759
1.56839
0.0515014
-0.0494057
-1.44309
1.441
0.0464254
-0.0425587
-1.12151
1.11764
0.0388172
-0.0344826
-0.883633
0.879299
0.030366
-0.0261787
-0.703021
0.698833
0.0224703
-0.0185619
-0.558651
0.554742
0.0154387
-0.0125654
-0.427758
0.424884
0.010143
-0.00794189
-0.295012
0.292811
0.00595308
-0.00385044
-0.167407
0.165304
0.00214511
-0.00078532
-0.0670797
0.0657199
0.000139573
-0.00832023
0.00818066
-0.0781788
0.0778298
0.00034902
0.000264595
-0.00103891
-0.436259
0.437033
0.00269425
-0.00518272
-0.610021
0.61251
0.00849707
-0.0117604
-0.740287
0.74355
0.0156954
-0.0192382
-0.861587
0.86513
0.0234048
-0.0273596
-0.989825
0.99378
0.031845
-0.0360181
-1.12791
1.13208
0.0403897
-0.044395
-1.27393
1.27793
0.0484032
-0.0518544
-1.42308
1.42653
0.0544858
-0.0556267
-1.56916
1.5703
0.05544
-0.053682
-1.43879
1.43703
0.0512443
-0.0478631
-1.11368
1.11029
0.044139
-0.0399616
-0.87464
0.870463
0.0359595
-0.0316744
-0.694218
0.689933
0.0280212
-0.0239508
-0.550633
0.546563
0.0206291
-0.0171771
-0.420654
0.417202
0.0142579
-0.0112457
-0.288505
0.285493
0.00835466
-0.00543002
-0.161514
0.158589
0.00310598
-0.00121471
-0.0631884
0.0612971
0.000258386
-0.0074827
0.00722431
-0.0794474
0.0792183