/*--------------------------------*- C++ -*----------------------------------*\
  =========                 |
  \\      /  F ield         | OpenFOAM: The Open Source CFD Toolbox
   \\    /   O peration     | Website:  https://openfoam.org
    \\  /    A nd           | Version:  10
     \\/     M anipulation  |
\*---------------------------------------------------------------------------*/
FoamFile
{
    format      ascii;
    class       volVectorField;
    location    "70";
    object      U;
}
// * * * * * * * * * * * * * * * * * * * * * * * * * * * * * * * * * * * * * //

dimensions      [0 1 -1 0 0 0 0];

internalField   nonuniform List<vector> 
8800
(
(0.980136 -0.0915201 0)
(1.00234 -0.0587302 0)
(0.999585 -0.0321284 0)
(0.999987 -0.0165207 0)
(1.0001 -0.00883961 0)
(1.00011 -0.0050941 0)
(1.00007 -0.0029897 0)
(1.00003 -0.00167848 0)
(0.999998 -0.000776447 0)
(1.00007 -7.69142e-05 0)
(0.999976 0.000632783 0)
(0.999986 0.00139108 0)
(1.00003 0.00241319 0)
(1.00005 0.00401004 0)
(1.00004 0.00675313 0)
(1 0.0120533 0)
(0.999809 0.0230952 0)
(0.999034 0.0431551 0)
(1.00724 0.0790246 0)
(0.775026 0.0478395 0)
(0.359 -0.0147479 0)
(1.04651 -0.0724763 0)
(1.08848 -0.0660121 0)
(1.04945 -0.050903 0)
(1.02556 -0.037679 0)
(1.01278 -0.02587 0)
(1.00661 -0.0166699 0)
(1.00365 -0.0101756 0)
(1.00219 -0.00554011 0)
(1.00151 -0.00194157 0)
(1.00137 0.00127305 0)
(1.00171 0.00458541 0)
(1.0027 0.00847313 0)
(1.00476 0.0137736 0)
(1.00898 0.0214427 0)
(1.01794 0.0319287 0)
(1.0358 0.0446959 0)
(1.06742 0.0581334 0)
(1.09468 0.069949 0)
(0.845606 0.0555092 0)
(0.217823 -0.00137946 0)
(1.0757 -0.0506292 0)
(1.09943 -0.0489069 0)
(1.06441 -0.0399845 0)
(1.03995 -0.0325182 0)
(1.02386 -0.0252953 0)
(1.01406 -0.0180654 0)
(1.00853 -0.0114335 0)
(1.00566 -0.00566722 0)
(1.00447 -0.000368997 0)
(1.00477 0.00474561 0)
(1.00661 0.0100343 0)
(1.01057 0.01599 0)
(1.01789 0.0227264 0)
(1.03048 0.0298184 0)
(1.05046 0.0368953 0)
(1.08003 0.0446622 0)
(1.10563 0.051975 0)
(0.943206 0.0410266 0)
(0.217142 0.00140704 0)
(0.176703 -0.000627528 0)
(1.01948 -0.0354335 0)
(1.10576 -0.0413635 0)
(1.07803 -0.0363368 0)
(1.05252 -0.0302801 0)
(1.0353 -0.0243894 0)
(1.02342 -0.0185781 0)
(1.01559 -0.012564 0)
(1.01096 -0.00645321 0)
(1.0089 -0.000204287 0)
(1.0094 0.00595745 0)
(1.01247 0.0118716 0)
(1.01846 0.0176194 0)
(1.02805 0.0231666 0)
(1.04221 0.0286997 0)
(1.06303 0.0344648 0)
(1.09382 0.0403353 0)
(1.09436 0.0418406 0)
(0.830037 0.0228029 0)
(0.175541 0.000649685 0)
(0.154825 -0.000461198 0)
(0.958352 -0.0256525 0)
(1.1045 -0.0350503 0)
(1.08817 -0.0325852 0)
(1.06137 -0.0280627 0)
(1.04333 -0.0230815 0)
(1.03092 -0.0177585 0)
(1.02229 -0.0121951 0)
(1.01671 -0.00626428 0)
(1.01402 0.000204518 0)
(1.01462 0.0066684 0)
(1.01839 0.0125379 0)
(1.0252 0.0178284 0)
(1.03532 0.0227993 0)
(1.05002 0.0276024 0)
(1.07195 0.0320214 0)
(1.10092 0.0358779 0)
(1.06954 0.034057 0)
(0.742238 0.0144871 0)
(0.153081 0.000486076 0)
(0.140177 -0.000332913 0)
(0.901458 -0.0192797 0)
(1.09697 -0.0301381 0)
(1.09635 -0.0292377 0)
(1.06912 -0.0254354 0)
(1.05029 -0.0213269 0)
(1.03729 -0.0166014 0)
(1.02827 -0.011325 0)
(1.02229 -0.0055765 0)
(1.01925 0.00079815 0)
(1.01982 0.00717576 0)
(1.02378 0.0128217 0)
(1.03083 0.0177718 0)
(1.04132 0.0221966 0)
(1.05664 0.0261173 0)
(1.07942 0.0296058 0)
(1.10317 0.0322935 0)
(1.03763 0.0282449 0)
(0.675249 0.0103497 0)
(0.137719 0.000362471 0)
(0.129482 -0.00025125 0)
(0.851728 -0.0148747 0)
(1.08471 -0.0260202 0)
(1.10208 -0.0263359 0)
(1.07599 -0.0229907 0)
(1.05665 -0.0193085 0)
(1.04323 -0.0150809 0)
(1.03383 -0.0101855 0)
(1.02756 -0.00465492 0)
(1.02429 0.00153723 0)
(1.02472 0.00769901 0)
(1.02868 0.0130598 0)
(1.03588 0.0175819 0)
(1.04664 0.0213965 0)
(1.06233 0.0247157 0)
(1.08556 0.0277208 0)
(1.10232 0.0295008 0)
(1.00277 0.0237334 0)
(0.622988 0.00795733 0)
(0.12615 0.000287178 0)
(0.121345 -0.000192198 0)
(0.809402 -0.0116811 0)
(1.06951 -0.0224073 0)
(1.10567 -0.0236798 0)
(1.08229 -0.0207827 0)
(1.06249 -0.0173236 0)
(1.04879 -0.013374 0)
(1.03913 -0.0087953 0)
(1.03258 -0.00353427 0)
(1.02906 0.00242854 0)
(1.02931 0.0083229 0)
(1.03322 0.0133291 0)
(1.04047 0.0173886 0)
(1.05132 0.0207228 0)
(1.06724 0.0236431 0)
(1.09085 0.0263259 0)
(1.09858 0.0271903 0)
(0.96744 0.0201946 0)
(0.580957 0.00640167 0)
(0.116951 0.000235833 0)
(0.115054 -0.000147314 0)
(0.773764 -0.00928829 0)
(1.0528 -0.0192225 0)
(1.10809 -0.0212202 0)
(1.08821 -0.0187001 0)
(1.068 -0.0153978 0)
(1.05404 -0.0116118 0)
(1.04419 -0.00722987 0)
(1.0374 -0.00220277 0)
(1.0336 0.003503 0)
(1.03362 0.00908812 0)
(1.03739 0.0137145 0)
(1.04457 0.0173658 0)
(1.05542 0.0203171 0)
(1.07157 0.0229053 0)
(1.09486 0.0252351 0)
(1.09198 0.0252866 0)
(0.932986 0.017465 0)
(0.546142 0.00533867 0)
(0.109367 0.000200265 0)
(0.110159 -0.000111778 0)
(0.74389 -0.00743172 0)
(1.03564 -0.0163938 0)
(1.10957 -0.0189027 0)
(1.09384 -0.0166905 0)
(1.07333 -0.0134839 0)
(1.05909 -0.00979147 0)
(1.04904 -0.00552835 0)
(1.04203 -0.000666308 0)
(1.03794 0.00479587 0)
(1.03765 0.0100612 0)
(1.04118 0.0143273 0)
(1.04822 0.0176147 0)
(1.05904 0.0202142 0)
(1.0754 0.022509 0)
(1.09758 0.0244586 0)
(1.08291 0.0237369 0)
(0.899985 0.0153962 0)
(0.516467 0.00460023 0)
(0.102903 0.000175894 0)
(0.106371 -8.23589e-05 0)
(0.718962 -0.00593457 0)
(1.01887 -0.0138503 0)
(1.11022 -0.0166582 0)
(1.09937 -0.0147225 0)
(1.07859 -0.0115297 0)
(1.06404 -0.00786811 0)
(1.05376 -0.00366479 0)
(1.04649 0.00109071 0)
(1.04206 0.00634998 0)
(1.0414 0.0113168 0)
(1.04461 0.0152415 0)
(1.05146 0.0181794 0)
(1.06224 0.0204385 0)
(1.07879 0.0224693 0)
(1.09892 0.0240106 0)
(1.07174 0.0225383 0)
(0.868554 0.0138755 0)
(0.490457 0.00409481 0)
(0.0972076 0.000160188 0)
(0.103498 -5.68589e-05 0)
(0.698337 -0.00467847 0)
(1.00311 -0.0115256 0)
(1.11021 -0.01445 0)
(1.10475 -0.0127113 0)
(1.08384 -0.009484 0)
(1.06897 -0.00579436 0)
(1.05842 -0.00158785 0)
(1.05083 0.00311241 0)
(1.046 0.00822028 0)
(1.04488 0.0129236 0)
(1.04771 0.0165236 0)
(1.05433 0.0191166 0)
(1.06503 0.0210411 0)
(1.08172 0.0228116 0)
(1.09923 0.0239518 0)
(1.05875 0.0217074 0)
(0.838528 0.0128153 0)
(0.467004 0.00376587 0)
(0.0920173 0.000151299 0)
(0.101419 -3.33352e-05 0)
(0.681544 -0.00357502 0)
(0.988815 -0.00934944 0)
(1.10974 -0.0121928 0)
(1.10995 -0.0105678 0)
(1.08918 -0.00728448 0)
(1.07396 -0.0035058 0)
(1.06308 0.000769185 0)
(1.05511 0.00547042 0)
(1.04978 0.0104773 0)
(1.0481 0.0149439 0)
(1.05048 0.0182305 0)
(1.05682 0.020479 0)
(1.06741 0.0220652 0)
(1.08415 0.0235652 0)
(1.09851 0.0242776 0)
(1.04407 0.0212513 0)
(0.809572 0.0121418 0)
(0.44524 0.00357438 0)
(0.0871262 0.000147716 0)
(0.100073 -1.00954e-05 0)
(0.668278 -0.00255488 0)
(0.97636 -0.00724803 0)
(1.10913 -0.00982739 0)
(1.11512 -0.00823124 0)
(1.09469 -0.00485551 0)
(1.07908 -0.000923612 0)
(1.06782 0.00348182 0)
(1.05938 0.00825096 0)
(1.05344 0.013208 0)
(1.05109 0.017464 0)
(1.05292 0.0204441 0)
(1.05892 0.0223408 0)
(1.06936 0.0235695 0)
(1.08613 0.0248018 0)
(1.09655 0.0250539 0)
(1.02776 0.0211666 0)
(0.781245 0.0118043 0)
(0.424453 0.00349591 0)
(0.0823682 0.00014849 0)
(0.0994407 1.50012e-05 0)
(0.658382 -0.00156387 0)
(0.966056 -0.00514955 0)
(1.10871 -0.00728989 0)
(1.12038 -0.0056306 0)
(1.10045 -0.00211317 0)
(1.08441 0.00204032 0)
(1.0727 0.00664599 0)
(1.06369 0.0115544 0)
(1.057 0.0165171 0)
(1.05384 0.0205891 0)
(1.05502 0.0232601 0)
(1.06061 0.0247842 0)
(1.07089 0.0256464 0)
(1.08756 0.0265684 0)
(1.09331 0.0262841 0)
(1.00976 0.0214872 0)
(0.753059 0.0117728 0)
(0.404047 0.00351504 0)
(0.0776064 0.000153048 0)
(0.0995414 3.54757e-05 0)
(0.651822 -0.000557881 0)
(0.958207 -0.00298403 0)
(1.10883 -0.0045081 0)
(1.1259 -0.00267593 0)
(1.10657 0.00104614 0)
(1.09006 0.00549665 0)
(1.0778 0.0103829 0)
(1.0681 0.0155025 0)
(1.0605 0.0205229 0)
(1.05638 0.0244296 0)
(1.05677 0.0267872 0)
(1.06188 0.0279319 0)
(1.07194 0.0284021 0)
(1.08822 0.0289517 0)
(1.0885 0.0280251 0)
(0.989905 0.0222501 0)
(0.724461 0.0120339 0)
(0.383477 0.00362324 0)
(0.0727172 0.000160977 0)
(0.100431 7.13742e-05 0)
(0.648694 0.000480978 0)
(0.953135 -0.000675021 0)
(1.10985 -0.0013998 0)
(1.13188 0.000727483 0)
(1.11315 0.00473374 0)
(1.09613 0.00957294 0)
(1.08321 0.0148297 0)
(1.07266 0.0202391 0)
(1.06398 0.0253707 0)
(1.05868 0.029126 0)
(1.05814 0.0311538 0)
(1.06268 0.0319048 0)
(1.07248 0.0319565 0)
(1.08798 0.0320799 0)
(1.08186 0.0303738 0)
(0.967889 0.0234842 0)
(0.694838 0.0125763 0)
(0.362229 0.00381191 0)
(0.0675899 0.000171628 0)
(0.102297 0.000105128 0)
(0.649377 0.00165569 0)
(0.951199 0.00187174 0)
(1.1122 0.00214893 0)
(1.13854 0.00466638 0)
(1.12034 0.00910556 0)
(1.10273 0.0144352 0)
(1.08902 0.0201615 0)
(1.07744 0.025946 0)
(1.06744 0.0312407 0)
(1.06075 0.034849 0)
(1.05911 0.0365018 0)
(1.06297 0.0368402 0)
(1.07242 0.0364396 0)
(1.08657 0.0360769 0)
(1.07311 0.0334188 0)
(0.943291 0.0252271 0)
(0.663536 0.013395 0)
(0.339824 0.00407407 0)
(0.0621295 0.000184431 0)
(0.105207 0.0001539 0)
(0.65432 0.0031233 0)
(0.952879 0.00480704 0)
(1.11638 0.00624412 0)
(1.14609 0.00932483 0)
(1.12831 0.0143438 0)
(1.11001 0.0202837 0)
(1.09534 0.0265926 0)
(1.08249 0.0328393 0)
(1.07089 0.0383365 0)
(1.06255 0.0417756 0)
(1.05964 0.0430109 0)
(1.06267 0.0429049 0)
(1.07172 0.0420003 0)
(1.08382 0.0411218 0)
(1.06186 0.0372694 0)
(0.915541 0.0275241 0)
(0.629841 0.0144826 0)
(0.315803 0.00440066 0)
(0.0562568 0.000198467 0)
(0.109446 0.00021722 0)
(0.66392 0.00482065 0)
(0.958625 0.00826616 0)
(1.12286 0.0110568 0)
(1.15482 0.0148945 0)
(1.13727 0.0206719 0)
(1.11813 0.0273693 0)
(1.10227 0.0343912 0)
(1.08786 0.041184 0)
(1.07434 0.0469022 0)
(1.06406 0.0501246 0)
(1.05966 0.050874 0)
(1.06172 0.0502833 0)
(1.07028 0.0488032 0)
(1.07984 0.0473273 0)
(1.04759 0.0420374 0)
(0.883914 0.0303919 0)
(0.592989 0.0158149 0)
(0.28975 0.00477472 0)
(0.0499163 0.000212318 0)
(0.115352 0.000302023 0)
(0.678956 0.00692694 0)
(0.969072 0.0124496 0)
(1.13224 0.0168336 0)
(1.16511 0.0216503 0)
(1.14748 0.0284213 0)
(1.12729 0.0360511 0)
(1.10993 0.0439172 0)
(1.09359 0.0513167 0)
(1.07774 0.0572252 0)
(1.06518 0.0601321 0)
(1.059 0.0602791 0)
(1.06004 0.0591539 0)
(1.06809 0.0570619 0)
(1.07433 0.0548845 0)
(1.02962 0.0477986 0)
(0.847519 0.0338269 0)
(0.552195 0.0173417 0)
(0.261328 0.00516938 0)
(0.0430916 0.000224177 0)
(0.123431 0.000424636 0)
(0.700394 0.00968928 0)
(0.985101 0.0176719 0)
(1.14516 0.0239213 0)
(1.17745 0.0299875 0)
(1.15926 0.0380509 0)
(1.13768 0.0468045 0)
(1.11839 0.0556303 0)
(1.09963 0.0636408 0)
(1.081 0.0696288 0)
(1.06582 0.072057 0)
(1.05763 0.0714638 0)
(1.05755 0.0696697 0)
(1.06505 0.0668878 0)
(1.06692 0.0637874 0)
(1.00706 0.0546069 0)
(0.805314 0.037761 0)
(0.506719 0.0189696 0)
(0.230357 0.0055429 0)
(0.0358232 0.000231548 0)
(0.134414 0.00059818 0)
(0.729459 0.0134774 0)
(1.00787 0.0244048 0)
(1.16242 0.0328704 0)
(1.19244 0.0405031 0)
(1.17296 0.0502294 0)
(1.14947 0.0602961 0)
(1.12766 0.0701335 0)
(1.10589 0.0786424 0)
(1.08396 0.0844673 0)
(1.0658 0.0861463 0)
(1.05545 0.0846274 0)
(1.05416 0.0820766 0)
(1.06081 0.0784212 0)
(1.05689 0.0742312 0)
(0.978749 0.0624246 0)
(0.756147 0.0420356 0)
(0.455986 0.0205466 0)
(0.196902 0.00583795 0)
(0.0282271 0.000231578 0)
(0.149564 0.000877708 0)
(0.768195 0.0189036 0)
(1.03905 0.0334422 0)
(1.18494 0.0446346 0)
(1.21086 0.0543959 0)
(1.18889 0.06601 0)
(1.1627 0.0774965 0)
(1.13757 0.088214 0)
(1.1121 0.096889 0)
(1.08634 0.102101 0)
(1.06491 0.102622 0)
(1.05228 0.0999083 0)
(1.04976 0.0964742 0)
(1.05506 0.0920458 0)
(1.04336 0.0862828 0)
(0.943206 0.0710543 0)
(0.69888 0.0463579 0)
(0.399788 0.0218516 0)
(0.161407 0.00598289 0)
(0.0205136 0.000221276 0)
(0.171105 0.0013613 0)
(0.819896 0.0271417 0)
(1.08129 0.0463678 0)
(1.21389 0.0610917 0)
(1.23327 0.0736322 0)
(1.20717 0.087012 0)
(1.17712 0.0997163 0)
(1.14771 0.110801 0)
(1.1178 0.118969 0)
(1.08774 0.122862 0)
(1.06285 0.121658 0)
(1.04795 0.11741 0)
(1.04424 0.112901 0)
(1.0478 0.107618 0)
(1.02514 0.0998078 0)
(0.898601 0.0800813 0)
(0.632708 0.0502739 0)
(0.338664 0.0226161 0)
(0.124854 0.00590597 0)
(0.0130016 0.000197659 0)
(0.202477 0.00243618 0)
(0.890344 0.0409275 0)
(1.13813 0.0670535 0)
(1.24967 0.0857949 0)
(1.25944 0.100986 0)
(1.22715 0.11558 0)
(1.1919 0.128539 0)
(1.15724 0.138863 0)
(1.12229 0.145411 0)
(1.08763 0.146981 0)
(1.05929 0.143307 0)
(1.04228 0.137128 0)
(1.03747 0.131349 0)
(1.03848 0.125039 0)
(1.00053 0.114398 0)
(0.842797 0.0887439 0)
(0.557821 0.0532031 0)
(0.274638 0.0226548 0)
(0.0891116 0.00559997 0)
(0.00620515 0.000161874 0)
(0.245211 0.008759 4.62546e-20)
(0.983639 0.068455 4.04177e-20)
(1.20735 0.101733 -1.41373e-20)
(1.28922 0.122316 0)
(1.28655 0.140075 -3.61756e-34)
(1.24669 0.154057 5.2904e-21)
(1.20549 0.165493 -9.53163e-21)
(1.16507 0.173631 0)
(1.12474 0.177464 1.9601e-34)
(1.08526 0.175899 -1.18058e-20)
(1.0533 0.169287 0)
(1.0341 0.161045 -1.40405e-20)
(1.02853 0.154277 -4.1441e-20)
(1.0258 0.147659 -1.95847e-20)
(0.965154 0.132491 -5.89706e-21)
(0.769255 0.0983556 -3.50422e-21)
(0.469015 0.0553649 0)
(0.206268 0.0223206 2.44826e-21)
(0.0542128 0.00531653 2.89011e-21)
(8.84034e-05 0.000117307 5.21446e-20)
(0.275154 0.0244452 3.3333e-20)
(1.06068 0.111494 5.48351e-22)
(1.26442 0.151165 3.74546e-21)
(1.32465 0.171955 0)
(1.31036 0.189475 -1.82595e-20)
(1.26351 0.201287 -2.07712e-20)
(1.21641 0.210397 -9.59396e-21)
(1.17019 0.216052 -3.41681e-20)
(1.1243 0.217119 0)
(1.07965 0.212491 5.01611e-20)
(1.04368 0.20306 4.97646e-20)
(1.02213 0.192817 1.47763e-20)
(1.01439 0.184432 5.39579e-20)
(1.00253 0.17574 7.5895e-20)
(0.908825 0.153346 0)
(0.668956 0.107897 1.06961e-19)
(0.364421 0.0568199 1.53276e-19)
(0.135216 0.0212123 1.70136e-19)
(0.0191499 0.00382225 -1.94452e-19)
(-0.00612138 -0.00051235 -3.66531e-21)
(0.276184 0.0404688 0)
(1.1094 0.167241 5.74413e-21)
(1.30292 0.211968 0)
(1.35221 0.23218 -2.34404e-20)
(1.32909 0.246571 0)
(1.27635 0.254489 -4.06095e-20)
(1.22376 0.259845 1.95346e-20)
(1.17205 0.261894 -6.85615e-20)
(1.1209 0.259311 -1.58949e-21)
(1.07136 0.250944 2.58773e-20)
(1.03164 0.238212 1.09206e-19)
(1.00787 0.225601 -2.00807e-22)
(0.997732 0.215336 -3.91365e-20)
(0.976723 0.203517 -7.12794e-20)
(0.857552 0.172889 8.43296e-20)
(0.596088 0.116047 -1.49234e-19)
(0.30212 0.0580079 -1.9666e-20)
(0.0973916 0.019794 0)
(0.000676301 0.00151148 -1.45787e-23)
(-0.00966671 -0.00136517 0)
(0.269611 0.05431 7.13606e-20)
(1.13566 0.226262 -3.53881e-20)
(1.32667 0.277233 -2.79217e-20)
(1.37052 0.297558 1.09616e-20)
(1.34129 0.307957 -1.84608e-20)
(1.28415 0.311311 8.48461e-20)
(1.22703 0.312221 4.0633e-20)
(1.17061 0.309997 0)
(1.11478 0.30318 -1.2932e-19)
(1.06077 0.290561 0)
(1.01758 0.274123 -5.71664e-20)
(0.991676 0.258815 -7.06658e-20)
(0.97916 0.246281 -4.25114e-20)
(0.950064 0.230535 -5.16431e-20)
(0.815605 0.19171 0)
(0.548271 0.125104 0)
(0.267976 0.0608103 -1.27727e-19)
(0.0767189 0.0187018 2.51976e-20)
(-0.0110035 -0.00119324 -1.47592e-20)
(-0.0124791 -0.00243421 -1.72662e-20)
(0.261716 0.0665024 -2.55014e-20)
(1.14707 0.285071 0)
(1.33967 0.343365 5.52808e-20)
(1.38054 0.364293 3.03924e-20)
(1.34707 0.370784 4.28717e-20)
(1.28673 0.369541 0)
(1.22606 0.365876 3.9553e-20)
(1.16576 0.359167 7.5552e-20)
(1.10589 0.347868 6.60798e-20)
(1.0479 0.330722 1.21512e-19)
(1.0015 0.310271 0)
(0.973523 0.291984 -1.52101e-19)
(0.958683 0.276832 -9.1616e-20)
(0.923351 0.257006 -5.41679e-20)
(0.781709 0.21077 3.31192e-19)
(0.518264 0.135805 3.92989e-20)
(0.250596 0.0653236 1.84494e-19)
(0.0666405 0.0182434 -8.71601e-19)
(-0.0178965 -0.00390557 5.15252e-19)
(-0.0146937 -0.00362327 -6.21097e-19)
(0.254035 0.0774596 -8.43102e-21)
(1.1489 0.341781 4.50966e-21)
(1.34483 0.408435 -5.54629e-21)
(1.38387 0.430491 -2.9462e-20)
(1.34736 0.433315 -3.54104e-20)
(1.28464 0.427649 1.80119e-21)
(1.22117 0.41955 -4.28444e-20)
(1.15768 0.408411 7.79333e-20)
(1.09437 0.392624 -1.42088e-19)
(1.03283 0.37088 0)
(0.983439 0.346295 -6.88526e-20)
(0.95338 0.324861 -1.58308e-21)
(0.936279 0.306985 -1.00188e-19)
(0.896617 0.283109 0)
(0.753764 0.23037 -7.16435e-20)
(0.499549 0.148273 -1.69678e-19)
(0.24371 0.07171 4.51296e-19)
(0.0647043 0.0190916 -4.44663e-19)
(-0.0201694 -0.00596865 6.30193e-19)
(-0.0159769 -0.00474252 -6.54902e-19)
(0.247447 0.0875282 -4.22746e-22)
(1.14471 0.395719 -3.3402e-22)
(1.34431 0.471444 -1.30664e-20)
(1.38194 0.494945 1.11483e-20)
(1.34324 0.494503 -1.76901e-20)
(1.27873 0.484698 0)
(1.21301 0.472411 -3.9586e-20)
(1.14685 0.457031 -8.15164e-20)
(1.08054 0.436893 -7.37718e-20)
(1.0158 0.410625 0)
(0.963612 0.38191 -7.13485e-20)
(0.931482 0.357283 -8.84491e-20)
(0.912248 0.336629 1.08642e-19)
(0.86969 0.30888 -6.58689e-20)
(0.729243 0.250705 -3.12665e-19)
(0.486771 0.162347 1.8514e-19)
(0.242831 0.079672 5.48239e-20)
(0.0676351 0.0213858 0)
(-0.0186588 -0.00692877 -6.09548e-19)
(-0.0162227 -0.00558108 -2.23663e-20)
(0.24208 0.0970225 2.07214e-21)
(1.13685 0.446698 -2.45137e-21)
(1.33962 0.531924 5.63661e-21)
(1.37602 0.556937 4.08375e-20)
(1.33566 0.553683 -6.40017e-20)
(1.26978 0.540106 7.85969e-20)
(1.20224 0.523931 8.53035e-20)
(1.13381 0.504571 -1.30244e-19)
(1.06484 0.480302 4.56977e-20)
(0.997184 0.449668 -2.98576e-19)
(0.942358 0.4169 -8.07645e-20)
(0.9082 0.3891 0)
(0.886902 0.365695 1.17942e-19)
(0.842317 0.334411 1.4138e-19)
(0.706228 0.271285 1.68632e-19)
(0.476248 0.177389 -2.01425e-19)
(0.243697 0.0889398 -5.94474e-20)
(0.0729342 0.0251977 6.99238e-20)
(-0.0145531 -0.00660449 0)
(-0.01556 -0.0060606 -4.86246e-20)
(0.23787 0.10611 -4.50242e-20)
(1.12699 0.494829 2.21214e-20)
(1.33202 0.589671 -4.35138e-21)
(1.36714 0.616159 2.38029e-20)
(1.32544 0.610463 -2.80442e-20)
(1.25852 0.593481 -4.11063e-21)
(1.18948 0.57377 -9.34035e-20)
(1.11909 0.550744 -4.71737e-20)
(1.04776 0.522605 -1.28286e-19)
(0.977383 0.487823 3.27126e-22)
(0.920023 0.451131 -2.53074e-19)
(0.88388 0.420241 2.13757e-19)
(0.860666 0.394197 -1.29796e-19)
(0.81461 0.359401 1.55982e-19)
(0.683571 0.291665 0)
(0.465582 0.192923 -1.09729e-19)
(0.244588 0.0988409 3.04886e-22)
(0.0788873 0.030071 -3.05706e-19)
(-0.00918107 -0.0052919 -4.48425e-20)
(-0.0143247 -0.00622506 0)
(0.234703 0.11494 0)
(1.11612 0.54034 2.70719e-20)
(1.32245 0.645109 2.24655e-21)
(1.35611 0.672464 -2.07009e-20)
(1.31328 0.664636 -3.66891e-20)
(1.24554 0.644611 0)
(1.17527 0.621713 -4.20276e-20)
(1.10318 0.595348 -1.04097e-21)
(1.02968 0.563649 2.75182e-19)
(0.95673 0.524966 -4.10299e-20)
(0.896923 0.484507 -1.82883e-19)
(0.858869 0.450618 1.11196e-19)
(0.833832 0.421943 -2.23873e-21)
(0.786523 0.383731 1.66254e-19)
(0.660151 0.311425 1.01862e-19)
(0.45334 0.208266 -2.37014e-19)
(0.243452 0.108852 2.80343e-19)
(0.0837967 0.0355583 8.30633e-20)
(-0.00361401 -0.0031945 3.42128e-19)
(-0.0127251 -0.00608774 -9.13813e-19)
(0.232505 0.123669 -1.81051e-20)
(1.10497 0.58341 2.24744e-20)
(1.3115 0.697556 -1.34702e-20)
(1.34356 0.725834 1.403e-20)
(1.29974 0.716109 0)
(1.23137 0.693371 -3.52081e-20)
(1.16006 0.667633 1.41971e-19)
(1.08646 0.638269 1.03504e-19)
(1.01095 0.603328 0)
(0.935535 0.56102 -5.9208e-19)
(0.873334 0.516965 4.95559e-19)
(0.833419 0.480129 0)
(0.806664 0.448811 1.52109e-19)
(0.758177 0.407108 -2.22437e-21)
(0.635611 0.330226 -3.27531e-19)
(0.439256 0.222541 1.27844e-19)
(0.239742 0.118373 0)
(0.0867124 0.0410071 4.49024e-19)
(0.00108867 -0.000855959 0)
(-0.0111074 -0.00578436 -4.33287e-19)
(0.231136 0.132363 2.26327e-20)
(1.09394 0.624312 3.18951e-20)
(1.29981 0.747076 -1.25649e-20)
(1.32997 0.776291 0)
(1.2853 0.764867 -2.97782e-20)
(1.21643 0.739728 0)
(1.14425 0.711468 -1.39552e-19)
(1.06929 0.679437 -4.78222e-20)
(0.991906 0.641591 4.8555e-20)
(0.914076 0.595952 -2.93125e-19)
(0.849468 0.548467 5.1195e-20)
(0.807709 0.508687 0)
(0.779308 0.474663 -3.25381e-19)
(0.729575 0.429311 2.13203e-21)
(0.609852 0.347634 0)
(0.423044 0.235309 9.80564e-22)
(0.233226 0.126706 4.11302e-19)
(0.0869638 0.0457371 -3.88127e-19)
(0.00426981 0.00124088 1.14543e-19)
(-0.00970293 -0.00542311 0)
(0.230277 0.140931 0)
(1.08334 0.66313 4.0139e-20)
(1.28754 0.793836 2.2679e-20)
(1.31577 0.823877 -2.55255e-21)
(1.27033 0.81094 -8.68914e-21)
(1.20107 0.783682 -7.96847e-20)
(1.12815 0.753204 5.26643e-20)
(1.05197 0.718828 -5.68145e-20)
(0.9728 0.678406 2.17289e-19)
(0.892574 0.629756 -4.69558e-19)
(0.825499 0.579004 -4.19464e-21)
(0.781881 0.536275 -1.42485e-19)
(0.75188 0.499389 5.28621e-19)
(0.700857 0.450075 -2.57277e-21)
(0.583346 0.363218 -2.54969e-19)
(0.404817 0.246103 -4.52243e-19)
(0.224238 0.133328 0)
(0.0848388 0.0491614 0)
(0.00582016 0.00267975 1.23717e-19)
(-0.00863594 -0.00514849 -7.25542e-20)
(0.230138 0.149499 3.37396e-20)
(1.07337 0.699763 -9.29332e-20)
(1.27497 0.837988 -2.43616e-20)
(1.3013 0.868663 0)
(1.25512 0.854387 -1.50421e-21)
(1.18557 0.825264 -7.18584e-20)
(1.11203 0.792852 1.26563e-19)
(1.03473 0.756437 2.2325e-19)
(0.953863 0.713773 2.82693e-19)
(0.871241 0.662446 -3.8412e-19)
(0.801593 0.608617 -4.2776e-19)
(0.756013 0.562917 3.81505e-19)
(0.724378 0.5229 0)
(0.671946 0.469084 -1.16238e-19)
(0.556156 0.376553 -2.75612e-19)
(0.384995 0.254444 -3.25448e-19)
(0.213006 0.137887 -3.83839e-19)
(0.0806947 0.051035 1.13346e-19)
(0.00596859 0.00332197 -6.66248e-20)
(-0.00790184 -0.00500024 3.1171e-22)
(0.230145 0.157982 0)
(1.06413 0.734554 0)
(1.26238 0.87961 2.46932e-21)
(1.28677 0.91076 0)
(1.23993 0.895301 1.60255e-20)
(1.17016 0.864535 4.78726e-20)
(1.09611 0.830442 0)
(1.01779 0.79228 2.64326e-20)
(0.935297 0.747702 4.72504e-19)
(0.850267 0.69405 -8.84321e-19)
(0.777884 0.637378 0)
(0.730152 0.58867 -2.46076e-19)
(0.696738 0.545125 -3.01851e-21)
(0.642792 0.486105 -2.26387e-21)
(0.528404 0.387345 2.95418e-19)
(0.363662 0.260057 -1.99817e-23)
(0.200083 0.14006 -8.27229e-19)
(0.0749077 0.0513368 2.43895e-19)
(0.0050623 0.00322461 7.2077e-20)
(-0.00741843 -0.00495041 0)
(0.230285 0.16634 -1.399e-19)
(1.05537 0.767699 -6.56996e-20)
(1.24986 0.918794 -7.98157e-20)
(1.27235 0.950313 5.95684e-20)
(1.22492 0.933757 1.34933e-20)
(1.15501 0.901559 0)
(1.08053 0.866022 7.65087e-20)
(1.00131 0.826384 -5.91679e-20)
(0.91726 0.780212 3.92805e-21)
(0.829817 0.724605 6.53045e-20)
(0.754506 0.665376 5.55642e-19)
(0.704324 0.613626 -8.64059e-20)
(0.668868 0.56607 -3.26782e-19)
(0.613253 0.500947 -1.35566e-19)
(0.50015 0.395242 1.60179e-19)
(0.341471 0.262648 1.41374e-22)
(0.186022 0.139762 2.22828e-19)
(0.0680528 0.0500914 -5.24963e-19)
(0.00349606 0.00254023 6.20374e-19)
(-0.00708718 -0.00496252 9.04653e-20)
(0.230388 0.174446 5.38436e-20)
(1.04711 0.799276 -3.74841e-20)
(1.23756 0.955645 6.25168e-21)
(1.25819 0.987455 4.3362e-20)
(1.21025 0.969868 3.85085e-21)
(1.14026 0.936412 -8.30936e-20)
(1.06545 0.899645 2.18425e-20)
(0.985401 0.858772 -2.46857e-19)
(0.899891 0.811308 -5.22404e-19)
(0.810035 0.754126 -5.28547e-19)
(0.731604 0.692701 0)
(0.678556 0.637913 -3.80244e-19)
(0.640645 0.58583 4.71595e-19)
(0.58308 0.513454 0)
(0.47139 0.399793 -3.43406e-19)
(0.31919 0.261736 2.03771e-19)
(0.171964 0.136799 -2.39664e-19)
(0.0612934 0.0475592 -2.82456e-19)
(0.00179384 0.00149739 -4.99722e-19)
(-0.00687961 -0.0050281 -3.89669e-19)
(0.230844 0.18243 -6.16146e-20)
(1.03919 0.829281 4.01258e-20)
(1.22553 0.990236 8.95783e-20)
(1.24436 1.02227 6.66693e-20)
(1.19601 1.00373 -3.89236e-21)
(1.126 0.969182 -4.36463e-20)
(1.05095 0.931362 7.34175e-20)
(0.970172 0.889488 -2.53829e-19)
(0.883283 0.841016 -3.10086e-19)
(0.791049 0.782637 5.54548e-19)
(0.709301 0.719426 1.22422e-18)
(0.65291 0.661706 0)
(0.611942 0.604597 0)
(0.551901 0.523594 -1.56145e-19)
(0.44181 0.400514 0)
(0.297129 0.256378 4.37814e-19)
(0.159526 0.130308 5.15082e-19)
(0.0566938 0.0436023 0)
(0.00118678 0.00036422 0)
(-0.00674844 -0.00510963 4.18764e-19)
(0.231 0.189996 7.08767e-20)
(1.03164 0.857714 5.69367e-20)
(1.21384 1.0227 6.54621e-20)
(1.23094 1.0549 -6.79848e-20)
(1.18227 1.03545 -1.12329e-20)
(1.11231 0.999947 4.2682e-20)
(1.03709 0.961236 -1.00854e-19)
(0.95569 0.918561 -6.85033e-22)
(0.867524 0.869343 -5.1173e-21)
(0.77296 0.810143 -4.39439e-21)
(0.687743 0.745607 6.31376e-19)
(0.627493 0.685188 0)
(0.582675 0.622642 4.78939e-19)
(0.519266 0.531519 3.33881e-19)
(0.410643 0.397136 8.01515e-19)
(0.274882 0.245123 2.36008e-19)
(0.150344 0.117368 -2.77064e-19)
(0.059027 0.0347052 -1.62685e-19)
(0.00821579 -0.00204341 0)
(-0.00448039 -0.00444095 4.50022e-19)
(0.231493 0.197585 -1.61495e-19)
(1.02442 0.884666 0)
(1.20248 1.05308 7.90286e-20)
(1.21797 1.0854 -5.90516e-20)
(1.16909 1.06512 2.29475e-20)
(1.09922 1.02879 -4.14792e-20)
(1.02393 0.989325 1.94769e-19)
(0.941995 0.946026 -2.06427e-20)
(0.852661 0.896299 0)
(0.755853 0.836622 -6.13837e-19)
(0.667072 0.771265 -1.37557e-18)
(0.602454 0.708546 5.63801e-20)
(0.552863 0.640292 6.6267e-19)
(0.484826 0.537664 0)
(0.37661 0.390018 5.41519e-19)
(0.250073 0.226661 0)
(0.142177 0.0913528 0)
(0.0733439 0.00577727 -1.75837e-19)
(0.0451762 -0.01601 0)
(0.0265268 0.00988109 1.20628e-19)
(0.231643 0.204601 -1.81906e-19)
(1.01747 0.910486 0)
(1.19144 1.08159 1.33324e-19)
(1.2054 1.11401 0)
(1.15643 1.09303 -1.64261e-20)
(1.08668 1.05601 0)
(1.01141 1.01594 9.29256e-21)
(0.928991 0.972219 3.5111e-20)
(0.838571 0.92224 3.90717e-20)
(0.739557 0.862455 -6.74233e-19)
(0.647091 0.796837 4.1325e-20)
(0.577539 0.73244 4.54635e-19)
(0.522039 0.658377 6.47291e-19)
(0.447624 0.542663 8.71598e-20)
(0.337604 0.380497 4.2505e-19)
(0.217361 0.201868 0)
(0.122441 0.0475063 5.83445e-19)
(0.0670219 -0.0364306 -3.40432e-19)
(0.0414031 0.040646 3.96323e-19)
(-0.0690969 0.438474 -4.67161e-19)
(0.231801 0.211436 1.51499e-19)
(1.01054 0.934939 2.30979e-19)
(1.18062 1.10854 0)
(1.1931 1.14118 4.8997e-21)
(1.14409 1.11972 5.3391e-20)
(1.07442 1.08227 3.65844e-20)
(0.999201 1.04187 6.67145e-20)
(0.91626 0.998069 0)
(0.824712 0.948246 2.58716e-19)
(0.72339 0.888934 -3.51755e-20)
(0.626872 0.823799 0)
(0.551455 0.758542 0)
(0.488148 0.678331 5.81316e-19)
(0.405169 0.547023 -2.69682e-19)
(0.290276 0.370313 -4.3175e-19)
(0.171619 0.17396 0)
(0.0718462 0.0594081 2.94414e-19)
(0.00276128 0.436588 -3.39614e-19)
(0.0324696 1.89525 -1.8586e-19)
(0.0616138 2.81416 -2.37811e-19)
(0.231808 0.217471 -1.14771e-19)
(1.00384 0.958218 -2.98296e-19)
(1.17005 1.13393 8.02581e-20)
(1.18105 1.16678 6.22495e-20)
(1.13208 1.14499 0)
(1.06252 1.10729 1.45927e-20)
(0.987508 1.06681 8.94604e-20)
(0.903997 1.02315 -1.69973e-20)
(0.811359 0.973804 3.87452e-20)
(0.707744 0.915456 6.44131e-19)
(0.607025 0.85154 6.99018e-19)
(0.52512 0.786493 5.12232e-19)
(0.451993 0.70037 5.8643e-19)
(0.358929 0.549842 -6.36036e-19)
(0.239789 0.363217 -6.53767e-19)
(0.116402 0.21968 0)
(0.0413482 0.833554 0)
(0.0987574 2.55398 1.62621e-19)
(0.100098 3.20374 0)
(0.103504 3.38898 3.87018e-19)
(0.23435 0.223068 0)
(0.997959 0.980529 0)
(1.1595 1.1576 0)
(1.16907 1.19065 1.95173e-20)
(1.12007 1.16857 5.00869e-20)
(1.05075 1.13095 -2.19277e-21)
(0.97622 1.09066 5.69567e-20)
(0.892163 1.04735 -1.65794e-20)
(0.798481 0.998782 3.2366e-19)
(0.692654 0.941891 -8.77377e-21)
(0.587715 0.879988 1.38427e-18)
(0.498839 0.81614 -5.92392e-20)
(0.413752 0.725726 7.12264e-20)
(0.311436 0.548828 9.22637e-20)
(0.176304 0.374672 -5.82099e-21)
(0.0958227 0.961422 1.84155e-21)
(0.137052 2.72624 -8.64004e-19)
(0.144914 3.29329 -3.23093e-19)
(0.134482 3.42546 1.66623e-19)
(0.122508 3.44764 -1.85574e-19)
(0.153245 0.180546 6.87543e-20)
(0.986696 1.00461 0)
(1.14857 1.17974 -1.63685e-19)
(1.15764 1.21329 -1.73082e-19)
(1.10896 1.1913 1.29985e-19)
(1.04007 1.15393 7.55146e-21)
(0.965278 1.1135 -5.79083e-20)
(0.88087 1.07082 1.82759e-19)
(0.786253 1.02336 -2.65246e-19)
(0.678419 0.968422 0)
(0.569372 0.90937 6.8166e-19)
(0.473182 0.847371 -4.198e-19)
(0.375391 0.757254 0)
(0.256764 0.544458 8.6568e-20)
(0.139184 0.72531 2.06261e-19)
(0.152826 2.50077 -2.38526e-19)
(0.209028 3.32183 2.671e-19)
(0.189722 3.43722 1.43402e-19)
(0.158103 3.45903 1.603e-19)
(0.136744 3.46951 2.54548e-19)
(0.277039 0.260703 -1.24844e-19)
(0.97112 1.0141 0)
(1.13024 1.20496 1.80638e-19)
(1.14244 1.24367 1.93532e-19)
(1.09144 1.22428 -1.51249e-19)
(1.02178 1.18728 -3.09052e-20)
(0.946065 1.14849 4.99633e-20)
(0.86113 1.10703 1.44e-20)
(0.765165 1.06176 2.53357e-19)
(0.654496 1.01078 5.59229e-19)
(0.539968 0.958298 3.8488e-20)
(0.432382 0.90101 3.74891e-19)
(0.304469 0.791905 6.7292e-20)
(0.210544 0.904787 -8.54354e-20)
(0.227476 2.34826 -1.92711e-19)
(0.289209 3.32303 1.83789e-19)
(0.27209 3.46487 -2.02455e-19)
(0.236885 3.4873 -1.16402e-19)
(0.200057 3.51536 -9.76208e-20)
(0.148666 3.50997 -1.13877e-20)
(0.264832 0.257531 0)
(0.968577 1.03657 5.39033e-20)
(1.12176 1.22834 -3.77835e-20)
(1.13168 1.26727 -2.36944e-20)
(1.08051 1.24745 -1.07834e-19)
(1.0108 1.21067 3.53842e-20)
(0.934753 1.17202 -2.41949e-20)
(0.8496 1.13137 1.28909e-20)
(0.753078 1.08759 -2.64146e-19)
(0.641046 1.03951 -1.35787e-20)
(0.523558 0.992019 -1.23817e-18)
(0.410516 0.939047 5.36358e-20)
(0.284914 0.856514 -6.35612e-20)
(0.25371 1.47099 -7.90836e-20)
(0.329751 3.09856 1.81921e-20)
(0.3487 3.46162 1.00089e-22)
(0.308499 3.51834 2.92744e-19)
(0.27123 3.54585 1.42152e-19)
(0.222665 3.56979 -3.3997e-20)
(0.163743 3.56624 -5.31187e-20)
(0.248682 0.256035 1.37976e-19)
(0.964442 1.0617 3.69327e-19)
(1.11288 1.25382 -1.08438e-19)
(1.12035 1.29228 -8.92787e-20)
(1.06894 1.27196 0)
(0.999374 1.23524 8.11766e-20)
(0.923309 1.19682 -2.00928e-20)
(0.83822 1.15697 1.12636e-20)
(0.741462 1.11479 -2.95198e-20)
(0.628603 1.0699 -5.07738e-19)
(0.509007 1.02776 -5.72426e-19)
(0.392154 0.978354 -4.39003e-19)
(0.286262 0.985741 -4.83094e-19)
(0.324504 2.19726 4.97625e-19)
(0.417873 3.37068 4.14648e-19)
(0.393722 3.51876 0)
(0.348388 3.5648 0)
(0.310341 3.60648 -2.64876e-20)
(0.259571 3.66713 0)
(0.176559 3.64361 -2.63297e-20)
(0.238057 0.257924 -2.08156e-19)
(0.958387 1.08791 -3.15505e-19)
(1.10256 1.28047 0)
(1.10763 1.318 5.87801e-21)
(1.05608 1.29706 -1.22889e-19)
(0.986812 1.26029 1.41605e-19)
(0.911066 1.22215 -4.23004e-21)
(0.826247 1.183 6.19292e-21)
(0.729493 1.14236 -1.868e-19)
(0.616223 1.10066 2.5362e-20)
(0.495473 1.06399 0)
(0.373332 1.01906 0)
(0.307696 1.2436 -4.41456e-19)
(0.409519 2.87808 1.79304e-19)
(0.490547 3.47779 2.28131e-19)
(0.441476 3.55125 0)