/*--------------------------------*- C++ -*----------------------------------*\
  =========                 |
  \\      /  F ield         | OpenFOAM: The Open Source CFD Toolbox
   \\    /   O peration     | Website:  https://openfoam.org
    \\  /    A nd           | Version:  10
     \\/     M anipulation  |
\*---------------------------------------------------------------------------*/
FoamFile
{
    format      ascii;
    class       volScalarField;
    location    "38";
    object      p;
}
// * * * * * * * * * * * * * * * * * * * * * * * * * * * * * * * * * * * * * //

dimensions      [0 2 -2 0 0 0 0];

internalField   nonuniform List<scalar> 
8800
(
0.989181
0.941391
0.902697
0.873696
0.852823
0.837977
0.827359
0.819853
0.814996
0.812888
0.814093
0.818233
0.824837
0.83412
0.846877
0.864595
0.889362
0.923295
0.965838
1.02454
0.820441
0.828119
0.835583
0.838888
0.837377
0.832287
0.825785
0.819685
0.814927
0.812037
0.8117
0.814143
0.818581
0.824489
0.83123
0.837489
0.841115
0.840371
0.83494
0.826244
0.798862
0.805021
0.809143
0.812078
0.814116
0.814704
0.813575
0.811441
0.809382
0.808414
0.809309
0.81163
0.814381
0.816524
0.817103
0.815882
0.813523
0.810118
0.805554
0.801792
0.793088
0.795736
0.798481
0.800875
0.802497
0.80364
0.804355
0.804437
0.804093
0.803977
0.804654
0.805756
0.806539
0.806558
0.805914
0.804795
0.802957
0.80037
0.797958
0.796454
0.787755
0.789178
0.79095
0.792972
0.794741
0.796061
0.79702
0.797777
0.798335
0.798823
0.799386
0.7998
0.799831
0.799487
0.798746
0.797461
0.795736
0.793866
0.792548
0.791717
0.782741
0.78366
0.784895
0.78645
0.788066
0.789568
0.790821
0.791841
0.792739
0.793542
0.794125
0.794353
0.794226
0.793716
0.792777
0.791529
0.790162
0.788873
0.788037
0.787487
0.777914
0.778583
0.779539
0.78083
0.782222
0.783656
0.785059
0.786329
0.787451
0.788451
0.789143
0.789386
0.789193
0.788591
0.787708
0.786697
0.785632
0.784671
0.784071
0.783667
0.773232
0.773747
0.774525
0.775645
0.776904
0.778252
0.779659
0.781073
0.782414
0.783622
0.78447
0.784783
0.784616
0.784109
0.783405
0.782596
0.781752
0.781021
0.78057
0.780256
0.768627
0.769036
0.769688
0.770685
0.771874
0.773173
0.774573
0.776061
0.77758
0.779024
0.780075
0.780533
0.780518
0.780194
0.77968
0.779054
0.778392
0.777837
0.777494
0.777242
0.764024
0.764356
0.764919
0.765839
0.766979
0.768259
0.769685
0.771252
0.77293
0.774626
0.775943
0.776646
0.776862
0.776748
0.776427
0.77599
0.775493
0.775083
0.774822
0.774614
0.75934
0.759613
0.760116
0.760992
0.762116
0.763418
0.764907
0.766593
0.768466
0.770447
0.772107
0.773131
0.773624
0.773747
0.773627
0.773371
0.77303
0.772742
0.772547
0.772371
0.754505
0.754731
0.755195
0.756058
0.757205
0.758572
0.760169
0.76203
0.764161
0.766498
0.768581
0.769992
0.770802
0.771188
0.771288
0.771207
0.771019
0.770838
0.770696
0.770544
0.749442
0.749632
0.750075
0.750955
0.752166
0.753641
0.755398
0.757504
0.759986
0.762794
0.765388
0.76724
0.768412
0.769092
0.76943
0.769535
0.769495
0.76941
0.769314
0.769181
0.74407
0.744227
0.744666
0.745588
0.746902
0.748529
0.750503
0.752914
0.755815
0.759195
0.762421
0.764828
0.766447
0.767475
0.768088
0.768406
0.768518
0.768526
0.768471
0.768352
0.738294
0.738422
0.738868
0.73986
0.741322
0.743159
0.745422
0.748228
0.751671
0.755764
0.759763
0.762834
0.764981
0.766416
0.767344
0.767898
0.768176
0.768279
0.768264
0.768156
0.732011
0.732111
0.732579
0.733666
0.735314
0.737419
0.740055
0.743374
0.747494
0.752462
0.757412
0.761305
0.764084
0.766004
0.767289
0.768113
0.768591
0.768799
0.768821
0.76872
0.725073
0.725154
0.725639
0.726843
0.728736
0.731177
0.734289
0.738254
0.743247
0.749331
0.755427
0.760268
0.7638
0.766308
0.768051
0.769193
0.769886
0.770205
0.770267
0.770171
0.717226
0.717298
0.717845
0.719182
0.721359
0.724233
0.727934
0.732687
0.738714
0.746123
0.753651
0.759713
0.764177
0.767399
0.769701
0.77126
0.772221
0.772674
0.772777
0.772684
0.708243
0.708285
0.708904
0.710443
0.713
0.716435
0.720902
0.726702
0.734103
0.743209
0.752433
0.75988
0.765421
0.769479
0.772449
0.774496
0.775789
0.776396
0.77654
0.776443
0.69773
0.697757
0.698464
0.700261
0.703282
0.707414
0.712846
0.719939
0.729001
0.740157
0.751479
0.760648
0.767516
0.772608
0.776386
0.779035
0.780732
0.78152
0.781704
0.781596
0.685062
0.685081
0.685918
0.688069
0.691738
0.696824
0.703557
0.712367
0.723587
0.737293
0.751102
0.762247
0.770631
0.776908
0.781637
0.785006
0.787164
0.788147
0.788362
0.788235
0.669406
0.669426
0.670473
0.673164
0.677764
0.684183
0.692681
0.703745
0.717691
0.734519
0.751276
0.764734
0.774875
0.782516
0.7883
0.792481
0.79514
0.79632
0.79656
0.796407
0.649566
0.649597
0.65099
0.654537
0.660524
0.668857
0.679809
0.693885
0.711305
0.731916
0.752119
0.768207
0.780309
0.789473
0.79646
0.801526
0.804704
0.806068
0.806324
0.806139
0.62374
0.623808
0.625819
0.630794
0.63901
0.650204
0.664673
0.682798
0.704606
0.729731
0.753857
0.772845
0.787103
0.797926
0.80618
0.812208
0.815892
0.817414
0.817671
0.817454
0.588945
0.589142
0.592402
0.600017
0.61201
0.627648
0.647145
0.670594
0.697787
0.728146
0.756624
0.778755
0.795305
0.807907
0.817568
0.82458
0.828731
0.830359
0.830588
0.830336
0.539484
0.540535
0.547092
0.560101
0.578654
0.601157
0.627588
0.657781
0.691335
0.727543
0.760674
0.786067
0.804995
0.819443
0.830552
0.838553
0.843115
0.844764
0.844931
0.844639
0.466453
0.47387
0.48909
0.512169
0.540424
0.572047
0.60696
0.64495
0.685612
0.728253
0.766491
0.795518
0.817153
0.833766
0.846651
0.855785
0.860852
0.862626
0.862802
0.862557
0.387784
0.405129
0.42976
0.463481
0.501827
0.542759
0.58626
0.632295
0.680569
0.730497
0.774988
0.808772
0.834038
0.853578
0.868881
0.879627
0.885306
0.887158
0.887384
0.887305
0.322498
0.342835
0.375295
0.417873
0.465075
0.514761
0.566569
0.620473
0.676195
0.733185
0.783626
0.821863
0.850529
0.872742
0.889943
0.901614
0.907676
0.910017
0.910284
0.910281
0.268999
0.291041
0.328897
0.37781
0.432031
0.489023
0.548149
0.609251
0.671936
0.735581
0.791603
0.833927
0.865582
0.889941
0.908481
0.921335
0.928458
0.930635
0.930968
0.931015
0.224373
0.247486
0.288952
0.342974
0.402865
0.465892
0.531279
0.598748
0.667757
0.737556
0.798715
0.844728
0.878941
0.905052
0.924847
0.938472
0.946171
0.948661
0.949161
0.949241
0.186279
0.209982
0.254302
0.312194
0.376837
0.445012
0.515838
0.588949
0.663678
0.739111
0.804992
0.854293
0.890705
0.918206
0.938841
0.953101
0.961238
0.964204
0.964852
0.964955
0.152796
0.176879
0.223354
0.284525
0.353142
0.425786
0.501428
0.579614
0.659573
0.740227
0.810464
0.862726
0.900991
0.929601
0.95093
0.965686
0.974183
0.977497
0.978251
0.978349
0.122522
0.146941
0.195147
0.259072
0.331124
0.407672
0.487619
0.570435
0.655241
0.740791
0.815118
0.870096
0.90999
0.939527
0.96135
0.97646
0.985181
0.988717
0.989533
0.989619
0.0945677
0.119306
0.168959
0.235206
0.310266
0.390259
0.474083
0.561141
0.650474
0.74068
0.818934
0.87651
0.917933
0.948323
0.970575
0.98595
0.994788
0.998446
0.999286
0.999327
0.0681738
0.093277
0.144279
0.212516
0.290177
0.373232
0.460563
0.551526
0.645111
0.739782
0.821892
0.882055
0.925019
0.956268
0.978984
0.994527
1.00347
1.00717
1.00805
1.00805
0.0429823
0.0684983
0.120607
0.190638
0.270602
0.356383
0.446887
0.541449
0.639028
0.738016
0.823974
0.886803
0.931409
0.963587
0.986785
1.00253
1.01149
1.01512
1.016
1.016
0.0185911
0.0446384
0.0976634
0.169369
0.251341
0.339565
0.432946
0.530815
0.632139
0.735302
0.825154
0.890812
0.93722
0.970458
0.994207
1.01017
1.01914
1.02273
1.02348
1.02343
-0.0051365
0.0213591
0.0754259
0.148557
0.232299
0.322702
0.418679
0.519577
0.624395
0.731592
0.825404
0.8941
0.942539
0.976996
1.00139
1.01758
1.02652
1.02997
1.03062
1.0305
-0.0283294
-0.00128823
0.0537187
0.128121
0.213441
0.305773
0.404074
0.507718
0.615775
0.726841
0.824661
0.896646
0.947397
0.983287
1.00841
1.02481
1.03362
1.03687
1.03737
1.03719
-0.0511063
-0.0234568
0.0324458
0.10803
0.194748
0.28879
0.38916
0.495271
0.606289
0.721016
0.82285
0.898375
0.951796
0.989393
1.01534
1.0319
1.04047
1.0434
1.04376
1.04354
-0.0734739
-0.0451436
0.0116374
0.0882935
0.176255
0.271793
0.37399
0.482284
0.59597
0.714095
0.819895
0.899187
0.955685
0.995376
1.02232
1.03891
1.04702
1.04953
1.04973
1.04947
-0.0952725
-0.066299
-0.00867026
0.0689445
0.158002
0.254851
0.358629
0.468838
0.584881
0.706108
0.815729
0.898961
0.958945
1.00126
1.02954
1.04604
1.05334
1.0552
1.0552
1.05494
-0.116474
-0.0868889
-0.0284618
0.0500329
0.140049
0.238028
0.343173
0.455016
0.57311
0.697092
0.810309
0.897545
0.961396
1.00698
1.03724
1.05376
1.05971
1.06042
1.06013
1.05991
-0.137142
-0.106873
-0.0477008
0.0315945
0.122461
0.221409
0.327711
0.440928
0.560756
0.687123
0.8036
0.89479
0.962782
1.01229
1.04555
1.06286
1.06711
1.06567
1.06455
1.06459
-0.157097
-0.126226
-0.0663274
0.0136944
0.105298
0.205077
0.312342
0.426688
0.547942
0.676308
0.795609
0.890553
0.962797
1.0167
1.05416
1.07406
1.07773
1.07338
1.06977
1.069
-0.176432
-0.144931
-0.0843559
-0.00369368
0.0885258
0.188984
0.297007
0.412236
0.5346
0.664573
0.786205
0.884566
0.961101
1.0195
1.06206
1.08709
1.09359
1.08894
1.07907
1.06313
-0.195066
-0.162979
-0.101904
-0.0207626
0.0718534
0.172795
0.281287
0.397084
0.520182
0.651264
0.774713
0.875988
0.957024
1.01965
1.06684
1.09847
1.10886
1.09824
1.07963
1.06447
-0.212822
-0.18049
-0.118783
-0.0372823
0.0555909
0.156859
0.265409
0.381562
0.505007
0.636665
0.761266
0.864442
0.949964
1.01605
1.06357
1.09495
1.10899
1.08867
1.0192
0.987075
-0.229031
-0.198653
-0.134668
-0.0526691
0.0404649
0.141673
0.249675
0.365899
0.489296
0.620913
0.745839
0.849713
0.938762
1.00838
1.04801
1.07176
1.06982
1.01873
0.948463
0.904859
-0.285032
-0.214645
-0.149259
-0.0679571
0.0249738
0.125812
0.234022
0.349821
0.472695
0.60358
0.727884
0.831357
0.9199
0.996647
1.00245
1.01346
0.973848
0.907744
0.83146
0.788693
-0.246313
-0.230341
-0.170746
-0.0894989
0.00243517
0.103003
0.21018
0.325167
0.446807
0.575854
0.697533
0.798574
0.878536
0.956745
0.950794
0.84471
0.742487
0.67126
0.598464
0.631951
-0.277543
-0.2482
-0.187631
-0.107114
-0.0151289
0.0851015
0.192459
0.306731
0.427185
0.55423
0.67278
0.769591
0.841623
0.882449
0.837475
0.69406
0.568096
0.478138
0.379376
0.432308
-0.301603
-0.269305
-0.207449
-0.126678
-0.0346394
0.0654286
0.172636
0.285995
0.404944
0.529439
0.64407
0.735076
0.797489
0.806217
0.703384
0.531837
0.379097
0.260136
0.1296
0.163925
-0.325156
-0.291277
-0.22821
-0.146588
-0.0543942
0.0455168
0.152169
0.264491
0.381746
0.503352
0.613256
0.697725
0.744802
0.722126
0.56673
0.370347
0.178598
0.00657975
-0.185487
-0.199413
-0.348063
-0.313737
-0.249764
-0.167402
-0.0750091
0.0246941
0.130678
0.241852
0.357175
0.475548
0.580163
0.657275
0.686511
0.628919
0.436912
0.22521
0.00508481
-0.189552
-0.437757
-0.746746
-0.371244
-0.336909
-0.272384
-0.189523
-0.0969156
0.00263547
0.108025
0.218033
0.331337
0.446267
0.545428
0.614072
0.624979
0.516797
0.324393
0.112837
-0.0945089
-0.270564
-0.338936
-0.425935
-0.39562
-0.361232
-0.296408
-0.213288
-0.1206
-0.0212856
0.0834206
0.192096
0.303078
0.414074
0.507366
0.565676
0.552014
0.409954
0.225079
0.0327141
-0.131844
-0.225792
-0.250022
-0.266593
-0.421506
-0.387022
-0.321995
-0.238778
-0.146182
-0.0472638
0.0565262
0.163572
0.271823
0.378252
0.465189
0.510572
0.478604
0.310826
0.135471
-0.0313597
-0.159625
-0.198379
-0.21251
-0.213854
-0.449099
-0.414434
-0.349198
-0.265969
-0.173596
-0.0752854
0.027346
0.132435
0.23752
0.338809
0.418604
0.450417
0.401404
0.218713
0.0527242
-0.0966628
-0.176406
-0.192657
-0.193945
-0.193794
-0.478438
-0.44348
-0.378026
-0.29484
-0.202833
-0.105313
-0.00409502
0.0986968
0.200193
0.295834
0.367484
0.387945
0.304646
0.134417
-0.0236842
-0.14681
-0.182936
-0.183744
-0.18367
-0.183019
-0.509228
-0.474068
-0.408353
-0.325281
-0.233777
-0.137258
-0.037728
0.0624228
0.159897
0.249428
0.312585
0.31706
0.213033
0.0560682
-0.0844401
-0.163537
-0.173829
-0.176306
-0.176869
-0.176656
-0.540883
-0.505603
-0.439915
-0.357044
-0.266207
-0.170922
-0.0733535
0.0237946
0.116851
0.199844
0.25446
0.242057
0.1301
-0.011151
-0.130746
-0.15865
-0.171354
-0.17291
-0.172294
-0.171922
-0.572952
-0.537558
-0.472218
-0.389708
-0.299737
-0.205934
-0.110631
-0.016835
0.0714048
0.147687
0.192617
0.168339
0.0498601
-0.0677972
-0.163117
-0.191787
-0.17711
-0.172494
-0.171346
-0.17056
-0.604567
-0.56934
-0.504387
-0.422615
-0.333781
-0.241757
-0.149026
-0.0588967
0.0241276
0.093598
0.128778
0.0959142
-0.029299
-0.112203
-0.167115
-0.173688
-0.177637
-0.178932
-0.178235
-0.177488
-0.634118
-0.59971
-0.535498
-0.454827
-0.367524
-0.277609
-0.187779
-0.101563
-0.0240766
0.0382999
0.0679078
0.0120702
-0.110757
-0.160357
-0.149376
-0.186006
-0.193424
-0.190141
-0.190375
-0.190541
-0.660152
-0.626685
-0.564446
-0.485194
-0.399877
-0.312453
-0.225875
-0.143764
-0.0718543
-0.0170311
0.00981348
-0.0803854
-0.218953
-0.239001
-0.205948
-0.232865
-0.242749
-0.244545
-0.244393
-0.243262
-0.680608
-0.6489
-0.589079
-0.512304
-0.429504
-0.345043
-0.262018
-0.184185
-0.117528
-0.0706427
-0.0485152
-0.167409
-0.371935
-0.509551
-0.439606
-0.413455
-0.40346
-0.396704
-0.380996
-0.370881
-0.693416
-0.664317
-0.607793
-0.534296
-0.454839
-0.37391
-0.294726
-0.221204
-0.15927
-0.119634
-0.104397
-0.232802
-0.492042
-0.960935
-0.994755
-0.684344
-0.543885
-0.499537
-0.474741
-0.466171
-0.696078
-0.670884
-0.61872
-0.549441
-0.474172
-0.397463
-0.322357
-0.252955
-0.195043
-0.159428
-0.148033
-0.22987
-0.363767
-0.645316
-0.808509
-0.496926
-0.353498
-0.3352
-0.345845
-0.349436
-0.686956
-0.666386
-0.619888
-0.556224
-0.486034
-0.414119
-0.343288
-0.277496
-0.222532
-0.187424
-0.162696
-0.12147
0.104215
0.400048
0.294418
-0.0736962
-0.281796
-0.292515
-0.293677
-0.292813
-0.663939
-0.647924
-0.609711
-0.553542
-0.4895
-0.422789
-0.35615
-0.293123
-0.239943
-0.204372
-0.177431
-0.0940406
0.179269
0.71967
0.589974
0.092532
-0.224572
-0.241599
-0.268001
-0.284879
-0.628881
-0.618143
-0.588688
-0.54167
-0.484557
-0.423194
-0.360255
-0.298974
-0.245171
-0.208738
-0.199351
-0.28858
-0.64753
-1.26908
-1.84005
-2.16311
-1.95469
-1.52046
-1.12802
-1.04399
-0.587247
-0.58102
-0.560998
-0.522947
-0.472941
-0.416151
-0.35574
-0.29442
-0.236498
-0.192875
-0.186459
-0.471022
-1.28119
-2.38189
-3.06786
-3.26388
-3.01872
-2.62091
-2.25107
-2.01791
-0.546979
-0.543415
-0.532153
-0.502488
-0.457797
-0.403934
-0.343986
-0.279695
-0.21392
-0.149441
-0.11596
-0.218447
-0.553432
-0.811855
-0.864536
-0.657374
-0.333929
-0.0327951
0.183611
0.287145
-0.515039
-0.512855
-0.507148
-0.485122
-0.444156
-0.390334
-0.328206
-0.257089
-0.178661
-0.0872434
0.0201969
0.16544
0.406223
0.856895
1.45088
2.00879
2.43241
2.68032
2.78495
2.81384
-0.488611
-0.487765
-0.486312
-0.472657
-0.435207
-0.379531
-0.312551
-0.23491
-0.144196
-0.037091
0.0944768
0.235341
0.522165
1.05991
1.68554
2.2423
2.63825
2.86703
2.97204
3.00052
-0.470877
-0.470529
-0.470497
-0.462942
-0.429729
-0.371873
-0.299571
-0.216448
-0.120256
-0.00905888
0.109692
0.235095
0.423288
0.902436
1.43607
1.90564
2.24637
2.43661
2.51891
2.54043
-0.456049
-0.45545
-0.455399
-0.453016
-0.425263
-0.366001
-0.289164
-0.202399
-0.107072
-0.000214348
0.104927
0.215184
0.339784
0.689281
1.10636
1.44928
1.70024
1.83974
1.90039
1.91669
-0.447657
-0.44606
-0.445742
-0.445781
-0.421382
-0.359218
-0.277951
-0.189429
-0.0965587
0.00377024
0.0978227
0.185611
0.274629
0.502207
0.796658
1.03681
1.20788
1.30372
1.34602
1.35603
-0.448514
-0.448873
-0.452247
-0.451886
-0.420474
-0.347559
-0.260628
-0.172159
-0.0837633
0.00723007
0.0854499
0.150308
0.20539
0.364908
0.561879
0.721328
0.836972
0.900501
0.92803
0.934064
-0.431365
-0.437263
-0.444609
-0.439258
-0.397409
-0.31742
-0.23039
-0.147446
-0.0686454
0.00865107
0.0734935
0.121511
0.163976
0.269616
0.402475
0.50645
0.578857
0.619011
0.635442
0.638144
-0.340708
-0.347907
-0.355326
-0.348862
-0.311582
-0.247438
-0.178451
-0.111293
-0.0473628
0.0158455
0.0684368
0.104526
0.136888
0.207579
0.295988
0.365009
0.410869
0.435087
0.445185
0.446202
-0.182372
-0.186935
-0.192482
-0.191269
-0.173995
-0.142639
-0.104783
-0.0633617
-0.0193446
0.0275998
0.0670481
0.0948337
0.120641
0.167587
0.224577
0.269757
0.299987
0.316523
0.322991
0.322956
-0.0248089
-0.0269892
-0.0315684
-0.0377868
-0.0411119
-0.039661
-0.0301871
-0.0133881
0.01094
0.0417815
0.0717163
0.0968397
0.118271
0.1492
0.184501
0.213302
0.232512
0.243141
0.246929
0.24623
0.0805225
0.0793889
0.074835
0.0641198
0.0484794
0.0351466
0.0280373
0.0289624
0.0386906
0.0567783
0.078732
0.100462
0.121016
0.141027
0.161858
0.178676
0.190793
0.197845
0.200331
0.199239
0.130692
0.129957
0.125945
0.115286
0.0983844
0.0808607
0.0671101
0.0597477
0.0602356
0.0690355
0.083674
0.101661
0.118408
0.130594
0.14184
0.153304
0.162165
0.167265
0.168562
0.167204
0.145567
0.144987
0.141888
0.133478
0.119551
0.103837
0.0897815
0.079696
0.0753271
0.0777004
0.0860595
0.0979131
0.110217
0.115376
0.121798
0.130327
0.137792
0.142292
0.143517
0.142126
0.143192
0.142741
0.140574
0.134758
0.124802
0.112741
0.100826
0.0909677
0.0844751
0.0823458
0.0843007
0.0888236
0.0936201
0.094759
0.0990261
0.107458
0.115053
0.119412
0.120595
0.119297
0.134304
0.133961
0.132543
0.128848
0.122292
0.113819
0.10473
0.0963285
0.0894023
0.084203
0.0797987
0.0752833
0.0692169
0.0669093
0.0753665
0.0858139
0.0936231
0.0975906
0.0985352
0.0974339
0.124133
0.123866
0.122962
0.120757
0.116742
0.111232
0.10484
0.0983246
0.0919231
0.085123
0.0757885
0.0623406
0.0482962
0.0469575
0.0579894
0.0693417
0.0764589
0.0796579
0.0802901
0.0794978
0.114906
0.114694
0.11412
0.112872
0.110603
0.107303
0.103227
0.0987166
0.0939783
0.0871962
0.0756263
0.0563587
0.036639
0.0385309
0.0529978
0.0642817
0.0698643
0.0713211
0.0715398
0.0711417
0.10718
0.107034
0.106695
0.106038
0.10489
0.103144
0.100977
0.0986157
0.0960813
0.0923938
0.0834612
0.065715
0.0490558
0.0551441
0.0687316
0.0766357
0.0790712
0.079028
0.0789225
0.0786865
0.10042
0.100337
0.10017
0.0998567
0.0995154
0.0989276
0.0983724
0.0982428
0.0986839
0.0997011
0.0988092
0.0919095
0.0861625
0.0943271
0.10261
0.105604
0.105446
0.10462
0.104344
0.104028
0.0937998
0.093783
0.0937683
0.0937002
0.0936468
0.0940645
0.0949019
0.0968048
0.100693
0.107984
0.118353
0.127841
0.134528
0.143497
0.145377
0.143283
0.141665
0.141287
0.141014
0.140486
0.086412
0.0864483
0.0865806
0.0867277
0.087144
0.0879321
0.0898881
0.0935715
0.100569
0.113989
0.136048
0.163109
0.18693
0.192965
0.186807
0.180727
0.178447
0.178207
0.177461
0.176701
0.0776511
0.0777363
0.0780048
0.078356
0.0790742
0.0801335
0.082821
0.0876671
0.0966033
0.114432
0.145528
0.188622
0.226343
0.229694
0.216027
0.207063
0.205717
0.206134
0.204933
0.20393
0.0667964
0.0668985
0.0672243
0.0677413
0.068446
0.0701419
0.0726524
0.078192
0.0881606
0.107128
0.140425
0.186207
0.234336
0.236383
0.221354
0.21565
0.215056
0.215255
0.213505
0.212236
0.053414
0.0534873
0.0538505
0.0546601
0.0557873
0.0571674
0.0597126
0.0644044
0.0734954
0.0903662
0.119512
0.161295
0.19853
0.200415
0.190236
0.189839
0.195461
0.19827
0.196197
0.194565
0.0381267
0.0381633
0.0384518
0.0392251
0.0402569
0.0418921
0.0442898
0.0478002
0.0541743
0.0658277
0.0841288
0.105591
0.12085
0.124001
0.128214
0.138072
0.145877
0.148212
0.146557
0.144682
0.0216254
0.0215934
0.0216718
0.0221531
0.0228428
0.0236129
0.0249408
0.0275268
0.0317874
0.0376246
0.0433874
0.0408241
0.024243
0.0305472
0.0486662
0.0631313
0.0658874
0.0668258
0.0677478
0.0668107
0.00471134
0.00455204
0.00421839
0.00365742
0.00303977
0.00284541
0.00332445
0.00415537
0.00497008
0.0067072
0.0113777
0.0104065
-0.00913638
-0.00107116
0.00398043
0.0031265
-0.00991397
-0.013234
-0.00702512
-0.0030114
0.0507352
0.224103
0.426675
0.602062
0.742998
0.854983
0.948105
1.0269
1.06227
1.03905
0.366569
0.491429
0.625428
0.741517
0.839715
0.921281
0.987296
1.03404
1.05754
1.06947
0.593144
0.678601
0.770014
0.851095
0.920898
0.979305
1.0257
1.05955
1.0839
1.10175
0.75852
0.819208
0.883327
0.94197
0.993115
1.03651
1.07209
1.10041
1.12358
1.1418
0.887163
0.931539
0.978588
1.02344
1.06307
1.09763
1.12717
1.15169
1.17232
1.19011
0.993342
1.02697
1.06582
1.10205
1.13527
1.165
1.19094
1.21272
1.23073
1.24805
1.0871
1.11622
1.15068
1.18324
1.21355
1.24104
1.26503
1.28493
1.30055
1.31762
1.17641
1.20587
1.24018
1.27249
1.30233
1.32912
1.35214
1.37075
1.3842
1.40123
1.27216
1.30553
1.34236
1.37611
1.40631
1.43261
1.45467
1.47203
1.48395
1.50136
1.38744
1.42537
1.46412
1.49847
1.52791
1.55274
1.57317
1.58911
1.60062
1.6187
1.53254
1.57117
1.60737
1.63811
1.66385
1.686
1.70509
1.72065
1.73311
1.75111
1.70774
1.7394
1.76562
1.78811
1.80812
1.82687
1.84461
1.8611
1.87647
1.89454
1.89641
1.91364
1.9287
1.94495
1.96088
1.97543
1.98865
2.00258
2.02014
2.04029
2.07819
2.08772
2.09927
2.11009
2.11938
2.12898
2.13978
2.15115
2.16252
2.17788
2.28543
2.2891
2.27416
2.25935
2.25308
2.25877
2.27725
2.30757
2.33975
2.36641
2.59174
2.45688
2.38025
2.3379
2.32048
2.32445
2.35185
2.40826
2.51089
2.73525
0.879779
0.877647
0.873162
0.864531
0.852299
0.840159
0.829914
0.821992
0.816336
0.813031
0.81261
0.815281
0.82033
0.82751
0.836867
0.848385
0.861021
0.872044
0.878151
0.8812
0.804244
0.810089
0.816424
0.820909
0.823369
0.823032
0.820277
0.816441
0.812892
0.810576
0.810359
0.812483
0.816086
0.82033
0.824102
0.825961
0.825006
0.82151
0.816338
0.809714
0.795848
0.798144
0.801543
0.804531
0.806596
0.808078
0.808811
0.808464
0.807396
0.806453
0.806548
0.807897
0.809646
0.810899
0.811038
0.810117
0.808545
0.806191
0.802915
0.799989
0.790375
0.791461
0.793289
0.795658
0.79767
0.799081
0.800077
0.800793
0.801144
0.801298
0.8017
0.802416
0.802937
0.80294
0.802478
0.801591
0.800091
0.797984
0.795881
0.794492
0.785221
0.785884
0.786988
0.788683
0.790451
0.792064
0.793333
0.794308
0.795133
0.795844
0.796469
0.796911
0.79701
0.796766
0.796136
0.795031
0.793564
0.791989
0.79065
0.789865
0.780309
0.78077
0.781552
0.782841
0.784314
0.78581
0.787244
0.788497
0.789567
0.790529
0.791319
0.791754
0.791783
0.791412
0.790634
0.789579
0.788401
0.787227
0.786286
0.785764
0.775561
0.775906
0.776514
0.777574
0.778854
0.780206
0.781612
0.783008
0.784307
0.785478
0.786439
0.786967
0.786997
0.786595
0.785891
0.785028
0.784107
0.783187
0.782483
0.782099
0.770928
0.771195
0.771685
0.772587
0.773743
0.775016
0.776375
0.777808
0.779265
0.780657
0.781825
0.782492
0.782607
0.782325
0.781797
0.781125
0.780386
0.779676
0.779147
0.778854
0.766334
0.766547
0.766954
0.767747
0.768824
0.770049
0.771392
0.772861
0.774433
0.776038
0.777453
0.778331
0.778638
0.778556
0.778224
0.777739
0.777175
0.776636
0.776239
0.776009
0.761701
0.761871
0.76222
0.762941
0.763973
0.765173
0.766538
0.768076
0.769776
0.771596
0.773303
0.774485
0.775067
0.775226
0.775102
0.774805
0.77442
0.77403
0.77374
0.773557
0.756951
0.757087
0.757393
0.758072
0.75909
0.760313
0.761739
0.76339
0.765275
0.767364
0.769432
0.770991
0.771896
0.772327
0.772431
0.772324
0.772104
0.77185
0.771649
0.771503
0.752012
0.752119
0.752396
0.753058
0.754097
0.75539
0.756921
0.75874
0.760879
0.763317
0.765834
0.767849
0.769129
0.769864
0.770221
0.770319
0.770263
0.770136
0.77001
0.769893
0.746803
0.746885
0.747144
0.747812
0.748908
0.750309
0.751996
0.754045
0.756512
0.759405
0.762483
0.765038
0.76676
0.767849
0.768492
0.768821
0.768935
0.768934
0.768876
0.768784
0.74124
0.7413
0.741549
0.742244
0.743431
0.744981
0.746878
0.74922
0.752092
0.75554
0.759306
0.762534
0.764806
0.766328
0.767302
0.767891
0.768188
0.768313
0.76832
0.768251
0.735226
0.735263
0.735509
0.736249
0.737558
0.739311
0.741489
0.744218
0.74761
0.751748
0.756359
0.760412
0.763344
0.76538
0.766724
0.767596
0.768135
0.768401
0.768472
0.768422
0.728641
0.728648
0.728891
0.729696
0.731167
0.733182
0.735717
0.738942
0.743014
0.748042
0.753702
0.758735
0.762435
0.765068
0.766885
0.76809
0.768884
0.769303
0.769442
0.76941
0.721269
0.721264
0.721531
0.722413
0.724086
0.726398
0.729386
0.733223
0.738109
0.744207
0.751148
0.757395
0.762065
0.765445
0.76783
0.769477
0.770579
0.771172
0.771386
0.771372
0.712881
0.712844
0.713138
0.714143
0.716069
0.718789
0.722352
0.726974
0.732914
0.74036
0.748879
0.756596
0.762394
0.766641
0.76971
0.771908
0.773385
0.774196
0.774492
0.774494
0.703182
0.703121
0.703458
0.704625
0.70686
0.710094
0.714389
0.720017
0.727292
0.736436
0.746881
0.756342
0.763507
0.768812
0.772694
0.775532
0.777469
0.778544
0.778932
0.778943
0.691651
0.691565
0.691971
0.69335
0.695994
0.699893
0.705137
0.712055
0.72101
0.732237
0.745036
0.756624
0.765412
0.771973
0.776849
0.780467
0.782968
0.784349
0.784834
0.784847
0.677564
0.677455
0.677983
0.679682
0.682908
0.687748
0.694304
0.702965
0.71413
0.72801
0.743646
0.757689
0.76833
0.776329
0.782355
0.786837
0.789967
0.791678
0.792257
0.792265
0.659925
0.659795
0.660528
0.662727
0.666812
0.67299
0.681363
0.692358
0.706366
0.723515
0.742556
0.759486
0.772273
0.781905
0.789224
0.794695
0.798524
0.800578
0.801242
0.801238
0.637265
0.637127
0.638207
0.641201
0.646649
0.654842
0.665852
0.680084
0.697824
0.719034
0.742073
0.762257
0.777425
0.788851
0.797577
0.804126
0.808685
0.811066
0.8118
0.811779
0.607261
0.607153
0.608863
0.613271
0.621017
0.632422
0.647339
0.666034
0.68857
0.714685
0.742322
0.766124
0.783871
0.797253
0.807481
0.815214
0.820498
0.823171
0.823948
0.823901
0.565831
0.565891
0.569004
0.576334
0.588323
0.605
0.625721
0.650439
0.678971
0.710829
0.743579
0.771256
0.79173
0.807151
0.819013
0.827988
0.833949
0.836823
0.837589
0.837508
0.505378
0.5066
0.514236
0.52802
0.547721
0.572731
0.60159
0.633984
0.669611
0.707899
0.746107
0.777788
0.801032
0.818531
0.83199
0.842172
0.848774
0.851715
0.852362
0.852238
0.433167
0.435062
0.449621
0.473426
0.503994
0.538754
0.57652
0.617154
0.660469
0.705973
0.750682
0.787518
0.814579
0.835063
0.850838
0.862636
0.870095
0.873292
0.874062
0.874062
0.358615
0.365013
0.386466
0.420422
0.461197
0.505495
0.552138
0.601061
0.652165
0.705036
0.756493
0.798736
0.829795
0.853472
0.871933
0.885607
0.893921
0.896824
0.897445
0.897556
0.297959
0.306501
0.332587
0.373531
0.422185
0.474552
0.529154
0.585804
0.64432
0.704247
0.762103
0.809399
0.844155
0.870633
0.891078
0.906004
0.914725
0.918251
0.919452
0.919637
0.248469
0.257589
0.287165
0.333217
0.387959
0.446825
0.508127
0.57157
0.636814
0.703282
0.767116
0.81906
0.857095
0.88591
0.90801
0.924081
0.933759
0.938012
0.939456
0.939667
0.206888
0.216241
0.248183
0.298124
0.357828
0.422102
0.48909
0.558452
0.629709
0.702151
0.771479
0.827659
0.868569
0.899324
0.922686
0.939604
0.950127
0.954927
0.956595
0.956835
0.170856
0.180286
0.21396
0.267066
0.330836
0.3997
0.471649
0.546248
0.622922
0.700822
0.775226
0.835257
0.878687
0.911036
0.935354
0.952955
0.964159
0.969401
0.971213
0.971478
0.138812
0.148247
0.18324
0.238989
0.306145
0.378966
0.455286
0.534589
0.616218
0.699182
0.778319
0.841899
0.887548
0.921222
0.946316
0.964488
0.976038
0.981682
0.983576
0.983851
0.109558
0.119014
0.155079
0.213043
0.2831
0.359376
0.439572
0.523143
0.609341
0.697058
0.780686
0.84762
0.895318
0.930171
0.95591
0.974419
0.986237
0.992097
0.994061
0.994354
0.0822863
0.0917835
0.128815
0.18864
0.261221
0.340519
0.424187
0.511642
0.602079
0.694295
0.782254
0.852456
0.902158
0.938151
0.964525
0.983365
0.995313
1.00131
1.00325
1.00352
0.0564563
0.0660126
0.103929
0.16534
0.240152
0.322111
0.408894
0.499896
0.594276
0.690767
0.782959
0.856439
0.908191
0.945383
0.972407
0.991583
1.00369
1.00967
1.0116
1.01176
0.0315702
0.041308
0.0800018
0.14285
0.219634
0.303948
0.393539
0.487778
0.585823
0.686381
0.782743
0.859593
0.913531
0.952039
0.979791
0.999308
1.01153
1.01748
1.01934
1.01951
0.00740215
0.0173693
0.0567908
0.121023
0.199508
0.285908
0.378025
0.475214
0.576649
0.681073
0.78156
0.861918
0.918246
0.958244
0.986839
1.00676
1.01909
1.02498
1.02673
1.02686
-0.0161513
-0.00596075
0.034254
0.0997042
0.179684
0.267944
0.362313
0.462171
0.566723
0.674794
0.779357
0.863392
0.922369
0.964081
0.993655
1.01402
1.02642
1.03216
1.03376
1.03382
-0.0392377
-0.028722
0.0121884
0.0788049
0.160133
0.250034
0.346406
0.448659
0.556052
0.667534
0.776075
0.863947
0.925879
0.969599
1.00032
1.02114
1.03353
1.03906
1.04044
1.04042
-0.0618354
-0.0510257
-0.00936585
0.0583032
0.14085
0.2322
0.330346
0.434723
0.544667
0.659287
0.771664
0.863488
0.928714
0.974822
1.00692
1.0282
1.04043
1.04557
1.0467
1.04661
-0.083986
-0.0728471
-0.0303932
0.038234
0.121864
0.214484
0.314184
0.420431
0.532631
0.650082
0.766086
0.861921
0.930764
0.979724
1.01358
1.03537
1.04718
1.0517
1.05251
1.05235
-0.105497
-0.0941015
-0.0508848
0.0186327
0.103231
0.196964
0.297993
0.40586
0.520024
0.639987
0.759331
0.859148
0.931874
0.984205
1.0204
1.04294
1.05403
1.05748
1.05779
1.05756
-0.126508
-0.114748
-0.0708081
-0.000473669
0.0849836
0.179683
0.281869
0.3911
0.506942
0.629092
0.751419
0.855064
0.931847
0.988053
1.0274
1.05139
1.06165
1.06326
1.06256
1.06222
-0.146845
-0.134754
-0.0901273
-0.0190322
0.0672049
0.162728
0.265897
0.376273
0.493502
0.617475
0.742404
0.849585
0.930472
0.990921
1.03429
1.06108
1.07133
1.07052
1.06745
1.06611
-0.166563
-0.154156
-0.108785
-0.0369874
0.0499347
0.14617
0.250161
0.361464
0.479822
0.605281
0.732375
0.842648
0.927547
0.992351
1.04034
1.07162
1.08436
1.08278
1.07566
1.06615
-0.185576
-0.17291
-0.126875
-0.0544899
0.032963
0.129723
0.23432
0.346263
0.465439
0.591987
0.720768
0.833629
0.922486
0.991761
1.04445
1.08165
1.10032
1.10127
1.09137
1.08346
-0.20383
-0.190933
-0.144392
-0.0714961
0.0162996
0.113385
0.218395
0.330653
0.450316
0.577488
0.707415
0.822191
0.914597
0.988379
1.04424
1.08573
1.10729
1.11347
1.07634
1.02314
-0.221031
-0.207448
-0.161219
-0.087934
-0.000156476
0.0970167
0.20234
0.314756
0.434517
0.561855
0.692269
0.808177
0.902889
0.981824
1.03763
1.07291
1.09537
1.08281
1.02591
0.96171
-0.237507
-0.222993
-0.177185
-0.103146
-0.016046
0.0810995
0.18593
0.298631
0.418188
0.545262
0.675359
0.791439
0.886265
0.973178
1.02273
1.0741
1.04259
1.00021
0.930471
0.862398
-0.223509
-0.205536
-0.156586
-0.0779894
0.0142306
0.115084
0.225225
0.340766
0.463269
0.59363
0.717353
0.820429
0.907141
0.999895
1.0459
0.966128
0.919996
0.856875
0.784082
0.735943
-0.247891
-0.231672
-0.195912
-0.127289
-0.0406955
0.0558138
0.160782
0.272839
0.391581
0.517345
0.645437
0.759599
0.851263