/*--------------------------------*- C++ -*----------------------------------*\
  =========                 |
  \\      /  F ield         | OpenFOAM: The Open Source CFD Toolbox
   \\    /   O peration     | Website:  https://openfoam.org
    \\  /    A nd           | Version:  10
     \\/     M anipulation  |
\*---------------------------------------------------------------------------*/
FoamFile
{
    format      ascii;
    class       volScalarField;
    location    "60";
    object      p;
}
// * * * * * * * * * * * * * * * * * * * * * * * * * * * * * * * * * * * * * //

dimensions      [0 2 -2 0 0 0 0];

internalField   nonuniform List<scalar> 
918
(
0.556257
1.18714
0.000611904
0.555687
-0.0094421
1.15412
-0.509218
0.673908
0.536448
-0.111203
-0.0453619
0.536501
1.0149
0.779316
-1.125
-0.0108538
0.651271
-0.382897
0.535547
-0.0557296
0.700104
0.542995
0.546021
0.536601
0.599613
0.753996
0.895846
0.0217313
0.0114531
0.00494926
-0.0146757
-0.036566
-0.0310409
1.03778
1.08885
1.11154
0.504286
0.331821
-0.374434
-0.446385
-0.435871
-0.547929
0.669517
0.667579
-0.20693
0.67729
0.680533
0.5235
0.535816
0.536725
0.537755
0.536735
0.538117
0.403721
-0.113028
-0.144782
-0.09198
-0.0832761
0.0539676
-0.0461947
-0.0485044
-0.0440556
-0.0434641
0.453566
0.530899
0.527802
0.541636
0.552376
1.12669
1.09862
1.12475
1.03841
1.05489
0.992905
0.965475
0.800989
0.822943
0.763133
0.749627
-1.55749
-2.5102
-0.534522
-0.283734
-0.0153344
-0.00836891
-0.00216985
0.647907
0.648756
0.650856
0.654096
1.07981
-0.379785
-0.480943
0.535687
0.534494
0.542824
0.543524
0.539543
0.538634
-0.0464657
-0.0428864
-0.0473141
-0.0518248
-0.0509043
0.688933
0.6893
0.537131
0.534137
0.559526
0.579822
0.570561
0.278015
0.607995
0.622951
0.585005
0.745907
0.740304
0.749075
0.869527
0.832501
0.932898
0.956247
0.0172912
-0.0011061
-0.0152531
-0.0194526
-0.0180773
0.500128
0.492686
0.519969
0.507711
0.510211
0.24834
0.114671
0.416939
0.441945
-0.292522
-0.357491
-0.43076
-0.460117
-0.567854
0.61096
0.663772
0.661116
-0.218597
-0.146361
-0.278676
-0.0729605
-0.135554
0.513781
0.520783
0.515787
0.531322
0.525793
0.527755
0.540082
0.537154
0.538713
0.466064
0.589822
0.329821
0.29452
-0.245826
-0.160548
-0.246501
-0.0710585
-0.0660547
0.0678853
0.0933117
0.040947
0.0292127
-0.0599051
-0.0512673
-0.0554479
-0.0426008
-0.0428293
0.446347
0.435185
0.466244
0.473785
0.518503
0.51992
0.524366
0.522337
0.916382
0.938813
0.946197
0.919906
-3.50129
-6.28552
0.0413881
0.178155
-0.00654374
-0.0107247
0.00472762
-0.0104955
-0.00305538
-0.00443031
-0.00611793
-0.00734307
-0.00303492
-0.00139334
0.641576
0.642518
1.00156
1.00783
0.977797
0.930437
0.523885
0.525961
0.531468
0.527346
-0.0421297
-0.0427356
-0.041933
0.683365
0.687761
0.686089
0.239745
0.150463
0.328837
0.35781
0.635068
0.623228
0.633374
0.646303
0.681231
0.963703
0.981816
0.980113
0.98833
1.03235
1.04875
1.01409
0.479603
0.489572
0.484529
0.523074
0.520849
0.521751
0.517571
0.518891
0.516846
-0.0360066
-0.416483
0.489778
0.506986
0.491564
0.494532
0.691089
0.769631
0.65416
0.657948
0.656897
-0.00439516
-0.0627423
0.250027
0.216235
0.386082
0.422386
0.401408
0.887636
0.847691
0.897872
0.871338
0.832677
0.859144
-0.368101
-1.86917
-0.987399
0.527961
0.34245
0.429735
0.0111084
-0.00572828
-0.00123782
1.00076
1.07358
0.645673
0.820276
0.823252
0.718035
0.747829
0.805934
0.729274
0.765654
0.801938
0.781895
0.56715
0.502976
0.518885
0.838836
0.894589
0.120892
0.0602222
0.0162117
0.112006
0.16914
0.143266
1.03397
0.948538
1.01887
0.533896
0.534613
-0.00399108
-0.0181398
0.538844
0.538897
-0.0164124
-0.00378993
0.41252
-0.833294
0.102005
0.527412
0.517362
0.534464
-0.0942232
0.355212
-0.046781
0.0490241
-0.00644689
0.530894
0.464668
0.423863
0.000694826
-0.0189722
-0.0466401
-0.215304
0.531566
0.529872
0.533932
0.534878
0.535556
-0.01779
-0.0129599
-0.00970132
-0.0444348
-0.0392006
-0.0493673
0.498457
0.517405
-0.170594
0.534078
0.536209
0.536029
0.529279
0.534914
0.533162
-0.0102173
-0.0166632
-0.0179472
0.220783
0.351324
0.652202
0.740097
0.623561
0.399642
0.164304
0.555732
0.618889
0.524656
0.678124
0.65981
0.674396
0.167584
0.0173553
0.175892
0.117324
0.525272
0.523979
0.515617
0.512589
0.52933
0.527442
0.532002
0.529017
0.531968
0.533352
-0.0511563
-0.0774267
-0.0881307
-0.157257
0.309908
0.571531
0.253115
0.283384
0.142136
-0.0407015
-0.0410798
-0.0455487
-0.0514221
0.00217166
-0.02156
0.0440354
0.0445677
0.0170054
-0.00893127
-0.00564874
-0.0165525
-0.0125088
0.524368
0.523712
0.52811
0.536752
0.474292
0.478064
0.442985
0.463707
0.448993
0.387873
0.423048
0.398302
-0.0074607
0.00272792
-0.00470188
-0.0164253
-0.0127238
-0.0320819
-0.0285335
-0.0247501
-0.0203889
-0.0269965
-0.0416496
-0.043504
-0.172841
-0.287826
0.98822
0.910092
0.135532
0.520723
0.527173
0.523938
0.528843
0.53197
0.532777
0.530492
0.527044
0.517739
0.519268
0.516105
0.517018
-0.102369
-0.242833
-0.0710304
-0.144306
0.143324
0.626759
0.363233
0.299374
0.294423
0.522272
0.917256
0.70186
0.676432
0.685463
-0.343504
0.0465162
-0.27947
0.336236
0.163079
0.653612
0.701964
0.722018
0.670785
0.624151
-0.104019
0.554674
-0.0705043
-0.0191506
0.181709
0.0596507
0.670898
0.645902
0.650349
0.666001
0.681949
0.651612
0.637428
0.632642
0.661149
0.663055
0.487036
0.251597
0.203038
0.164468
0.641412
0.52196
0.57476
0.492475
0.520472
0.523075
0.52171
0.503279
0.510851
0.506381
0.512921
0.516409
0.525046
0.525501
0.520794
0.522925
-0.0566502
-0.0608172
-0.0306083
-0.138419
-0.132238
-0.194804
-0.0636981
0.0744991
0.0349345
0.23631
0.340913
0.0518473
-0.0591348
-0.0316918
0.0102723
0.179382
0.206722
0.0740584
0.162235
0.152208
0.134523
0.236664
0.24059
-0.0254499
-0.0290985
-0.032465
-0.0344176
0.0200066
0.0903607
0.100129
-0.00349701
-0.0095077
-0.0388485
-0.0390317
-0.0218165
-0.0266008
-0.0225299
0.00893887
-0.0519519
-0.0190855
-0.00491043
-0.000572883
-0.00282356
-0.00836805
0.517228
0.519735
0.519309
0.525143
0.540669
0.555253
0.518506
0.496461
0.487263
0.490276
0.463175
0.473511
0.469172
0.482909
0.504041
0.513654
0.511055
0.513882
0.496171
0.497907
0.484412
0.488124
0.462894
0.443781
0.431921
-0.0416673
-0.00334378
-0.0109448
-0.0373633
-0.00821989
-0.0200615
-0.00841785
0.00987099
-0.0060286
-0.00777365
-0.0175611
-0.0245673
-0.02396
-0.074704
0.0116605
-0.184287
-0.220104
-0.292504
0.890124
1.01416
0.809958
0.583084
0.60279
0.84593
0.930651
0.543119
0.735233
0.758529
0.585893
0.853251
0.525558
0.52516
0.522761
0.522241
0.523457
-0.00753035
0.0980828
0.0977861
0.159947
0.275168
0.387058
0.317477
0.192987
0.323308
0.325805
0.619425
0.631419
0.586799
0.610711
0.610271
0.425149
0.500762
0.55289
0.511817
0.56428
0.585472
0.539991
0.572612
0.522797
0.477782
0.47367
0.424178
0.44384
0.419819
0.402825
0.51465
0.492483
0.502882
0.493369
0.512393
0.540368
0.536262
0.561072
0.575697
0.497266
0.452361
0.461767
0.492039
0.452983
0.468202
0.48477
0.230348
0.132077
0.215017
-0.0714696
0.00103585
-0.0121249
-0.0604214
-0.0100706
0.274509
-0.417698
-0.393973
-1.02189
0.501002
0.953117
0.610205
0.583292
0.679928
0.662488
0.667561
0.683967
0.686755
0.629991
0.641235
0.645408
0.606165
0.627885
0.646909
0.643708
0.524293
0.385164
0.383048
0.332609
0.202747
0.241924
0.439738
0.36318
0.287993
0.288532
0.457443
0.344245
0.41381
0.448249
0.379738
0.334135
0.537049
0.602131
0.595245
0.569318
0.482554
0.495775
0.519621
0.55375
0.578927
0.609463
0.51235
0.518266
0.5195
0.51698
0.514253
0.517307
0.517547
0.520092
0.520745
0.523733
0.52278
-0.0460892
-0.0339222
-0.047431
-0.0556928
-0.0207731
-0.023411
0.0202368
0.00534428
-0.0131225
-0.00762534
-0.0319146
-0.0362374
-0.0318665
-0.0232421
0.0990253
0.111719
0.0951525
0.0554166
0.249746
0.379366
0.453887
0.329092
0.222046
0.24507
0.265084
-0.0125106
0.0139844
0.000951586
0.0402904
0.0320733
-0.0334749
-0.0374071
-0.0348415
-0.027757
-0.0181716
-0.0349697
-0.038773
-0.0297959
-0.0347183
-0.0370925
-0.0413818
0.498722
0.492189
0.493908
0.487712
0.486424
0.500854
0.505109
0.507089
0.512614
0.515032
0.504925
0.510738
0.514701
-0.00954014
-0.0325248
-0.0364067
-0.0255785
-0.0282861
-0.0263168
-0.0277337
0.122616
0.0527018
0.0572605
0.00912714
-0.122214
-0.0645287
0.490259
0.489193
0.478854
0.719962
0.569256
0.489775
0.586825
0.692515
0.27505
0.47196
0.306816
0.887657
0.783847
0.930264
0.54147
0.243642
0.405672
0.450019
0.262176
0.337308
0.325292
0.214179
0.245153
0.282173
0.381311
0.26382
0.240322
-0.00257983
0.187711
0.300068
0.281899
0.406773
0.467724
0.264642
0.18418
0.139373
0.60448
0.623879
0.63789
0.610213
0.631144
0.578581
0.569621
0.585626
0.594055
0.589592
-0.749927
-0.456556
-1.40274
-0.724075
-0.269947
0.531261
0.501436
0.767718
0.646513
0.68764
0.672981
0.632065
0.601091
0.622881
0.647368
0.34426
0.455261
0.430474
0.435707
0.337705
0.268537
0.566536
0.56272
0.595415
0.61859
0.590632
0.619979
0.510176
0.509897
0.509359
0.50561
0.503885
0.50625
0.0572063
0.0253202
0.0627343
0.0435079
0.0202849
0.00799768
-0.00617032
-0.016006
-0.0233459
-0.0233241
-0.00955165
-0.00545682
0.17011
0.108217
0.0282695
0.0579133
-0.00290722
-0.0717512
-0.0904048
0.0141162
0.110504
0.100709
0.404476
0.654317
0.474284
0.641799
0.484113
0.539886
0.467436
0.458879
0.484146
0.378263
0.458758
0.243322
-0.263772
-0.172896
0.790724
0.802952
0.579749
0.402759
0.171478
0.351763
0.543001
0.474287
0.510311
0.579395
0.567453
0.024002
0.0835097
0.364929
0.591972
0.237889
0.228984
0.222728
0.404978
0.324459
)
;

boundaryField
{
    wall-4
    {
        type            zeroGradient;
    }
    velocity-inlet-5
    {
        type            zeroGradient;
    }
    velocity-inlet-6
    {
        type            zeroGradient;
    }
    pressure-outlet-7
    {
        type            fixedValue;
        value           uniform 0;
    }
    wall-8
    {
        type            zeroGradient;
    }
    frontAndBackPlanes
    {
        type            empty;
    }
}


// ************************************************************************* //
