/*--------------------------------*- C++ -*----------------------------------*\
  =========                 |
  \\      /  F ield         | OpenFOAM: The Open Source CFD Toolbox
   \\    /   O peration     | Website:  https://openfoam.org
    \\  /    A nd           | Version:  10
     \\/     M anipulation  |
\*---------------------------------------------------------------------------*/
FoamFile
{
    format      ascii;
    class       volScalarField;
    location    "55";
    object      p;
}
// * * * * * * * * * * * * * * * * * * * * * * * * * * * * * * * * * * * * * //

dimensions      [0 2 -2 0 0 0 0];

internalField   nonuniform List<scalar> 
2200
(
0.773526
0.752027
0.736119
0.720452
0.705845
0.693324
0.68297
0.674869
0.669166
0.666226
0.666695
0.6705
0.676852
0.685413
0.696098
0.708866
0.723652
0.739571
0.755611
0.77711
0.705946
0.702688
0.699765
0.695649
0.690184
0.683711
0.677097
0.671145
0.666641
0.664251
0.664744
0.668043
0.673224
0.679683
0.686662
0.693416
0.699078
0.703178
0.706033
0.709392
0.666038
0.666259
0.66831
0.669649
0.670039
0.669187
0.667201
0.664527
0.661991
0.660508
0.661078
0.663537
0.66681
0.670025
0.672361
0.673357
0.673085
0.672083
0.670434
0.670186
0.643516
0.644963
0.647568
0.650035
0.652483
0.654504
0.655661
0.655893
0.655521
0.655233
0.655873
0.657255
0.658456
0.658848
0.658169
0.656498
0.654336
0.652131
0.649516
0.648111
0.629186
0.63116
0.633981
0.636816
0.639671
0.642504
0.644968
0.646835
0.648068
0.648869
0.6496
0.65008
0.649841
0.648733
0.646868
0.644496
0.641949
0.639227
0.636429
0.634504
0.621856
0.623455
0.625655
0.628179
0.630842
0.633509
0.636099
0.63852
0.640538
0.642053
0.64292
0.642949
0.642127
0.640616
0.638724
0.636582
0.63425
0.631906
0.62981
0.628235
0.618418
0.61944
0.620707
0.62257
0.624717
0.626889
0.629084
0.631372
0.633595
0.635448
0.636478
0.636485
0.635716
0.634513
0.633123
0.631573
0.629887
0.628316
0.627199
0.626182
0.615767
0.616436
0.617069
0.618372
0.619988
0.621674
0.62343
0.625363
0.627436
0.629398
0.630659
0.630979
0.63065
0.630034
0.629253
0.628299
0.627242
0.626314
0.625866
0.625189
0.61253
0.612977
0.613372
0.614366
0.615628
0.617013
0.618511
0.620176
0.622032
0.624005
0.62552
0.626312
0.626577
0.626524
0.626244
0.625771
0.625185
0.624647
0.624457
0.623993
0.608467
0.608764
0.609122
0.609991
0.611104
0.612377
0.613814
0.615424
0.617229
0.619242
0.621115
0.622436
0.623212
0.623592
0.623673
0.623532
0.623234
0.622905
0.622775
0.622451
0.603762
0.603963
0.604334
0.605164
0.606254
0.607558
0.609081
0.610821
0.612793
0.615042
0.617319
0.619143
0.62035
0.621053
0.621377
0.621457
0.621326
0.621139
0.62103
0.620794
0.598581
0.598727
0.599098
0.599909
0.601059
0.602499
0.604216
0.60621
0.608516
0.611196
0.613985
0.616275
0.617843
0.618813
0.619357
0.619595
0.619661
0.619621
0.619544
0.619356
0.592988
0.593098
0.593478
0.594296
0.595514
0.597107
0.599069
0.601405
0.604156
0.607382
0.610796
0.613639
0.615615
0.616914
0.617712
0.618175
0.618444
0.618527
0.618491
0.618325
0.58698
0.58705
0.587429
0.588274
0.589608
0.591383
0.593607
0.596332
0.599664
0.603629
0.607781
0.61126
0.613719
0.615396
0.61656
0.617321
0.617794
0.618013
0.618019
0.617865
0.580459
0.580496
0.580916
0.581825
0.583302
0.585292
0.587829
0.591016
0.594997
0.599811
0.604892
0.609089
0.612176
0.614406
0.615997
0.617105
0.617829
0.6182
0.61825
0.618098
0.573368
0.573339
0.573757
0.574755
0.576446
0.578703
0.581587
0.58528
0.589985
0.595764
0.601932
0.60717
0.611067
0.613945
0.616075
0.617588
0.61859
0.619116
0.619218
0.619064
0.565336
0.565317
0.565775
0.56689
0.568812
0.571371
0.574709
0.579035
0.584589
0.591515
0.599012
0.605504
0.610449
0.614132
0.61688
0.618866
0.620191
0.620881
0.621038
0.620876
0.556298
0.556322
0.55675
0.557974
0.560197
0.563187
0.567144
0.572294
0.578939
0.587309
0.596435
0.604323
0.610422
0.615065
0.618539
0.621032
0.622715
0.623583
0.623793
0.623616
0.545799
0.545777
0.54632
0.547769
0.550388
0.553988
0.558784
0.56503
0.573072
0.583176
0.594209
0.603807
0.611205
0.616848
0.621076
0.624197
0.626278
0.627325
0.627585
0.62739
0.533375
0.533308
0.533983
0.535808
0.538958
0.543339
0.549231
0.556891
0.566731
0.579026
0.59237
0.603942
0.61282
0.619588
0.624699
0.628463
0.630969
0.632203
0.632507
0.632285
0.518683
0.518578
0.51935
0.521558
0.525454
0.530901
0.538224
0.547781
0.560004
0.575046
0.591034
0.604735
0.615271
0.623312
0.629412
0.633918
0.636884
0.638284
0.63862
0.638369
0.500727
0.500643
0.501641
0.504394
0.509281
0.516194
0.525504
0.537567
0.552782
0.571094
0.590192
0.606301
0.618622
0.628082
0.635287
0.640605
0.64405
0.645623
0.645974
0.645689
0.478531
0.478386
0.479694
0.483292
0.489701
0.498774
0.51082
0.526171
0.545035
0.567187
0.589796
0.608682
0.623059
0.634041
0.642409
0.648591
0.652491
0.654199
0.654542
0.654221
0.449881
0.449887
0.451966
0.457025
0.465733
0.477922
0.493733
0.513226
0.536402
0.562968
0.589656
0.611726
0.62839
0.64108
0.650757
0.657785
0.662098
0.663925
0.66423
0.663871
0.412073
0.41231
0.415811
0.42368
0.436312
0.453344
0.474372
0.499239
0.527763
0.559486
0.590573
0.615829
0.634812
0.649283
0.66028
0.668219
0.672868
0.674697
0.674923
0.674533
0.361677
0.362048
0.368984
0.382156
0.401222
0.425414
0.453475
0.485048
0.51985
0.557291
0.592887
0.621392
0.642658
0.658827
0.671138
0.679746
0.684415
0.685965
0.686025
0.685682
0.295244
0.298055
0.313071
0.334383
0.362355
0.395508
0.431752
0.470803
0.512522
0.556331
0.597201
0.629392
0.653463
0.671849
0.685599
0.695098
0.699812
0.701016
0.700969
0.700795
0.219732
0.22912
0.254151
0.285293
0.323381
0.365601
0.410052
0.456849
0.505934
0.556588
0.603186
0.639993
0.667632
0.688503
0.704339
0.714802
0.719465
0.720232
0.72017
0.720127
0.152173
0.166824
0.198128
0.238109
0.285718
0.336714
0.389172
0.443578
0.499697
0.556851
0.609042
0.650497
0.681327
0.704772
0.722142
0.73348
0.738258
0.738866
0.739071
0.739046
0.100635
0.113769
0.150356
0.196426
0.251341
0.309797
0.369568
0.431166
0.494191
0.557994
0.616174
0.661351
0.694917
0.720366
0.739089
0.751325
0.756356
0.757514
0.757641
0.757681
0.0580592
0.0704543
0.110765
0.160762
0.221146
0.285593
0.35183
0.420033
0.489649
0.559642
0.622709
0.671504
0.7079
0.735192
0.755398
0.768194
0.77395
0.775391
0.775469
0.775552
0.0216365
0.0342914
0.0772582
0.13013
0.194886
0.264212
0.335971
0.409877
0.485131
0.560467
0.628235
0.68098
0.719616
0.748607
0.770291
0.783755
0.789864
0.791505
0.791627
0.791702
-0.0101357
0.0027323
0.0478607
0.10333
0.171743
0.245091
0.321458
0.400169
0.480367
0.561021
0.633835
0.689535
0.730323
0.760883
0.78334
0.797441
0.803995
0.805809
0.806009
0.806085
-0.0384452
-0.0255385
0.0212911
0.0792442
0.150767
0.227511
0.307836
0.390818
0.475693
0.561283
0.638011
0.696694
0.739686
0.77132
0.794539
0.809357
0.816122
0.818135
0.818385
0.81843
-0.0642741
-0.0513538
-0.00327563
0.0570485
0.131318
0.211054
0.294872
0.381707
0.47082
0.56074
0.641452
0.703365
0.747819
0.780658
0.804214
0.819427
0.826563
0.828734
0.829041
0.829057
-0.0883902
-0.0751537
-0.0262859
0.0362283
0.11294
0.195377
0.282328
0.372578
0.465447
0.559463
0.644323
0.708846
0.754988
0.788809
0.812869
0.828349
0.835595
0.837896
0.838203
0.838189
-0.111058
-0.0975952
-0.0479225
0.0164832
0.0953152
0.180204
0.269936
0.36317
0.459445
0.557404
0.646232
0.713519
0.761542
0.796345
0.820829
0.836091
0.843538
0.845674
0.846084
0.845949
-0.132412
-0.118903
-0.0684515
-0.00242354
0.0782088
0.165251
0.257434
0.353375
0.45284
0.554509
0.647152
0.717717
0.767817
0.803398
0.82813
0.843199
0.850298
0.85256
0.852836
0.852701
-0.152835
-0.139192
-0.0880819
-0.0207076
0.0614424
0.150378
0.244765
0.343196
0.445581
0.550635
0.647142
0.72126
0.773534
0.810427
0.835084
0.849641
0.85655
0.858593
0.858857
0.858753
-0.17274
-0.158603
-0.107035
-0.0385119
0.0449553
0.135559
0.231911
0.332589
0.437578
0.545876
0.646453
0.724261
0.779302
0.817507
0.842129
0.856118
0.862372
0.864127
0.864324
0.864227
-0.192334
-0.177434
-0.125446
-0.0558974
0.0287199
0.120796
0.21889
0.32157
0.428956
0.540417
0.644893
0.726535
0.784926
0.825085
0.849927
0.862851
0.86819
0.869211
0.869312
0.869255
-0.211475
-0.195826
-0.143407
-0.0728922
0.012749
0.106115
0.205727
0.310198
0.419797
0.534119
0.642225
0.728135
0.790325
0.833142
0.858806
0.87074
0.874108
0.873975
0.873848
0.87372
-0.230103
-0.213846
-0.160913
-0.0894778
-0.00293861
0.0915344
0.192457
0.298523
0.410129
0.526972
0.638467
0.728771
0.795248
0.841792
0.869399
0.880283
0.881101
0.878702
0.878319
0.879182
-0.248102
-0.231397
-0.177936
-0.105643
-0.0183109
0.0771059
0.17914
0.286607
0.400004
0.519049
0.633573
0.728197
0.799575
0.850698
0.881777
0.893087
0.891003
0.884439
0.879427
0.878154
-0.265502
-0.24842
-0.194412
-0.12134
-0.0333198
0.0628859
0.165851
0.274515
0.38945
0.510375
0.627462
0.726076
0.802581
0.859606
0.895834
0.909957
0.908571
0.897141
0.896435
0.900602
-0.282257
-0.264816
-0.210292
-0.136533
-0.0479125
0.0489544
0.152679
0.262319
0.378518
0.501037
0.620264
0.722341
0.804018
0.867389
0.910638
0.930868
0.932145
0.903182
0.863591
0.828644
-0.298347
-0.280624
-0.225604
-0.151272
-0.0621713
0.0351986
0.139481
0.249837
0.366985
0.490797
0.61176
0.716523
0.802667
0.873076
0.925382
0.954921
0.97116
0.950385
0.967445
1.02698
-0.313701
-0.295856
-0.240444
-0.165705
-0.0762768
0.0213999
0.125987
0.236738
0.354445
0.479132
0.601337
0.707875
0.797553
0.873669
0.931801
0.965899
0.974573
0.951279
0.90927
0.924717
-0.328314
-0.310517
-0.254762
-0.179766
-0.0901478
0.00764866
0.112314
0.223171
0.341058
0.466106
0.588891
0.696161
0.786617
0.864649
0.923675
0.957539
0.943334
0.888286
0.823786
0.811324
-0.342151
-0.324562
-0.268559
-0.193469
-0.103795
-0.00605567
0.098481
0.209178
0.326864
0.45172
0.57434
0.681058
0.769725
0.843326
0.896915
0.903892
0.867855
0.790025
0.715041
0.692048
-0.355268
-0.338016
-0.281844
-0.206823
-0.117236
-0.019727
0.0844918
0.194775
0.31189
0.43599
0.557606
0.66234
0.745457
0.807601
0.836439
0.822851
0.763651
0.661473
0.573757
0.551173
-0.368104
-0.351245
-0.295008
-0.220207
-0.130829
-0.033674
0.0700838
0.17974
0.295949
0.418741
0.538434
0.639405
0.715167
0.761429
0.756279
0.721005
0.609156
0.486246
0.378509
0.351013
-0.381552
-0.365089
-0.308744
-0.234221
-0.145131
-0.0483742
0.0548443
0.163723
0.278764
0.39977
0.516587
0.611923
0.680492
0.702344
0.668884
0.58057
0.424225
0.271268
0.141667
0.113785
-0.396122
-0.37988
-0.323375
-0.249123
-0.160329
-0.063958
0.0386852
0.14668
0.260335
0.379064
0.491966
0.580715
0.638815
0.632404
0.580137
0.430148
0.230415
0.0178845
-0.162207
-0.210868
-0.411954
-0.395807
-0.338956
-0.264904
-0.176389
-0.0803981
0.0216263
0.128636
0.240721
0.356735
0.464602
0.547355
0.590647
0.552556
0.465484
0.277818
0.0470297
-0.241232
-0.561995
-0.710149
-0.429098
-0.41286
-0.355618
-0.281699
-0.193392
-0.0977656
0.00360227
0.109542
0.219887
0.332791
0.434818
0.511221
0.536771
0.46827
0.332121
0.127188
-0.106185
-0.449205
-1.0349
-1.60628
-0.447672
-0.431263
-0.373423
-0.299522
-0.211339
-0.116053
-0.0153567
0.089467
0.197986
0.307673
0.403804
0.472265
0.479133
0.394128
0.203365
-0.0293953
-0.231389
-0.465086
-1.01883
-2.53032
-0.467655
-0.450931
-0.392494
-0.318566
-0.230428
-0.135468
-0.035486
0.0681401
0.174689
0.280984
0.37117
0.4301
0.416579
0.336179
0.110587
-0.126788
-0.273862
-0.310404
-0.299305
-0.686223
-0.489023
-0.472219
-0.412981
-0.339055
-0.251019
-0.156502
-0.0574133
0.0447786
0.149046
0.251377
0.336009
0.384603
0.35527
0.28689
0.0608871
-0.140468
-0.250567
-0.25802
-0.204602
-0.24467
-0.511577
-0.494719
-0.434915
-0.361151
-0.273258
-0.179297
-0.0812964
0.0192223
0.120861
0.218703
0.298415
0.33718
0.301369
0.233732
0.0292438
-0.130603
-0.212173
-0.219912
-0.267905
-0.271916
-0.535484
-0.518605
-0.458171
-0.384725
-0.297057
-0.203864
-0.107185
-0.00860551
0.0901046
0.183308
0.258306
0.287663
0.254657
0.173282
0.00135346
-0.120531
-0.190308
-0.167388
-0.187778
-0.189358
-0.560263
-0.543199
-0.482701
-0.409833
-0.32238
-0.230146
-0.135
-0.0385746
0.0569022
0.145552
0.215893
0.234571
0.213984
0.105854
-0.0333362
-0.115556
-0.153925
-0.201703
-0.176437
-0.184913
-0.585745
-0.568344
-0.508273
-0.436117
-0.348867
-0.257964
-0.164562
-0.0704981
0.0213793
0.105792
0.172197
0.180465
0.171524
0.0454574
-0.0702731
-0.134082
-0.110808
-0.170607
-0.151496
-0.156345
-0.610915
-0.59336
-0.534766
-0.463425
-0.376354
-0.287107
-0.195583
-0.104011
-0.0162029
0.0644253
0.128167
0.129004
0.11969
-0.00610855
-0.0968527
-0.148192
-0.136731
-0.151454
-0.156941
-0.155082
-0.635529
-0.618087
-0.561423
-0.490797
-0.404266
-0.317176
-0.227669
-0.138751
-0.0553151
0.0217652
0.0841317
0.0812835
0.0626486
-0.0488923
-0.110956
-0.141509
-0.180468
-0.152317
-0.157977
-0.152478
-0.658445
-0.641737
-0.587094
-0.517618
-0.432504
-0.347686
-0.260282
-0.174124
-0.0951028
-0.0218585
0.0400442
0.0381877
0.00564137
-0.0850934
-0.124424
-0.114784
-0.187246
-0.132624
-0.147594
-0.140019
-0.679104
-0.663524
-0.610838
-0.542556
-0.460346
-0.377767
-0.292756
-0.209595
-0.134647
-0.0660649
-0.00491162
-0.00282809
-0.0396581
-0.104312
-0.134837
-0.0943976
-0.138711
-0.120319
-0.126868
-0.123941
-0.695801
-0.681878
-0.631796
-0.565523
-0.487044
-0.406557
-0.324271
-0.244285
-0.172945
-0.109919
-0.0501055
-0.0421849
-0.0727971
-0.107151
-0.1282
-0.105187
-0.11799
-0.119424
-0.120446
-0.120764
-0.707785
-0.695998
-0.64914
-0.585303
-0.510592
-0.432974
-0.353844
-0.277357
-0.209217
-0.152263
-0.094277
-0.0791737
-0.100936
-0.103917
-0.118766
-0.131805
-0.123188
-0.12885
-0.124132
-0.125004
-0.71354
-0.704184
-0.661548
-0.601101
-0.530227
-0.455985
-0.380421
-0.30757
-0.242468
-0.191191
-0.135165
-0.115994
-0.133894
-0.109296
-0.102563
-0.133045
-0.115581
-0.135877
-0.129068
-0.133043
-0.71315
-0.705927
-0.667595
-0.610887
-0.544131
-0.474118
-0.402711
-0.333714
-0.271787
-0.224713
-0.170983
-0.152608
-0.172527
-0.131157
-0.0551725
-0.0895833
-0.0753767
-0.0994896
-0.106361
-0.115572
-0.705499
-0.698155
-0.665027
-0.613818
-0.552059
-0.486518
-0.419395
-0.354113
-0.295227
-0.250711
-0.200656
-0.188877
-0.20867
-0.220067
-0.173049
-0.222698
-0.234366
-0.231009
-0.229217
-0.227194
-0.685561
-0.677251
-0.652048
-0.60802
-0.552193
-0.491913
-0.42951
-0.367474
-0.31048
-0.266752
-0.220252
-0.210486
-0.269948
-0.416645
-0.676327
-0.803106
-0.837974
-0.808037
-0.740544
-0.686372
-0.644238
-0.636404
-0.626541
-0.594188
-0.545705
-0.490508
-0.432417
-0.372473
-0.315075
-0.269051
-0.223982
-0.197863
-0.301147
-0.500318
-0.753025
-0.854352
-0.846087
-0.773741
-0.71759
-0.681579
-0.602153
-0.599127
-0.598168
-0.572776
-0.532824
-0.483762
-0.428985
-0.369357
-0.307867
-0.25431
-0.202363
-0.132782
-0.0914977
-0.0462886
-0.0326945
0.0419398
0.140659
0.210284
0.275109
0.327262
-0.578993
-0.580312
-0.571318
-0.554355
-0.521043
-0.47466
-0.419886
-0.359192
-0.290626
-0.21948
-0.148494
-0.0108398
0.168313
0.465143
0.758395
1.00321
1.17719
1.27658
1.31911
1.33953
-0.547694
-0.547932
-0.543874
-0.539141
-0.510813
-0.466913
-0.410953
-0.346579
-0.270279
-0.180413
-0.0842163
0.0647184
0.302732
0.64923
0.990445
1.27267
1.47003
1.58618
1.6406
1.66075
-0.528313
-0.52683
-0.529077
-0.523224
-0.500677
-0.458946
-0.40206
-0.333799
-0.252579
-0.151941
-0.0423441
0.0852546
0.331445
0.645297
0.956122
1.2228
1.42435
1.54741
1.60285
1.61906
-0.513137
-0.511645
-0.515246
-0.507948
-0.49446
-0.454993
-0.396388
-0.324406
-0.240325
-0.137016
-0.0269471
0.0678944
0.280363
0.550221
0.811206
1.03695
1.21737
1.32643
1.37477
1.38767
-0.492669
-0.491421
-0.491239
-0.484594
-0.485478
-0.451377
-0.393905
-0.320307
-0.236158
-0.137334
-0.0330237
0.0369415
0.20368
0.430461
0.641771
0.81984
0.963792
1.05156
1.08966
1.09923
-0.489798
-0.487959
-0.483276
-0.481639
-0.483097
-0.4502
-0.392929
-0.319002
-0.236718
-0.147265
-0.0491009
0.00738677
0.129012
0.314462
0.482118
0.617471
0.725343
0.792917
0.822139
0.829699
-0.506354
-0.504993
-0.503191
-0.512845
-0.503929
-0.461251
-0.394922
-0.317475
-0.236922
-0.158322
-0.0664947
-0.0159334
0.0677294
0.215208
0.345862
0.446561
0.524648
0.574757
0.595505
0.599706
-0.528093
-0.529822
-0.534425
-0.543395
-0.529173
-0.474577
-0.394055
-0.312309
-0.23306
-0.164747
-0.0803902
-0.0334663
0.0212949
0.136424
0.235256
0.308044
0.364317
0.401012
0.415358
0.420093
-0.51189
-0.515614
-0.524287
-0.534527
-0.516608
-0.455762
-0.376639
-0.297628
-0.221899
-0.16299
-0.0891693
-0.0455008
-0.0111717
0.0774324
0.150366
0.202199
0.243732
0.273585
0.28369
0.286408
-0.415708
-0.420961
-0.432014
-0.438036
-0.426067
-0.382778
-0.325383
-0.264092
-0.200639
-0.151325
-0.091744
-0.0533839
-0.0302968
0.0376665
0.0902506
0.126599
0.157511
0.176461
0.185129
0.187707
-0.269739
-0.273768
-0.278443
-0.283029
-0.278509
-0.262362
-0.237747
-0.206077
-0.165319
-0.129412
-0.0873706
-0.0566446
-0.0391582
0.0128371
0.0491199
0.0745063
0.0942288
0.105139
0.109724
0.110687
-0.134963
-0.136789
-0.140108
-0.145425
-0.148022
-0.149236
-0.147222
-0.138895
-0.120803
-0.101315
-0.0765411
-0.0546502
-0.0397665
-0.00358213
0.0206625
0.0369027
0.0478732
0.0531672
0.0542775
0.053677
-0.0363629
-0.0373617
-0.0396164
-0.0459673
-0.0563677
-0.0676407
-0.0764884
-0.0809003
-0.0783686
-0.0729359
-0.0610688
-0.0480238
-0.0362603
-0.0138398
0.000670162
0.00952643
0.0143963
0.0153598
0.0143617
0.0131165
0.0212118
0.0204135
0.0185023
0.0119258
-0.00086294
-0.0163305
-0.0300432
-0.0403149
-0.0455707
-0.0487285
-0.0447285
-0.038388
-0.0315987
-0.0197311
-0.0128624
-0.00961295
-0.00860591
-0.00994288
-0.0120251
-0.0134818
0.0484558
0.0478704
0.046179
0.0401935
0.0283037
0.0127126
-0.00223024
-0.0150098
-0.0237389
-0.030678
-0.0303662
-0.0286032
-0.0274487
-0.0227416
-0.0211079
-0.0212517
-0.022605
-0.0250538
-0.0272124
-0.0286063
0.0574768
0.0570142
0.0556285
0.0506979
0.0407639
0.0272248
0.0132964
0.000171641
-0.0097305
-0.0181936
-0.0193823
-0.0203655
-0.0231308
-0.0227421
-0.0240219
-0.0260426
-0.0286836
-0.0315494
-0.0335741
-0.034853
0.05674
0.0563969
0.0553116
0.0515265
0.0438434
0.0330611
0.0212501
0.00911608
-0.000574374
-0.00961476
-0.0118516
-0.0140851
-0.0182394
-0.0198405
-0.0226445
-0.0259273
-0.0291028
-0.0318826
-0.033686
-0.0348092
0.0515098
0.0512699
0.0504535
0.0476538
0.0419722
0.0338195
0.0244017
0.0141131
0.00563912
-0.00331593
-0.00647511
-0.00931038
-0.0133308
-0.0154649
-0.0189715
-0.0226224
-0.025844
-0.0283333
-0.0297961
-0.030775
0.0446621
0.0445172
0.0439459
0.041988
0.0379583
0.0320258
0.0248316
0.0165923
0.00971941
0.00129865
-0.00221713
-0.00519161
-0.0086009
-0.0106056
-0.0142615
-0.0178042
-0.0206895
-0.0227958
-0.0238609
-0.0246759
0.037445
0.037357
0.0369427
0.0355682
0.0327521
0.0285651
0.023313
0.0170062
0.0118584
0.00454546
0.00134516
-0.00123283
-0.00414629
-0.00625197
-0.00955209
-0.0124893
-0.0147947
-0.0163934
-0.017029
-0.0177201
0.0306772
0.0306265
0.0303565
0.0294119
0.02742
0.0243654
0.020461
0.0156059
0.0120834
0.0063269
0.00399219
0.00210591
-0.000368461
-0.00262464
-0.0054743
-0.00769164
-0.00934097
-0.0103408
-0.0106852
-0.0113126
0.0244975
0.0244804
0.0243107
0.0237015
0.0223838
0.0202264
0.0173396
0.0135322
0.0111428
0.00681699
0.00540729
0.00409021
0.00200548
0.000188513
-0.00203579
-0.00380076
-0.00500391
-0.00570201
-0.00587839
-0.00641736
0.0187518
0.018729
0.0186194
0.0182199
0.0173655
0.0159854
0.014111
0.0113515
0.00980499
0.00657413
0.00568861
0.00475072
0.00305384
0.00160267
-2.24997e-05
-0.00121865
-0.00201264
-0.00252935
-0.00266965
-0.00314181
0.0136645
0.0136323
0.0135525
0.013344
0.0128599
0.0120208
0.0109039
0.00900351
0.00815649
0.00562716
0.00509377
0.00448687
0.00320835
0.00202685
0.000800119
0.000220388
-0.000139339
-0.000428127
-0.000475415
-0.000904148
0.00925329
0.00922213
0.00917406
0.00906467
0.00884035
0.0084145
0.00781204
0.00645236
0.00616654
0.00419133
0.00410832
0.00372515
0.00258207
0.00193553
0.000933752
0.000709236
0.000688469
0.000619697
0.000606764
0.000170672
0.00534498
0.00531339
0.00530225
0.00525991
0.00514949
0.00489143
0.00470145
0.00377988
0.00397317
0.00246196
0.0027038
0.00273326
0.00181353
0.001635
0.000780852
0.000438708
0.000353612
0.00025791
0.000350113
3.73767e-05
0.00198836
0.0019766
0.00199653
0.00201158
0.00197339
0.00176711
0.00180716
0.00121263
0.00170749
0.000724273
0.00113202
0.00160724
0.00112786
0.00125836
7.76841e-05
-0.000835624
-0.00177976
-0.00251494
-0.00232046
-0.00236134
-1.07463
-0.235794
0.0342283
0.310142
0.491303
0.646785
0.772323
0.900344
1.0414
1.12431
-0.0952831
0.310985
0.327092
0.515096
0.638512
0.749261
0.844511
0.929432
0.956734
0.914814
0.280839
0.494326
0.529054
0.665279
0.750806
0.830296
0.895883
0.945124
0.947144
0.961289
0.509756
0.652349
0.687287
0.788742
0.845536
0.902963
0.947653
0.979931
0.988952
1.01265
0.687282
0.788407
0.818147
0.885511
0.929927
0.970784
1.00283
1.02707
1.03682
1.06841
0.830281
0.898937
0.929227
0.971993
1.00801
1.03807
1.06231
1.08303
1.09714
1.12544
0.949268
0.999747
1.02528
1.05319
1.0808
1.10454
1.12447
1.14371
1.15858
1.1851
1.05294
1.0899
1.11095
1.13156
1.15233
1.1717
1.18909
1.20719
1.22207
1.24573
1.14686
1.17594
1.19227
1.20752
1.22361
1.23966
1.25521
1.27212
1.28574
1.30806
1.23508
1.25553
1.27038
1.28353
1.2971
1.31087
1.32437
1.33896
1.35051
1.37015
1.3205
1.33628
1.35011
1.36192
1.37383
1.38547
1.39661
1.40829
1.41596
1.43277
1.40573
1.41827
1.43198
1.44373
1.45437
1.46417
1.47299
1.48126
1.48482
1.49606
1.49448
1.5053
1.51877
1.5283
1.53587
1.54316
1.55035
1.55684
1.55793
1.5653
1.59289
1.59749
1.60569
1.61044
1.61383
1.61832
1.62431
1.63198
1.63588
1.64575
1.7062
1.69309
1.6858
1.68008
1.67735
1.6787
1.68504
1.69741
1.71222
1.74189
1.82819
1.77215
1.74113
1.72393
1.71571
1.71565
1.72448
1.74408
1.7759
1.84516
)
;

boundaryField
{
    wall-4
    {
        type            zeroGradient;
    }
    pressure-outlet-7
    {
        type            fixedValue;
        value           uniform 0;
    }
    velocity-inlet-6
    {
        type            zeroGradient;
    }
    velocity-inlet-5
    {
        type            zeroGradient;
    }
    frontAndBackPlanes
    {
        type            empty;
    }
}


// ************************************************************************* //
