/*--------------------------------*- C++ -*----------------------------------*\
  =========                 |
  \\      /  F ield         | OpenFOAM: The Open Source CFD Toolbox
   \\    /   O peration     | Website:  https://openfoam.org
    \\  /    A nd           | Version:  10
     \\/     M anipulation  |
\*---------------------------------------------------------------------------*/
FoamFile
{
    format      ascii;
    class       surfaceScalarField;
    location    "55";
    object      phi;
}
// * * * * * * * * * * * * * * * * * * * * * * * * * * * * * * * * * * * * * //

dimensions      [0 3 -1 0 0 0 0];

internalField   nonuniform List<scalar> 
4262
(
0.10714
0.470849
0.0955719
0.705154
0.0693961
0.858479
0.0474162
1.02074
0.0310567
1.21488
0.0198319
1.44944
0.0124112
1.73328
0.00719825
2.07625
0.00326679
2.48917
-0.000433982
2.98599
-0.00407781
2.98594
-0.0078683
2.48903
-0.0128883
2.07606
-0.0200782
1.73305
-0.0310819
1.44922
-0.0471766
1.21461
-0.0689361
1.02052
-0.0952043
0.858571
-0.107069
0.705451
0.470919
0.112879
0.357969
0.135308
0.682725
0.120411
0.873375
0.0978261
1.04333
0.0745671
1.23813
0.0528578
1.47115
0.0344644
1.75168
0.02026
2.09045
0.00896931
2.50047
-0.0011706
2.99613
-0.0113232
2.99609
-0.0225339
2.50024
-0.0366008
2.09012
-0.0548494
1.7513
-0.0765992
1.47097
-0.100282
1.23829
-0.123426
1.04367
-0.136978
0.872123
-0.11355
0.682023
0.357369
0.0920381
0.265931
0.12496
0.649804
0.121089
0.877246
0.104858
1.05956
0.0862054
1.25679
0.0670869
1.49027
0.0481411
1.77062
0.0300697
2.10852
0.0134997
2.51704
-0.00241137
3.01204
-0.0180065
3.01168
-0.0340601
2.5163
-0.0516149
2.10768
-0.0700736
1.76976
-0.0884224
1.48932
-0.105677
1.25555
-0.119832
1.05782
-0.125203
0.877494
-0.0923266
0.649146
0.265043
0.064054
0.201877
0.104951
0.608907
0.106751
0.875446
0.0953708
1.07094
0.081448
1.27071
0.0666967
1.50502
0.0505711
1.78675
0.0334265
2.12567
0.015781
2.53468
-0.00290591
3.03073
-0.0215322
3.03031
-0.0388673
2.53363
-0.0553249
2.12414
-0.0706229
1.78506
-0.0844997
1.5032
-0.0982089
1.26926
-0.109966
1.06958
-0.107014
0.874542
-0.0648978
0.60703
0.200145
0.0374641
0.164413
0.080673
0.565698
0.0909602
0.865159
0.0837278
1.07817
0.071127
1.28331
0.0593022
1.51685
0.0463464
1.79971
0.0314263
2.14059
0.0144087
2.5517
-0.00475315
3.04989
-0.0233114
3.04887
-0.0391953
2.54952
-0.0531557
2.1381
-0.0653131
1.79722
-0.0766007
1.51449
-0.088537
1.28119
-0.0949342
1.07598
-0.0831204
0.862728
-0.0383641
0.562274
0.161781
0.0194714
0.144942
0.0572598
0.52791
0.0727199
0.849699
0.0706576
1.08023
0.0618638
1.2921
0.0509653
1.52775
0.0397575
1.81091
0.0271498
2.1532
0.012225
2.56662
-0.0052618
3.06738
-0.0226477
3.06625
-0.0370143
2.56388
-0.0485168
2.1496
-0.0585524
1.80725
-0.0684783
1.52441
-0.0762086
1.28892
-0.0770737
1.07684
-0.0599617
0.845616
-0.0203634
0.522675
0.141417
0.0106538
0.134288
0.0424216
0.496142
0.0585594
0.833561
0.0588694
1.07992
0.052769
1.2982
0.0434383
1.53708
0.0330691
1.82128
0.0216925
2.16457
0.00834292
2.57997
-0.00775055
3.08347
-0.0231142
3.08162
-0.0350175
2.57579
-0.0449377
2.15952
-0.053718
1.81603
-0.0615421
1.53224
-0.0660658
1.29345
-0.0641568
1.07493
-0.0458318
0.827291
-0.0116807
0.488524
0.129736
0.00658585
0.127702
0.0330153
0.469713
0.0493224
0.817254
0.0508518
1.0784
0.0457876
1.30327
0.037486
1.54538
0.0278872
1.83088
0.0169853
2.17548
0.00494541
2.59201
-0.00876808
3.09719
-0.0222229
3.09507
-0.0331677
2.58673
-0.0424121
2.16876
-0.0502005
1.82382
-0.056786
1.53882
-0.0599939
1.29666
-0.0563218
1.07126
-0.0371937
0.808163
-0.00786609
0.459197
0.12187
0.004744
0.122958
0.0266554
0.447801
0.0425229
0.801386
0.0446871
1.07623
0.0400873
1.30787
0.0324506
1.55302
0.0233805
1.83995
0.0129379
2.18592
0.0012515
2.6037
-0.0119588
3.1104
-0.0239866
3.1071
-0.0336925
2.59644
-0.0418635
2.17693
-0.0486131
1.83057
-0.0539706
1.54418
-0.0562966
1.29898
-0.0513926
1.06636
-0.0318515
0.788622
-0.00632377
0.433669
0.115547
0.00379798
0.11916
0.0218498
0.429749
0.0370895
0.786146
0.0398544
1.07347
0.0354647
1.31226
0.0280926
1.56039
0.0193251
1.84872
0.00925699
2.19599
-0.00197905
2.61494
-0.0138979
3.12232
-0.0252502
3.11845
-0.034629
2.60582
-0.0421058
2.18441
-0.0482329
1.8367
-0.053073
1.54902
-0.0543643
1.30027
-0.0479966
1.05999
-0.0281253
0.76875
-0.00571413
0.411258
0.109832
0.00306622
0.116094
0.0176108
0.415205
0.0316383
0.772119
0.0347264
1.07038
0.0306872
1.3163
0.0236113
1.56746
0.0151555
1.85717
0.00538652
2.20576
-0.00579802
2.62612
-0.018153
3.13467
-0.0290382
3.12934
-0.0370938
2.61387
-0.0436581
2.19098
-0.0489493
1.84199
-0.0527504
1.55282
-0.0529476
1.30047
-0.045314
1.05236
-0.0253807
0.748817
-0.00545803
0.391335
0.104374
0.0024129
0.113681
0.0139742
0.403643
0.0266989
0.759394
0.0299415
1.06714
0.0260408
1.3202
0.0190611
1.57444
0.0105939
1.86564
0.000884608
2.21546
-0.00985265
2.63686
-0.0214602
3.14628
-0.0319173
3.1398
-0.0400184
2.62197
-0.045835
2.19679
-0.0501885
1.84634
-0.0529542
1.55559
-0.0523532
1.29987
-0.0432678
1.04327
-0.0232991
0.728848
-0.00526539
0.373302
0.0991091
0.00171902
0.111962
0.0106099
0.394753
0.0214791
0.748525
0.0242
1.06441
0.0203019
1.3241
0.0134755
1.58127
0.00508094
1.87404
-0.00457807
2.22512
-0.0155599
2.64784
-0.0274207
3.15814
-0.0374386
3.14981
-0.0440112
2.62855
-0.0487246
2.20151
-0.0522987
1.84992
-0.0540203
1.55731
-0.0525945
1.29844
-0.0422516
1.03293
-0.022065
0.708662
-0.00521217
0.356449
0.0938969
0.000898219
0.111064
0.00727812
0.388373
0.0166024
0.7392
0.0189935
1.06202
0.0146727
1.32842
0.0073713
1.58857
-0.00120456
1.88261
-0.0108526
2.23477
-0.0213525
2.65834
-0.0324846
3.16927
-0.041677
3.15901
-0.0479501
2.63482
-0.0519894
2.20554
-0.054679
1.85261
-0.0555203
1.55815
-0.0530149
1.29594
-0.0415282
1.02144
-0.0211438
0.688277
-0.00513451
0.34044
0.0887624
0.000182027
0.110882
0.00435258
0.384202
0.0112392
0.732314
0.0123456
1.06092
0.00763982
1.33312
0.000140509
1.59607
-0.00899908
1.89175
-0.0191713
2.24494
-0.0301048
2.66927
-0.0411011
3.18027
-0.0495244
3.16743
-0.0541255
2.63942
-0.0568431
2.20826
-0.0588466
1.85461
-0.0588753
1.55818
-0.0549135
1.29198
-0.0418237
1.00835
-0.0208356
0.667289
-0.00516205
0.324766
0.0836003
-0.000778476
0.11166
0.000655248
0.382768
0.00557823
0.727391
0.0060783
1.06042
0.000588438
1.33861
-0.00798487
1.60464
-0.0177102
1.90148
-0.0279709
2.2552
-0.0385063
2.67981
-0.0487784
3.19054
-0.0562209
3.17487
-0.0604502
2.64365
-0.0626511
2.21046
-0.0636942
1.85565
-0.0628049
1.55729
-0.0574505
1.28662
-0.0426843
0.993585
-0.0209763
0.645581
-0.00530119
0.309091
0.0782992
-0.00160095
0.113261
-0.00236795
0.383535
-0.000275825
0.725299
-0.0018715
1.06201
-0.00815515
1.3449
-0.01708
1.61357
-0.0275559
1.91195
-0.0390447
2.26669
-0.0508123
2.69158
-0.0612376
3.20096
-0.0678405
3.18147
-0.0708771
2.64669
-0.071692
2.21128
-0.0712944
1.85525
-0.0687019
1.5547
-0.0613442
1.27926
-0.0444946
0.976736
-0.0216512
0.622738
-0.00554361
0.292983
0.0727556
-0.00296519
0.116226
-0.00609077
0.386661
-0.0075599
0.726768
-0.0103959
1.06485
-0.0176288
1.35213
-0.0278138
1.62375
-0.0392644
1.9234
-0.0512528
2.27868
-0.0629457
2.70327
-0.0729873
3.21101
-0.0790249
3.18751
-0.0810106
2.64867
-0.0804231
2.21069
-0.0791483
1.85398
-0.0756207
1.55117
-0.0663141
1.26996
-0.0472007
0.957622
-0.0228451
0.598382
-0.00591364
0.276052
0.0668419
-0.00426244
0.120489
-0.0103391
0.392738
-0.0152219
0.731651
-0.0211301
1.07076
-0.0296753
1.36067
-0.0408552
1.63493
-0.0534781
1.93603
-0.0671037
2.29231
-0.080416
2.71658
-0.0909222
3.22151
-0.0954023
3.19199
-0.0957695
2.64904
-0.0945717
2.20949
-0.0909878
1.8504
-0.0848122
1.54499
-0.0728537
1.258
-0.0509249
0.935693
-0.0245167
0.571974
-0.00637321
0.257908
0.0604687
-0.00573353
0.126222
-0.0153937
0.402398
-0.0242495
0.740507
-0.033041
1.07955
-0.0436298
1.37126
-0.0567192
1.64802
-0.0709655
1.95027
-0.085433
2.30678
-0.0986245
2.72977
-0.108153
3.23104
-0.111909
3.19575
-0.111191
2.64832
-0.107374
2.20568
-0.10283
1.84585
-0.0956882
1.53785
-0.0808903
1.2432
-0.055532
0.910335
-0.0266114
0.543053
-0.0069084
0.238205
0.0535603
-0.00801628
0.134239
-0.0221625
0.416544
-0.0363712
0.754715
-0.048636
1.09181
-0.0613701
1.384
-0.0766553
1.66331
-0.0929718
1.96659
-0.109353
2.32316
-0.123844
2.74426
-0.13389
3.24109
-0.135485
3.19734
-0.131965
2.6448
-0.12676
2.20047
-0.119433
1.83852
-0.108792
1.52721
-0.0904787
1.22489
-0.0611725
0.881029
-0.0290784
0.510959
-0.00748831
0.216615
0.046072
-0.0104498
0.144688
-0.0293884
0.435483
-0.0496614
0.774988
-0.0667314
1.10888
-0.0826427
1.39991
-0.100607
1.68127
-0.119293
1.98527
-0.137005
2.34087
-0.151393
2.75865
-0.159426
3.24912
-0.159335
3.19725
-0.153819
2.63928
-0.145638
2.19229
-0.136631
1.82952
-0.124116
1.5147
-0.101539
1.20231
-0.0673892
0.846879
-0.0316555
0.475225
-0.0080253
0.192985
0.0380467
-0.0150999
0.159788
-0.0414466
0.461829
-0.0684925
0.802034
-0.0906465
1.13104
-0.110549
1.41981
-0.132539
1.70326
-0.15412
2.00686
-0.17371
2.36046
-0.188335
2.77327
-0.194792
3.25558
-0.190922
3.19338
-0.18199
2.63035
-0.171735
2.18204
-0.159386
1.81717
-0.142073
1.49738
-0.114545
1.17478
-0.0747368
0.807071
-0.0344834
0.434972
-0.0085322
0.167034
0.0295145
-0.019351
0.179139
-0.0549089
0.497387
-0.0920343
0.83916
-0.121808
1.16081
-0.147096
1.4451
-0.172784
1.72895
-0.196371
2.03044
-0.215632
2.37972
-0.228056
2.7857
-0.231147
3.25867
-0.224454
3.18669
-0.212352
2.61825
-0.197812
2.1675
-0.182502
1.80186
-0.162079
1.47696
-0.12813
1.14083
-0.081582
0.760523
-0.0368199
0.39021
-0.00871496
0.138929
0.0207995
-0.0325014
0.211641
-0.0816445
0.54653
-0.129112
0.886627
-0.165302
1.197
-0.195928
1.47572
-0.225652
1.75868
-0.250288
2.05508
-0.269454
2.39889
-0.280474
2.79672
-0.278758
3.25695
-0.264942
3.17287
-0.247844
2.60115
-0.231406
2.15106
-0.212207
1.78266
-0.184608
1.44936
-0.143539
1.09977
-0.0896082
0.706592
-0.03917
0.339772
-0.00868764
0.108447
0.0121119
-0.0469031
0.258544
-0.120316
0.619943
-0.183332
0.949644
-0.228065
1.24173
-0.264677
1.51234
-0.295113
1.78911
-0.317561
2.07753
-0.33201
2.41334
-0.335473
2.80018
-0.32656
3.24804
-0.309098
3.15541
-0.288793
2.58085
-0.265866
2.12813
-0.241551
1.75834
-0.209188
1.417
-0.158515
1.04909
-0.0945839
0.642661
-0.0394262
0.284614
-0.00855919
0.0775795
0.0035527
-0.0338853
0.292429
-0.0972203
0.683278
-0.155686
1.00811
-0.202819
1.28887
-0.245322
1.55484
-0.283239
1.82703
-0.318479
2.11277
-0.350078
2.44493
-0.374654
2.82476
-0.387331
3.26072
-0.380214
3.14829
-0.361547
2.56218
-0.341381
2.10797
-0.311742
1.7287
-0.261819
1.36707
-0.188938
0.976212
-0.105295
0.559017
-0.0410718
0.220391
-0.0092619
0.0457696
-0.00570919
-0.0128374
0.305267
-0.0478594
0.7183
-0.0893328
1.04958
-0.128516
1.32805
-0.167383
1.59371
-0.20169
1.86133
-0.233378
2.14445
-0.260242
2.4718
-0.277704
2.84222
-0.278078
3.26109
-0.264207
3.13442
-0.245693
2.54367
-0.217872
2.08014
-0.184411
1.69524
-0.144082
1.32674
-0.0927645
0.924895
-0.0428078
0.509061
-0.0147812
0.192365
-0.00352615
0.0345146
-0.00923534
7.38535e-05
0.305193
-0.0249194
0.743293
-0.0546044
1.07927
-0.0846083
1.35805
-0.115865
1.62496
-0.146203
1.89167
-0.17407
2.17232
-0.196725
2.49445
-0.210312
2.85581
-0.211577
3.26236
-0.198482
3.12133
-0.172537
2.51772
-0.143209
2.05082
-0.11048
1.66251
-0.0713498
1.28761
-0.0322434
0.885788
-0.00648443
0.483302
0.000292985
0.185587
-0.000111279
0.0349189
-0.00934661
0.000697305
0.304495
-0.012671
0.756662
-0.034141
1.10074
-0.0588036
1.38272
-0.0846837
1.65084
-0.110197
1.91719
-0.133512
2.19564
-0.152091
2.51303
-0.162275
2.86599
-0.159473
3.25956
-0.139888
3.10174
-0.113324
2.49116
-0.0846458
2.02214
-0.0516236
1.62949
-0.0217678
1.25776
0.000669877
0.863351
0.0106131
0.473358
0.00750683
0.188693
0.00200353
0.0404222
-0.00734309
0.00399413
0.300501
-0.00544459
0.7661
-0.0234301
1.11872
-0.0440248
1.40331
-0.0655626
1.67238
-0.0869826
1.93861
-0.107098
2.21575
-0.123377
2.52931
-0.132141
2.87475
-0.128381
3.2558
-0.109398
3.08276
-0.0833624
2.46512
-0.0526435
1.99142
-0.0252423
1.60209
0.00229391
1.23022
0.0212049
0.84444
0.0227114
0.471852
0.0130896
0.198315
0.00366029
0.0498515
-0.0036828
0.00516564
0.295336
-0.000916593
0.772183
-0.0168393
1.13465
-0.0351179
1.42159
-0.0542667
1.69153
-0.0732447
1.95758
-0.0910025
2.23351
-0.105253
2.54356
-0.11219
2.88169
-0.106638
3.25024
-0.0883338
3.06445
-0.0635764
2.44037
-0.0368866
1.96473
-0.00745928
1.57266
0.0137992
1.20896
0.0254751
0.832764
0.0249364
0.472391
0.0142343
0.209017
0.00411936
0.0599664
0.000436559
0.00405868
0.291277
-0.000295551
0.776537
-0.0136625
1.14801
-0.0303469
1.43827
-0.0475773
1.70876
-0.0647414
1.97475
-0.0809025
2.24967
-0.0938281
2.55649
-0.100421
2.88828
-0.0959088
3.24573
-0.0788317
3.04738
-0.0550203
2.41656
-0.0283315
1.93804
-0.00610195
1.55043
0.0145152
1.18835
0.0261184
0.82116
0.0234724
0.475037
0.0135219
0.218968
0.00398243
0.0695059
0.00441899
0.00251445
0.288763
-0.00118151
0.780233
-0.013165
1.16
-0.0280648
1.45317
-0.044213
1.72491
-0.0602194
1.99075
-0.0753631
2.26482
-0.0880167
2.56914
-0.0952717
2.89554
-0.0914279
3.24189
-0.0752151
3.03116
-0.0533312
2.39467
-0.0309577
1.91567
-0.00658044
1.52606
0.0108888
1.17088
0.0198536
0.812196
0.0192991
0.475591
0.0110194
0.227248
0.00332141
0.0772039
0.0077404
0.00035822
0.288404
-0.00326762
0.783859
-0.013894
1.17062
-0.0273356
1.46661
-0.0423901
1.73996
-0.0576487
2.00601
-0.0724549
2.27962
-0.0851494
2.58184
-0.0924916
2.90288
-0.0898824
3.23928
-0.0754586
3.01674
-0.0546937
2.37391
-0.0328662
1.89384
-0.0149332
1.50812
0.00276055
1.15318
0.0139084
0.801048
0.0132643
0.476235
0.0078769
0.232635
0.00244793
0.0826328
0.0101883
-0.000571981
0.288976
-0.00557532
0.788862
-0.0153109
1.18036
-0.0277536
1.47906
-0.0421178
1.75433
-0.0568628
2.02076
-0.071485
2.29424
-0.0845627
2.59491
-0.0932431
2.91156
-0.0932702
3.2393
-0.0801317
3.0036
-0.0613431
2.35512
-0.0430354
1.87553
-0.0216325
1.48672
-0.00608305
1.13763
0.00330631
0.791659
0.00640361
0.473138
0.00399633
0.235042
0.00153692
0.0850923
0.0117253
-0.00204489
0.291021
-0.00724987
0.794067
-0.0167103
1.18982
-0.028531
1.49088
-0.042153
1.76795
-0.0565375
2.03514
-0.0712363
2.30894
-0.0848148
2.60849
-0.0944634
2.92121
-0.095876
3.24072
-0.0851064
2.99283
-0.0683774
2.33839
-0.0485851
1.85574
-0.0326844
1.47082
-0.0161351
1.12109
-0.00384942
0.779373
-0.000329355
0.469618
0.000450072
0.234263
0.000363579
0.0851788
0.0120888
-0.00348658
0.294508
-0.00912863
0.799709
-0.0181874
1.19888
-0.0295791
1.50227
-0.0428122
1.78118
-0.0568542
2.04918
-0.0715551
2.32364
-0.0858423
2.62278
-0.0971944
2.93256
-0.101193
3.24472
-0.092885
2.98452
-0.07771
2.32321
-0.0610212
1.83905
-0.0404643
1.45026
-0.0241962
1.10482
-0.0126621
0.767839
-0.00517081
0.462127
-0.00211693
0.231209
-0.00030451
0.0833663
0.0117843
-0.00412828
0.298636
-0.0101855
0.805766
-0.0193151
1.20801
-0.0303506
1.51331
-0.0430634
1.7939
-0.0568893
2.06301
-0.07183
2.33858
-0.0868099
2.63776
-0.0994408
2.94519
-0.105713
3.25099
-0.101432
2.98024
-0.0880292
2.30981
-0.0671075
1.81813
-0.0494511
1.43261
-0.0311805
1.08655
-0.0166849
0.753343
-0.00936777
0.45481
-0.00365841
0.2255
-0.000759078
0.080467
0.0110252
-0.00439657
0.303033
-0.011209
0.812579
-0.0202219
1.21702
-0.0309758
1.52406
-0.0434814
1.8064
-0.0571245
2.07665
-0.0721384
2.3536
-0.0877169
2.65334
-0.101921
2.9594
-0.111075
3.26014
-0.108667
2.97784
-0.0960063
2.29715
-0.0790752
1.8012
-0.0554603
1.40899
-0.0359419
1.06703
-0.0215991
0.739
-0.0107525
0.443963
-0.00445825
0.219205
-0.000946374
0.0769551
0.0100789
-0.00442728
0.30746
-0.0115426
0.819694
-0.020661
1.22614
-0.0311943
1.53459
-0.0433167
1.81852
-0.0567844
2.09012
-0.0719591
2.36877
-0.0881132
2.66949
-0.103804
2.97509
-0.115682
3.27202
-0.117408
2.97956
-0.106603
2.28635
-0.0840507
1.77864
-0.0619436
1.38689
-0.0390492
1.04413
-0.0212309
0.721182
-0.0110917
0.433824
-0.00393491
0.212049
-0.000847938
0.0738682
0.00923093
-0.00455585
0.312016
-0.0120028
0.827141
-0.0208807
1.23502
-0.0311742
1.54489
-0.0431422
1.83049
-0.0564514
2.10343
-0.0716388
2.38396
-0.0883252
2.68618
-0.105363
2.99212
-0.119602
3.28626
-0.123404
2.98336
-0.113628
2.27657
-0.0961118
1.76113
-0.0670947
1.35787
-0.0400747
1.01711
-0.0204635
0.701571
-0.00664395
0.420004
-0.00092542
0.20633
0.000558102
0.0723846
0.00978904
-0.00455577
0.316572
-0.0119328
0.834518
-0.0207432
1.24383
-0.0308176
1.55496
-0.0424166
1.84209
-0.0555041
2.11652
-0.0707448
2.3992
-0.0878512
2.70328
-0.106023
3.0103
-0.122847
3.30308
-0.131161
2.99168
-0.124157
2.26957
-0.10127
1.73824
-0.0732202
1.32982
-0.0399514
0.983845
-0.0131157
0.674735
0.00128083
0.405608
0.00418269
0.203428
-0.00113437
0.0777017
0.00865467
-0.0046033
0.321175
-0.0120286
0.841943
-0.0204899
1.25229
-0.0302496
1.56472
-0.04163
1.85347
-0.0545308
2.12942
-0.0697037
2.41437
-0.0871435
2.72072
-0.106295
3.02945
-0.125011
3.3218
-0.135353
3.00202
-0.130796
2.26501
-0.114379
1.72182
-0.0798909
1.29533
-0.0397024
0.943656
-0.0018566
0.636889
0.0282292
0.375522
0.0390168
0.19264
0.0261027
0.0906159
0.0347573
-0.0044681
0.325643
-0.0116567
0.849132
-0.0199695
1.2606
-0.0294524
1.5742
-0.0404177
1.86444
-0.0530288
2.14203
-0.0681145
2.42946
-0.0857317
2.73834
-0.105609
3.04933
-0.126331
3.34252
-0.140394
3.01608
-0.140869
2.26548
-0.120742
1.7017
-0.0884218
1.26301
-0.0404894
0.895724
0.00806116
0.588339
0.049678
0.333905
0.048428
0.19389
0.0213312
0.117713
0.0560885
-0.00434688
0.32999
-0.0114734
0.856258
-0.0193915
1.26852
-0.0284796
1.58329
-0.0391915
1.87515
-0.05157
2.15441
-0.0664897
2.44438
-0.0842182
2.75607
-0.104755
3.06986
-0.127005
3.36477
-0.14267
3.03175
-0.146221
2.26904
-0.135541
1.69102
-0.100676
1.22815
-0.0491792
0.844227
0.0232503
0.515909
0.121967
0.235188
0.195122
0.120736
0.182479
0.130355
0.238568
-0.00418723
0.334177
-0.0111045
0.863176
-0.0190618
1.27648
-0.0282025
1.59243
-0.039041
1.88599
-0.0518392
2.16721
-0.0676654
2.4602
-0.0869461
2.77535
-0.110079
3.09299
-0.136678
3.39137
-0.15902
3.05409
-0.169173
2.27919
-0.157576
1.67942
-0.127108
1.19768
-0.0677181
0.784837
-0.0106587
0.45885
-0.0650186
0.289548
-0.356846
0.412563
-0.942273
0.715782
0.9005
-1.6042
-0.00403781
0.338215
-0.0108923
0.87003
-0.0185491
1.28413
-0.0274836
1.60137
-0.0382896
1.89679
-0.0512593
2.18018
-0.067526
2.47647
-0.0877927
2.79562
-0.112887
3.11809
-0.143106
3.42159
-0.169921
3.0809
-0.184373
2.29364
-0.190897
1.68594
-0.170322
1.1771
-0.141764
0.756279
-0.235366
0.552452
-0.693308
0.74749
-1.44422
1.16348
-2.05139
1.32295
1.21666
-2.36755
-0.00379893
0.342014
-0.0102895
0.876521
-0.017812
1.29166
-0.0266204
1.61017
-0.0372636
1.90744
-0.0502762
2.19319
-0.0669179
2.49311
-0.0880418
2.81674
-0.114901
3.14495
-0.148581
3.45527
-0.182045
3.11437
-0.206888
2.31848
-0.214328
1.69338
-0.202045
1.16482
-0.287904
0.842138
-0.753341
1.01789
-1.54686
1.54101
-2.11111
1.72773
-2.35005
1.5619
1.33081
-2.46421
-0.00365692
0.345671
-0.00991483
0.882778
-0.0170581
1.2988
-0.0255905
1.61871
-0.0361194
1.91796
-0.0492301
2.2063
-0.0662134
2.5101
-0.0882121
2.83874
-0.116951
3.17369
-0.154531
3.49285
-0.193792
3.15363
-0.22371
2.3484
-0.249997
1.71967
-0.328296
1.24312
-0.683681
1.19752
-1.43859
1.7728
-2.02769
2.13011
-2.26721
1.96724
-2.38028
1.67497
1.39492
-2.44439
-0.00334352
0.349014
-0.00913251
0.888567
-0.016051
1.30572
-0.0243894
1.62705
-0.0347603
1.92834
-0.0478318
2.21937
-0.0650446
2.52731
-0.0877236
2.86142
-0.118065
3.20403
-0.159061
3.53384
-0.20562
3.20019
-0.249101
2.39188
-0.29016
1.76073
-0.470885
1.42384
-1.09417
1.82081
-1.78874
2.46737
-2.1087
2.45007
-2.2567
2.11525
-2.33869
1.75696
1.46081
-2.40457
-0.00331897
0.352333
-0.0091269
0.894375
-0.0159188
1.31251
-0.0242364
1.63536
-0.0348837
1.93898
-0.048324
2.23281
-0.0661001
2.54509
-0.0898049
2.88512
-0.122072
3.2363
-0.166973
3.57874
-0.219786
3.253
-0.265901
2.438
-0.354441
1.84927
-0.746091
1.81549
-1.4906
2.56531
-1.96319
2.93996
-2.16299
2.64987
-2.26912
2.22139
-2.3462
1.83403
1.52423
-2.40962
-0.00337859
0.355712
-0.00930659
0.900303
-0.0165931
1.3198
-0.0254429
1.64421
-0.0365819
1.95012
-0.0506251
2.24685
-0.0692425
2.5637
-0.0941375
2.91002
-0.128348
3.27051
-0.177006
3.6274
-0.234317
3.31031
-0.296326
2.50001
-0.484661
2.03761
-1.0462
2.37703
-1.67845
3.19756
-1.95348
3.215
-2.10025
2.79664
-2.214
2.33513
-2.30751
1.92754
1.58584
-2.36911
-0.0034906
0.359202
-0.00992165
0.906734
-0.0174823
1.32736
-0.0267175
1.65345
-0.0384232
1.96183
-0.0532146
2.26165
-0.0727863
2.58327
-0.0990808
2.93631
-0.135409
3.30684
-0.187943
3.67994
-0.250838
3.37321
-0.336355
2.58552
-0.61786
2.31911
-1.26389
3.02306
-1.7526
3.68627
-1.95957
3.42197
-2.09929
2.93636
-2.22294
2.45878
-2.33325
2.03785
1.64439
-2.39181
-0.00341732
0.36262
-0.00990423
0.913221
-0.0181372
1.33559
-0.0280696
1.66338
-0.0403356
1.97409
-0.0557665
2.27708
-0.0762203
2.60373
-0.103722
2.96381
-0.141921
3.34503
-0.19751
3.73552
-0.264914
3.44061
-0.389148
2.70976
-0.775401
2.70536
-1.41028
3.65794
-1.76265
4.03864
-1.93541
3.59472
-2.03718
3.03813
-2.12559
2.54719
-2.19267
2.10494
1.63712
-2.1854
-0.0034152
0.366035
-0.0105085
0.920315
-0.01899
1.34407
-0.0293076
1.6737
-0.0422259
1.98701
-0.0584864
2.29334
-0.07996
2.6252
-0.108914
2.99277
-0.149135
3.38526
-0.20649
3.79288
-0.284816
3.51894
-0.45471
2.87965
-0.906817
3.15747
-1.46257
4.2137
-1.72412
4.30019
-1.87562
3.74622
-1.96874
3.13125
-1.96998
2.54844
-1.90069
2.03565
1.60127
-1.86485
-0.00316974
0.369205
-0.0100893
0.927234
-0.0193226
1.3533
-0.0303812
1.68476
-0.0437697
2.0004
-0.0604066
2.30997
-0.0822544
2.64705
-0.111484
3.022
-0.151954
3.42573
-0.208899
3.84982
-0.294486
3.60453
-0.498712
3.08388
-0.988475
3.64723
-1.42951
4.65473
-1.5944
4.46509
-1.66138
3.81319
-1.66574
3.13561
-1.51801
2.4007
-1.0179
1.53554
0.583374
-0.00274629
0.371951
-0.0105213
0.935009
-0.0199234
1.36271
-0.0314226
1.69626
-0.0458381
2.01482
-0.0639339
2.32807
-0.0877666
2.67088
-0.119887
3.05412
-0.164528
3.47037
-0.227819
3.91312
-0.330451
3.70716
-0.584783
3.33821
-1.12422
4.18667
-1.48238
5.01289
-1.5815
4.5642
-1.57922
3.81091
-1.47536
3.03175
-1.23636
2.16171
-0.632259
0.931437
-0.0488845
-0.00237545
0.374326
-0.00930568
0.941939
-0.0195914
1.37299
-0.0322451
1.70891
-0.0476658
2.03024
-0.0669749
2.34738
-0.0925874
2.6965
-0.127206
3.08874
-0.175969
3.51913
-0.245685
3.98283
-0.368436
3.82991
-0.682578
3.65235
-1.24237
4.74646
-1.50295
5.27347
-1.56112
4.62237
-1.53899
3.78879
-1.33704
2.8298
-0.783362
1.60803
-0.108972
0.257047
-0.157857
-0.00172139
0.376048
-0.00933356
0.949552
-0.0194356
1.38309
-0.032291
1.72177
-0.0486123
2.04656
-0.0693802
2.36815
-0.0970459
2.72416
-0.134773
3.12646
-0.187454
3.57181
-0.264903
4.06028
-0.412952
3.97796
-0.785483
4.02488
-1.32089
5.28187
-1.49694
5.44952
-1.52822
4.65364
-1.44006
3.70063
-1.10243
2.49218
-0.313499
0.819091
0.0249596
-0.0814121
-0.132897
-0.000469008
0.376517
-0.00659717
0.95568
-0.0175758
1.39407
-0.0317609
1.73595
-0.0490399
2.06384
-0.0709003
2.39001
-0.100214
2.75347
-0.140103
3.16635
-0.19557
3.62728
-0.281759
4.14647
-0.456833
4.15303
-0.894989
4.46304
-1.36585
5.75272
-1.48228
5.56596
-1.4849
4.65626
-1.25997
3.47569
-0.687035
1.91925
-0.0625601
0.194616
0.0304812
-0.174453
-0.102416
0.000207864
0.376309
-0.00542331
0.961311
-0.0157366
1.40439
-0.0297627
1.74998
-0.0475133
2.08159
-0.0707313
2.41323
-0.101912
2.78466
-0.144487
3.20893
-0.203132
3.68592
-0.298446
4.24178
-0.499009
4.35359
-0.987047
4.95108
-1.36151
6.12719
-1.42566
5.63011
-1.37915
4.60975
-1.09039
3.18694
-0.322943
1.1518
0.00512253
-0.133449
0.0152898
-0.184621
-0.0871263
0.00331071
0.372998
0.000379274
0.964242
-0.0110273
1.41579
-0.0265318
1.76548
-0.0449444
2.1
-0.0690192
2.4373
-0.101339
2.81698
-0.145263
3.25285
-0.206456
3.74711
-0.309821
4.34515
-0.537417
4.58119
-1.05034
5.464
-1.32535
6.40221
-1.36573
5.67049
-1.22589
4.46991
-0.773025
2.73407
-0.0695705
0.448346
0.0449929
-0.248013
0.0246094
-0.164237
-0.0625169
0.00467376
0.368324
0.00285732
0.966059
-0.00676402
1.42541
-0.0206365
1.77935
-0.0387573
2.11812
-0.0638508
2.46239
-0.0974279
2.85055
-0.143373
3.2988
-0.207199
3.81094
-0.318591
4.45654
-0.575632
4.83823
-1.07046
5.95882
-1.26086
6.59261
-1.27059
5.68022
-1.05134
4.25066
-0.460507
2.14323
-0.0172641
0.00510259
-0.0055122
-0.259765
0.00560715
-0.175357
-0.0569098
0.00867145
0.359653
0.00998865
0.964742
0.00230619
1.4331
-0.0121556
1.79382
-0.0309861
2.13695
-0.056185
2.48759
-0.0898003
2.88417
-0.135425
3.34442
-0.200593
3.87611
-0.317962
4.57391
-0.596793
5.11706
-1.04914
6.41117
-1.17163
6.71511
-1.15693
5.66551
-0.897144
3.99088
-0.263912
1.51
-0.0705842
-0.188225
-0.0384885
-0.29186
-0.0136945
-0.200151
-0.0706042
0.0116775
0.347976
0.0166215
0.959798
0.0118755
1.43784
0.00138022
1.80431
-0.0173239
2.15566
-0.0421045
2.51237
-0.0756123
2.91768
-0.121929
3.39074
-0.187898
3.94208
-0.30943
4.69544
-0.595962
5.4036
-0.982691
6.79789
-1.0489
6.78132
-0.978125
5.59474
-0.679747
3.6925
-0.0751771
0.905427
0.0118047
-0.275207
-0.00327287
-0.276783
-0.00267203
-0.200751
-0.0732762
0.0184908
0.329485
0.0300726
0.948216
0.028255
1.43966
0.0167056
1.81586
-0.00136049
2.17372
-0.0237967
2.53481
-0.0555896
2.94947
-0.0994534
3.4346
-0.163173
4.0058
-0.283405
4.81567
-0.56074
5.68093
-0.870053
7.10721
-0.905002
6.81627
-0.807226
5.49696
-0.451663
3.33694
0.0600465
0.393717
0.0710766
-0.286237
0.0523792
-0.258085
0.0197302
-0.168102
-0.053546
0.0244966
0.304988
0.0430017
0.929711
0.0465208
1.43614
0.0399433
1.82244
0.0272078
2.18646
0.00549146
2.55653
-0.0243594
2.97932
-0.0661292
3.47637
-0.127124
4.06679
-0.242256
4.9308
-0.488685
5.92736
-0.710488
7.32901
-0.741509
6.84729
-0.631067
5.38652
-0.305809
3.01168
-0.00480575
0.0927147
0.016034
-0.307077
0.0315211
-0.273572
0.0165684
-0.15315
-0.0369776
0.0350055
0.269983
0.0650057
0.899711
0.0753962
1.42575
0.0713198
1.82651
0.0603259
2.19745
0.041611
2.57524
0.0153894
3.00554
-0.0214397
3.5132
-0.0749678
4.12032
-0.172112
5.02795
-0.370843
6.12609
-0.525355
7.48352
-0.552572
6.87451
-0.458297
5.29224
-0.180135
2.73352
-0.0589504
-0.0284703
-0.0400946
-0.325933
-0.0117011
-0.301966
-0.000314055
-0.164537
-0.0372916
0.0444986
0.225484
0.0873324
0.856877
0.108061
1.40502
0.113011
1.82156
0.108764
2.2017
0.0947257
2.58928
0.0741016
3.02617
0.0430475
3.54426
-0.00651042
4.16988
-0.0791538
5.10059
-0.213599
6.26054
-0.299596
7.56952
-0.319335
6.89425
-0.255992
5.2289
-0.0432917
2.52082
-0.0707894
-0.000972603
-0.0741671
-0.322555
-0.0331645
-0.342968
0.0109691
-0.20867
-0.0263225
0.0573817
0.168102
0.119697
0.794561
0.155492
1.36923
0.166858
1.8102
0.166714
2.20184
0.157318
2.59868
0.143837
3.03965
0.123661
3.56443
0.0922602
4.20128
0.0495103
5.14334
0.00365885
6.30639
-0.0329459
7.60612
-0.0307529
6.89206
-0.04966
5.24781
-0.0438302
2.51499
-0.257821
0.213018
-0.255757
-0.32462
-0.150627
-0.448098
-0.00923581
-0.350061
-0.0355583
0.0599245
0.108178
0.149814
0.704672
0.206696
1.31235
0.234191
1.7827
0.245814
2.19022
0.245112
2.59938
0.239895
3.04486
0.229677
3.57465
0.215709
4.21525
0.199989
5.15906
0.266236
6.24014
0.323187
7.54917
0.282699
6.93254
0.0794033
5.4511
-0.258045
2.85243
-0.61559
0.570564
-0.611644
-0.328565
-0.455069
-0.604674
-0.20457
-0.60056
-0.240129
0.0506048
0.0575729
0.182014
0.573263
0.275646
1.21871
0.319454
1.73889
0.338982
2.17069
0.346978
2.59138
0.349043
3.0428
0.35474
3.56895
0.365279
4.20471
0.39301
5.13133
0.552454
6.0807
0.729762
7.37187
0.748052
6.91425
0.650878
5.54828
0.175746
3.32757
-0.378831
1.12514
-0.675292
-0.0321031
-0.613191
-0.666775
-0.336183
-0.877568
-0.576312
0.0350848
0.022488
0.216329
0.392019
0.341939
1.0931
0.418933
1.6619
0.459479
2.13014
0.482848
2.56801
0.493099
3.03255
0.510955
3.5511
0.544363
4.1713
0.615943
5.05975
0.908332
5.78831
1.35496
6.92524
1.69233
6.57688
1.92884
5.31176
1.5989
3.65751
0.89431
1.82973
0.289205
0.573002
-0.0587059
-0.318864
-0.152234
-0.78404
-0.728546
0.0311303
-0.00864223
0.235301
0.187848
0.437912
0.890492
0.548212
1.5516
0.599462
2.0789
0.633193
2.53428
0.655377
3.01036
0.686178
3.5203
0.747766
4.10971
0.880072
4.92744
1.27571
5.39267
1.99091
6.21003
2.36787
6.19993
2.57607
5.10356
2.42197
3.81162
1.85734
2.39436
1.29993
1.13041
0.71277
0.268292
0.248173
-0.319444
-0.480372
0.0272577
-0.0358999
0.168851
0.0462547
0.486472
0.572871
0.675276
1.3628
0.771348
1.98282
0.821978
2.48365
0.859795
2.97255
0.889044
3.49105
0.96413
4.03463
1.11011
4.78146
1.48958
5.0132
2.27517
5.42445
2.64415
5.83094
2.83509
4.91262
2.73553
3.91118
2.2561
2.87378
1.61121
1.7753
0.988075
0.891429
0.429688
0.238942
-0.0506837
0.00730207
-0.043202
0.0876026
-0.0340458
0.41168
0.248794
0.687982
1.08649
0.81559
1.85522
0.853148
2.44609
0.864454
2.96124
0.853552
3.50195
0.851954
4.03623
0.895373
4.73804
1.03112
4.87745
1.44408
5.01149
1.62984
5.64518
1.65272
4.88974
1.5745
3.9894
1.35984
3.08844
1.00341
2.13174
0.637095
1.25774
0.260589
0.615448
0.209905
0.00105861
-0.0442606
0.0407291
-0.0737163
0.226912
0.0626104
0.516181
0.797226
0.679517
1.69188
0.732925
2.39269
0.745693
2.94847
0.740516
3.50712
0.724837
4.0519
0.744203
4.71868
0.803798
4.81785
1.06541
4.74988
1.27854
5.43204
1.28416
4.88412
1.22285
4.05071
1.07154
3.23976
0.800121
2.40316
0.499891
1.55797
0.208374
0.906965
0.418279
0.0010496
-0.0453102
0.0232371
-0.0959038
0.10345
-0.017602
0.358724
0.541951
0.525644
1.52496
0.602013
2.31632
0.621685
2.9288
0.621721
3.50709
0.597824
4.0758
0.589493
4.72701
0.615993
4.79135
0.773129
4.59275
0.955778
5.24939
0.952606
4.88729
0.890931
4.11239
0.774943
3.35574
0.587888
2.59021
0.359306
1.78655
0.140856
1.12542
0.559135
-0.00905556
-0.0362546
-0.00147572
-0.103484
0.0423493
-0.061427
0.249042
0.335259
0.399349
1.37465
0.467865
2.2478
0.486048
2.91062
0.490671
3.50247
0.475821
4.09065
0.461876
4.74096
0.463501
4.78973
0.557644
4.4986
0.690043
5.117
0.686841
4.8905
0.622921
4.17631
0.528756
3.44991
0.397093
2.72188
0.233507
1.95014
0.0817093
1.27721
0.640844
0.0108238
-0.0470784
0.0481138
-0.140774
0.0894053
-0.102718
0.197174
0.22749
0.307386
1.26444
0.353285
2.2019
0.362863
2.90104
0.367182
3.49815
0.361819
4.09601
0.351153
4.75162
0.341722
4.79916
0.389406
4.45092
0.477562
5.02884
0.472767
4.89529
0.416761
4.23231
0.344825
3.52184