/*--------------------------------*- C++ -*----------------------------------*\
  =========                 |
  \\      /  F ield         | OpenFOAM: The Open Source CFD Toolbox
   \\    /   O peration     | Website:  https://openfoam.org
    \\  /    A nd           | Version:  10
     \\/     M anipulation  |
\*---------------------------------------------------------------------------*/
FoamFile
{
    format      ascii;
    class       volScalarField;
    location    "29";
    object      p;
}
// * * * * * * * * * * * * * * * * * * * * * * * * * * * * * * * * * * * * * //

dimensions      [0 2 -2 0 0 0 0];

internalField   nonuniform List<scalar> 
8800
(
1.52294
1.47515
1.43646
1.40745
1.38658
1.37173
1.3611
1.35358
1.34871
1.34657
1.34773
1.35182
1.35839
1.36764
1.38037
1.39808
1.42283
1.45676
1.4993
1.558
1.3542
1.36188
1.36934
1.37265
1.37114
1.36604
1.35954
1.35343
1.34866
1.34574
1.34536
1.34775
1.35215
1.35802
1.36473
1.37097
1.37458
1.37383
1.36839
1.35968
1.33262
1.33878
1.34291
1.34584
1.34788
1.34847
1.34733
1.34519
1.34311
1.3421
1.34295
1.34522
1.34792
1.35003
1.35058
1.34933
1.34696
1.34354
1.33897
1.3352
1.32686
1.3295
1.33225
1.33465
1.33628
1.33742
1.33813
1.3382
1.33783
1.33768
1.33829
1.33934
1.34007
1.34005
1.33936
1.33822
1.33635
1.33375
1.33132
1.32982
1.32153
1.32295
1.32473
1.32677
1.32854
1.32987
1.33083
1.33157
1.33211
1.33255
1.33305
1.33339
1.33336
1.33296
1.33217
1.33084
1.32908
1.32718
1.32585
1.32502
1.31653
1.31745
1.3187
1.32027
1.3219
1.32342
1.32468
1.32569
1.32656
1.32731
1.32781
1.32796
1.32775
1.32717
1.32616
1.32486
1.32344
1.32211
1.32126
1.32071
1.31173
1.31239
1.31337
1.31469
1.31611
1.31757
1.31899
1.32027
1.32137
1.32231
1.32291
1.32304
1.32274
1.32204
1.32106
1.31997
1.31883
1.31782
1.31719
1.31679
1.30708
1.3076
1.3084
1.30956
1.31086
1.31225
1.31369
1.31512
1.31644
1.31757
1.31831
1.31849
1.31819
1.31755
1.31672
1.3158
1.31487
1.31406
1.31359
1.31328
1.30255
1.30295
1.30364
1.30469
1.30593
1.30728
1.30871
1.31021
1.31171
1.31309
1.314
1.31429
1.3141
1.31362
1.31297
1.3122
1.31141
1.31077
1.3104
1.31016
1.29806
1.29839
1.29898
1.29997
1.30118
1.30251
1.30397
1.30553
1.30717
1.30876
1.30992
1.31045
1.31049
1.3102
1.3097
1.30909
1.30844
1.30792
1.30763
1.30744
1.29357
1.29382
1.29436
1.29532
1.29653
1.2979
1.29943
1.30112
1.30294
1.3048
1.30628
1.30709
1.30737
1.30727
1.30693
1.30646
1.30593
1.30551
1.30529
1.30514
1.28903
1.28923
1.28973
1.29069
1.29194
1.29338
1.29502
1.29688
1.29896
1.30115
1.30303
1.3042
1.30475
1.30487
1.30471
1.30437
1.30395
1.30362
1.30346
1.30333
1.28441
1.28457
1.28504
1.286
1.28729
1.2888
1.29054
1.29259
1.29497
1.29762
1.29997
1.30155
1.30246
1.3029
1.30299
1.30284
1.30254
1.30231
1.3022
1.3021
1.27966
1.27977
1.28022
1.2812
1.28256
1.28419
1.28613
1.28845
1.29118
1.29433
1.2973
1.29946
1.30082
1.30158
1.30191
1.30197
1.30182
1.30169
1.30163
1.30156
1.2748
1.27485
1.27527
1.27626
1.27769
1.27945
1.2816
1.28426
1.28752
1.29137
1.29507
1.29785
1.29973
1.30092
1.30161
1.30191
1.30197
1.30197
1.30197
1.30191
1.26958
1.26963
1.27002
1.27098
1.27245
1.27433
1.27673
1.27978
1.2836
1.28826
1.29291
1.29654
1.2991
1.30084
1.30198
1.30266
1.30304
1.30322
1.30327
1.30322
1.26364
1.26368
1.26408
1.26507
1.26665
1.26877
1.27156
1.27521
1.27987
1.2856
1.29135
1.29591
1.29922
1.30157
1.30323
1.30432
1.305
1.30534
1.30543
1.30537
1.25662
1.25665
1.2571
1.25816
1.25995
1.26241
1.2657
1.27006
1.27572
1.28276
1.28992
1.29569
1.29994
1.30301
1.30524
1.30678
1.30778
1.30829
1.30842
1.30836
1.24816
1.24819
1.24872
1.24997
1.25209
1.25505
1.25907
1.26443
1.27141
1.2801
1.28897
1.29612
1.30144
1.30533
1.30817
1.31018
1.31151
1.31217
1.31233
1.31225
1.23783
1.23787
1.23852
1.24007
1.24268
1.24635
1.25134
1.25801
1.26668
1.27745
1.28839
1.29721
1.30377
1.3086
1.31216
1.31469
1.31635
1.31714
1.31734
1.31725
1.2251
1.22516
1.22599
1.22796
1.23126
1.23591
1.24223
1.25065
1.26151
1.27485
1.28829
1.29906
1.30709
1.31299
1.31736
1.32049
1.32252
1.32347
1.3237
1.32359
1.20922
1.20929
1.21037
1.21296
1.21726
1.22329
1.23144
1.2422
1.25586
1.27238
1.28879
1.30185
1.31153
1.31867
1.32403
1.32783
1.33025
1.33137
1.33164
1.33151
1.18913
1.18921
1.19066
1.19416
1.19995
1.20797
1.21868
1.23254
1.24976
1.27013
1.29003
1.30572
1.31734
1.32595
1.33237
1.33692
1.33978
1.34109
1.34141
1.34125
1.1632
1.16331
1.16538
1.17034
1.1784
1.18938
1.2037
1.22168
1.24335
1.26831
1.2922
1.31084
1.32465
1.3349
1.34252
1.34794
1.35129
1.35283
1.35318
1.35299
1.12859
1.12885
1.13219
1.13976
1.15153
1.16701
1.18639
1.20977
1.23689
1.26716
1.29549
1.31738
1.33356
1.34563
1.3546
1.36098
1.36492
1.3667
1.36706
1.36683
1.07969
1.08084
1.08752
1.10041
1.11855
1.14079
1.1671
1.19725
1.23081
1.26702
1.30014
1.32543
1.34411
1.35807
1.36852
1.37601
1.38065
1.38265
1.38298
1.38269
1.00744
1.01512
1.03056
1.05332
1.08087
1.11203
1.14677
1.18475
1.22548
1.26826
1.30665
1.33576
1.35729
1.3735
1.38579
1.39478
1.40043
1.40294
1.40342
1.40321
0.930014
0.947692
0.972629
1.00569
1.04291
1.08317
1.12642
1.17246
1.22088
1.27106
1.31588
1.34995
1.37529
1.39454
1.4094
1.42062
1.42769
1.43081
1.43167
1.43165
0.866341
0.886952
0.919702
0.961248
1.00698
1.05572
1.10715
1.16102
1.21692
1.27424
1.32508
1.36363
1.39235
1.41426
1.43114
1.44381
1.45214
1.4561
1.45675
1.45682
0.81445
0.836865
0.874788
0.922357
0.974777
1.03057
1.08917
1.15017
1.21301
1.27699
1.33337
1.37587
1.40739
1.43133
1.4498
1.46365
1.47313
1.47725
1.47804
1.4782
0.771373
0.794853
0.836281
0.888658
0.946424
1.008
1.0727
1.13997
1.20907
1.2791
1.34045
1.38638
1.42022
1.44581
1.46546
1.4802
1.49016
1.49474
1.49585
1.49604
0.734532
0.758631
0.802812
0.858894
0.921116
0.987593
1.05757
1.13035
1.20505
1.28057
1.34638
1.39531
1.43108
1.45794
1.47843
1.49376
1.50407
1.50905
1.51036
1.51056
0.702007
0.726525
0.77279
0.831997
0.897994
0.968727
1.04334
1.12105
1.20084
1.28139
1.3513
1.40291
1.44034
1.46817
1.48922
1.5049
1.51529
1.52049
1.52191
1.52208
0.67238
0.697273
0.745276
0.807157
0.876391
0.950843
1.02961
1.11179
1.19626
1.28152
1.35532
1.40946
1.44838
1.47704
1.49847
1.51433
1.52477
1.53004
1.53155
1.53168
0.644787
0.67002
0.719561
0.783714
0.855814
0.933564
1.01604
1.10231
1.19115
1.2809
1.35848
1.41514
1.45553
1.485
1.50683
1.52278
1.53328
1.53856
1.54015
1.54026
0.618513
0.644143
0.695079
0.761238
0.83589
0.916585
1.00241
1.09243
1.18537
1.27944
1.36081
1.42004
1.46202
1.49239
1.51468
1.53082
1.54134
1.54653
1.54813
1.54829
0.59328
0.619331
0.671359
0.739453
0.81638
0.899717
0.98858
1.08203
1.17881
1.2771
1.36229
1.42427
1.46802
1.49944
1.52231
1.53872
1.54931
1.55443
1.55592
1.55602
0.568731
0.595327
0.648372
0.718169
0.797129
0.882838
0.974449
1.07105
1.17143
1.2738
1.36292
1.42789
1.47363
1.5063
1.52989
1.54665
1.55733
1.56238
1.56372
1.56374
0.54479
0.571806
0.625954
0.697271
0.778051
0.865887
0.959978
1.05946
1.16319
1.26952
1.36266
1.43083
1.47885
1.51298
1.53745
1.55466
1.56542
1.57037
1.57157
1.57148
0.521375
0.548922
0.604001
0.676708
0.759126
0.848862
0.945169
1.04726
1.15409
1.2642
1.36137
1.43303
1.48365
1.51952
1.54503
1.56273
1.57354
1.5783
1.57933
1.57915
0.498395
0.526527
0.582512
0.65648
0.740356
0.831785
0.930061
1.03448
1.14413
1.25779
1.35899
1.43437
1.48796
1.52591
1.55263
1.57085
1.58164
1.58611
1.58693
1.58668
0.475855
0.504624
0.5615
0.636614
0.721789
0.8147
0.914712
1.02118
1.13335
1.25029
1.35544
1.43471
1.49164
1.5321
1.56031
1.57905
1.58963
1.59367
1.59425
1.59395
0.45393
0.483289
0.541009
0.617149
0.703476
0.797688
0.899194
1.00744
1.12183
1.24173
1.35063
1.43388
1.49452
1.53802
1.56818
1.58747
1.59752
1.60087
1.60115
1.60081
0.432648
0.462571
0.521071
0.598144
0.685482
0.780814
0.883606
0.993367
1.10965
1.23216
1.34452
1.43172
1.49634
1.5435
1.57635
1.59652
1.60561
1.60765
1.60748
1.60714
0.411954
0.44251
0.501728
0.579643
0.667874
0.764165
0.868042
0.979058
1.09693
1.22164
1.33708
1.42809
1.49681
1.54816
1.58477
1.60683
1.61486
1.61453
1.61317
1.613
0.392017
0.423128
0.483039
0.561713
0.650714
0.747827
0.852598
0.964632
1.08378
1.2103
1.32834
1.42287
1.49562
1.55143
1.59291
1.61882
1.62731
1.62409
1.61971
1.6186
0.372752
0.404435
0.464984
0.544328
0.633971
0.731752
0.837217
0.950026
1.07014
1.19807
1.31818
1.4158
1.49244
1.5525
1.59954
1.63173
1.64451
1.64234
1.63176
1.61423
0.35423
0.386437
0.447441
0.527299
0.617354
0.715606
0.82148
0.934752
1.05545
1.18428
1.30591
1.40602
1.48658
1.55015
1.60191
1.64139
1.65946
1.65102
1.63538
1.61647
0.33662
0.368995
0.430593
0.510869
0.601158
0.699736
0.805616
0.919143
1.04004
1.16923
1.29169
1.39321
1.47754
1.5435
1.59483
1.63482
1.65524
1.63836
1.56727
1.53311
0.320564
0.350962
0.414775
0.495628
0.586095
0.684628
0.789918
0.903425
1.02414
1.15307
1.27553
1.37725
1.46431
1.5328
1.57453
1.6055
1.60972
1.56038
1.48792
1.44257
0.264847
0.335238
0.400285
0.480368
0.570732
0.668891
0.774327
0.887332
1.00739
1.1354
1.25694
1.35777
1.44376
1.51943
1.52236
1.53836
1.50473
1.44026
1.36232
1.31834
0.303757
0.319634
0.379227
0.458714
0.548445
0.646282
0.750668
0.862747
0.981392
1.10728
1.22579
1.32367
1.40098
1.47585
1.47391
1.36818
1.26341
1.19116
1.11668
1.15276
0.272938
0.302047
0.362401
0.441469
0.531108
0.628592
0.733105
0.8444
0.961753
1.08548
1.20068
1.29423
1.36396
1.40327
1.35818
1.21238
1.08164
0.988909
0.887137
0.943085
0.249232
0.281347
0.342838
0.422228
0.511889
0.609211
0.713525
0.823844
0.939593
1.06063
1.17178
1.25962
1.31962
1.32807
1.22324
1.04371
0.883657
0.759654
0.623303
0.662055
0.226141
0.25979
0.322424
0.402637
0.492457
0.589629
0.69336
0.802586
0.916558
1.03459
1.14095
1.22242
1.26771
1.24288
1.08304
0.876404
0.673164
0.489819
0.288583
0.282406
0.203827
0.23779
0.301277
0.382206
0.47222
0.569188
0.672232
0.780268
0.892239
1.00693
1.10797
1.18229
1.21053
1.15084
0.949246
0.725824
0.491612
0.281349
0.0173269
-0.312185
0.181298
0.215184
0.279143
0.360548
0.450767
0.547585
0.650019
0.756852
0.866745
0.977917
1.07345
1.13963
1.15052
1.03983
0.83298
0.609187
0.386621
0.196607
0.123829
0.0208652
0.157721
0.191542
0.255714
0.337342
0.42764
0.524224
0.625964
0.731438
0.838958
0.946141
1.03573
1.09225
1.07838
0.928875
0.73032
0.525869
0.349461
0.246852
0.222714
0.20358
0.132771
0.166551
0.230843
0.312527
0.402739
0.498937
0.599764
0.703596
0.808347
0.910931
0.994104
1.03866
1.00269
0.826455
0.637272
0.458748
0.32153
0.276969
0.261752
0.259553
0.106245
0.14009
0.204485
0.286146
0.376147
0.47176
0.57145
0.673334
0.774898
0.872313
0.948332
0.979389
0.92504
0.730039
0.551141
0.390461
0.297411
0.283739
0.281388
0.281248
0.0781468
0.112134
0.176643
0.258242
0.347896
0.442756
0.541081
0.640707
0.738682
0.83042
0.898377
0.917135
0.829805
0.640738
0.470977
0.337264
0.296386
0.291197
0.290778
0.291466
0.0487878
0.0829587
0.147472
0.228944
0.318126
0.412046
0.508763
0.605834
0.699815
0.785426
0.844817
0.848879
0.729556
0.554488
0.404737
0.310217
0.301626
0.298711
0.297152
0.297363
0.0187411
0.0529627
0.117242
0.198514
0.28708
0.379862
0.474742
0.568963
0.658603
0.737658
0.788773
0.773369
0.636894
0.472009
0.345267
0.323224
0.302442
0.299177
0.299727
0.299995
-0.0115305
0.0225479
0.0865554
0.167365
0.255163
0.346613
0.439409
0.53051
0.615548
0.68779
0.730496
0.69846
0.545656
0.389767
0.288609
0.269883
0.283529
0.293552
0.297963
0.299296
-0.0412176
-0.00745913
0.0561157
0.136167
0.222964
0.312866
0.40335
0.491109
0.571364
0.636752
0.669925
0.623569
0.455539
0.304916
0.218273
0.245564
0.263223
0.280757
0.290857
0.294038
-0.068822
-0.0359087
0.0267251
0.105805
0.191331
0.279419
0.367387
0.45166
0.527011
0.585745
0.610912
0.554424
0.372473
0.214502
0.13138
0.176628
0.206382
0.226333
0.23962
0.24622
-0.0930764
-0.0611997
-0.000511833
0.0773894
0.161274
0.247313
0.332577
0.413312
0.483891
0.536062
0.558309
0.490079
0.319337
0.144729
0.134189
0.113816
0.125546
0.125121
0.132634
0.139566
-0.112131
-0.082094
-0.0235775
0.0522072
0.134069
0.21779
0.300231
0.377472
0.44373
0.489603
0.512034
0.434298
0.304653
0.165809
-0.0721201
-0.00453796
0.0029113
-0.00645315
-0.00237876
-0.000301216
-0.124238
-0.0967584
-0.0412366
0.0319297
0.111243
0.192304
0.271889
0.345844
0.408245
0.449187
0.468991
0.378551
0.291142
0.319371
0.297698
0.075517
-0.138471
-0.160589
-0.148476
-0.144367
-0.127263
-0.103469
-0.0518237
0.0180484
0.0943617
0.172447
0.249191
0.320338
0.379446
0.416684
0.423727
0.309414
0.215402
0.457775
0.580386
0.200426
-0.117248
-0.16304
-0.180892
-0.18881
-0.119974
-0.100373
-0.0536748
0.0118628
0.0847149
0.159711
0.233902
0.303127
0.360357
0.394065
0.383386
0.202848
-0.195073
-0.716879
-1.12254
-1.51617
-1.35721
-0.897137
-0.589423
-0.560025
-0.100712
-0.085166
-0.0455992
0.0142613
0.0831336
0.155172
0.227431
0.296157
0.354794
0.389399
0.374854
0.118187
-0.628066
-1.76494
-2.485
-2.79564
-2.60036
-2.16879
-1.72626
-1.48639
-0.0707981
-0.0600014
-0.0279015
0.0250441
0.0896537
0.159009
0.230547
0.300878
0.364346
0.411623
0.408771
0.227102
-0.251419
-0.787232
-1.23886
-1.34024
-1.14837
-0.822184
-0.545108
-0.382046
-0.0340937
-0.0276034
-0.00369092
0.0422008
0.102708
0.170244
0.242336
0.316876
0.390141
0.459478
0.504454
0.553932
0.614643
0.841515
1.16743
1.54281
1.86221
2.08203
2.21079
2.26138
0.00413241
0.00772777
0.0229285
0.0620837
0.119365
0.186173
0.26012
0.340423
0.427393
0.519417
0.63306
0.766793
1.10166
1.69018
2.34095
2.92049
3.3364
3.56742
3.66225
3.68909
0.0385077
0.0405536
0.0493277
0.0809333
0.135074
0.202769
0.279495
0.365112
0.4612
0.571312
0.690502
0.821296
1.06164
1.61715
2.21107
2.73128
3.10173
3.31455
3.40984
3.43684
0.0730264
0.0739698
0.07699
0.0985012
0.148368
0.217311
0.29601
0.383731
0.479204
0.58935
0.702972
0.821612
0.973552
1.35797
1.83125
2.21361
2.49565
2.66513
2.74637
2.77192
0.0980761
0.0992039
0.0997536
0.114271
0.161581
0.23151
0.311473
0.397417
0.489932
0.594043
0.698389
0.800452
0.897069
1.13036
1.46331
1.74326
1.95487
2.08128
2.13848
2.1533
0.112835
0.111356
0.109678
0.124337
0.176602
0.250842
0.330789
0.412562
0.498638
0.592718
0.684855
0.7679
0.848645
0.985405
1.20056
1.39183
1.53414
1.61918
1.65879
1.66692
0.152985
0.148782
0.145964
0.162062
0.214436
0.285671
0.359715
0.432894
0.508279
0.588707
0.667257
0.736075
0.803686
0.88827
1.02698
1.14956
1.23814
1.29102
1.31259
1.31579
0.253868
0.249965
0.24771
0.260233
0.297034
0.348014
0.403382
0.460401
0.52056
0.585769
0.648233
0.700471
0.750452
0.80447
0.892608
0.972627
1.02954
1.06181
1.07558
1.07647
0.386401
0.384554
0.382712
0.386791
0.401356
0.424605
0.455269
0.492018
0.534822
0.583328
0.6289
0.664103
0.696335
0.728104
0.783939
0.83894
0.878477
0.901724
0.910793
0.910465
0.491284
0.490783
0.489195
0.486379
0.485441
0.490064
0.502035
0.521884
0.549629
0.582626
0.611473
0.629656
0.644529
0.662856
0.700943
0.742148
0.773083
0.790685
0.797864
0.7971
0.55112
0.550894
0.549044
0.544258
0.537945
0.534339
0.536746
0.546369
0.563066
0.583977
0.599179
0.599693
0.591574
0.603138
0.64257
0.679582
0.704687
0.717936
0.722746
0.721677
0.576802
0.576464
0.57472
0.570538
0.564701
0.559993
0.559123
0.563962
0.57489
0.589393
0.596596
0.585313
0.559796
0.571711
0.612383
0.646161
0.666378
0.67575
0.678884
0.678309
0.583931
0.58358
0.582245
0.579254
0.575389
0.572225
0.571693
0.575803
0.585273
0.598972
0.606883
0.597023
0.575354
0.593637
0.628775
0.652625
0.665412
0.670837
0.672856
0.672264
0.581489
0.581319
0.580608
0.578782
0.576603
0.575375
0.576589
0.582219
0.594331
0.611585
0.628604
0.634768
0.635958
0.657803
0.679306
0.691233
0.696708
0.699169
0.699748
0.698982
0.571686
0.57182
0.571856
0.571276
0.570638
0.571278
0.574642
0.583455
0.599835
0.62443
0.654222
0.681498
0.709173
0.730702
0.738726
0.741599
0.74385
0.746621
0.748312
0.747628
0.553167
0.553604
0.554323
0.554979
0.556108
0.559074
0.565656
0.578121
0.60009
0.632958
0.674645
0.717723
0.765226
0.787568
0.786705
0.789519
0.797127
0.805056
0.807738
0.805262
0.523898
0.524657
0.526027
0.527785
0.530711
0.536273
0.546282
0.563287
0.591509
0.632844
0.682345
0.730331
0.780059
0.800061
0.804009
0.81292
0.822459
0.832404
0.8346
0.833
0.482438
0.483507
0.485311
0.488054
0.492565
0.50043
0.51371
0.535455
0.570157
0.619842
0.675618
0.720999
0.761452
0.778892
0.793779
0.814508
0.835601
0.84304
0.844431
0.843085
0.426386
0.427656
0.429922
0.433408
0.438998
0.448229
0.463358
0.48823
0.527553
0.585519
0.651013
0.699216
0.720652
0.731748
0.769809
0.809446
0.835501
0.847511
0.847312
0.846828
0.353052
0.354547
0.357002
0.360694
0.366292
0.374876
0.388401
0.411054
0.448483
0.511337
0.596614
0.666384
0.682858
0.700964
0.758592
0.817344
0.853271
0.864911
0.864956
0.865618
0.261444
0.262873
0.264935
0.267778
0.271332
0.275462
0.280685
0.289815
0.309838
0.366945
0.486373
0.601308
0.644089
0.682305
0.771431
0.847773
0.904722
0.919423
0.916959
0.918009
0.15449
0.155374
0.156155
0.156486
0.154792
0.148677
0.135209
0.11226
0.0870882
0.119295
0.293477
0.483216
0.57089
0.648864
0.779972
0.894508
0.963831
0.980553
0.977187
0.974733
0.0417658
0.0415389
0.0400646
0.0360055
0.025484
0.00254683
-0.0423
-0.121798
-0.227282
-0.23797
0.00525976
0.301538
0.457813
0.599264
0.757196
0.893128
0.962625
0.96426
0.960143
0.956836
-0.0597938
-0.0614997
-0.0657654
-0.0753084
-0.0966618
-0.140267
-0.225167
-0.378681
-0.588528
-0.646173
-0.319584
0.0725533
0.311827
0.514914
0.707127
0.821404
0.860889
0.869272
0.870333
0.868902
-0.129273
-0.132502
-0.139211
-0.153202
-0.18354
-0.244477
-0.363652
-0.579607
-0.868328
-0.96418
-0.587551
-0.121157
0.169244
0.448306
0.669591
0.761536
0.76736
0.768456
0.768734
0.767444
-0.150932
-0.154274
-0.161245
-0.176672
-0.210044
-0.276357
-0.408014
-0.646575
-0.956746
-1.07832
-0.69069
-0.239489
0.0694221
0.391013
0.619222
0.67414
0.675251
0.66793
0.661644
0.65708
-0.122697
-0.125436
-0.130706
-0.142747
-0.170215
-0.22724
-0.341991
-0.551188
-0.80828
-0.911642
-0.590511
-0.253558
-0.0263556
0.223651
0.47248
0.512017
0.505855
0.492321
0.482934
0.475903
-0.0643283
-0.0654974
-0.0673488
-0.0728933
-0.0876839
-0.121264
-0.19385
-0.330914
-0.485012
-0.519426
-0.342934
-0.18182
-0.141283
-0.204531
-0.00592129
0.134335
0.188017
0.200525
0.204471
0.203475
0.00053953
0.000576551
0.00271467
0.00578227
0.00696157
0.00492886
-0.0044392
-0.0344532
-0.090966
-0.105103
-0.102898
-0.0780375
-0.0751136
-0.238884
-0.371696
-0.183107
-0.0597269
-0.0147587
0.00186888
0.0119164
0.535397
0.721332
0.938022
1.12252
1.27125
1.39005
1.48935
1.57318
1.61067
1.58786
0.873887
1.00642
1.14769
1.26997
1.37357
1.45985
1.52976
1.57936
1.6046
1.61636
1.11351
1.20376
1.29962
1.38467
1.45805
1.51949
1.56829
1.6039
1.62937
1.64701
1.28686
1.34999
1.4171
1.47858
1.53203
1.57734
1.61444
1.64389
1.66773
1.68581
1.42029
1.46643
1.51521
1.5618
1.60291
1.6387
1.66921
1.69445
1.71549
1.7332
1.52937
1.56403
1.60407
1.64143
1.6756
1.70611
1.73268
1.7549
1.77319
1.79048
1.62491
1.65468
1.68998
1.72322
1.75414
1.78212
1.80651
1.82671
1.84252
1.85958
1.71541
1.74528
1.78011
1.81283
1.84304
1.87015
1.89344
1.91223
1.92582
1.94287
1.81193
1.84545
1.88262
1.91665
1.94709
1.97361
1.99584
2.01332
2.02534
2.04276
1.92776
1.96559
2.0046
2.03918
2.06877
2.09372
2.11426
2.13028
2.14185
2.15994
2.07325
2.11197
2.14809
2.17893
2.20475
2.22696
2.24611
2.26172
2.27422
2.29223
2.24827
2.28019
2.30647
2.32896
2.34901
2.3678
2.38557
2.4021
2.41749
2.43557
2.43704
2.45434
2.46951
2.48581
2.50176
2.51633
2.52957
2.54353
2.56109
2.58126
2.61906
2.6285
2.64007
2.65091
2.66021
2.66983
2.68066
2.69206
2.70344
2.7188
2.82619
2.82989
2.81496
2.80017
2.79393
2.79963
2.81813
2.84846
2.88064
2.90731
3.13254
2.99767
2.92106
2.87875
2.86134
2.86531
2.89273
2.94914
3.05177
3.27614
1.41354
1.4114
1.40692
1.39829
1.38605
1.37391
1.36366
1.35574
1.35007
1.34674
1.34627
1.34889
1.3539
1.36104
1.37037
1.38187
1.39449
1.4055
1.4116
1.41465
1.338
1.34385
1.35018
1.35467
1.35713
1.35679
1.35403
1.35019
1.34663
1.34428
1.34402
1.34609
1.34965
1.35386
1.3576
1.35943
1.35846
1.35495
1.34977
1.34314
1.32961
1.33191
1.33531
1.3383
1.34037
1.34185
1.34258
1.34223
1.34114
1.34017
1.34022
1.34151
1.34321
1.34442
1.34452
1.34357
1.34197
1.3396
1.33631
1.33338
1.32415
1.32523
1.32706
1.32944
1.33146
1.33287
1.33387
1.33458
1.33491
1.33503
1.33538
1.33603
1.33649
1.33644
1.33593
1.33501
1.33348
1.33134
1.32922
1.32783
1.319
1.31966
1.32077
1.32248
1.32426
1.32589
1.32716
1.32813
1.32894
1.32961
1.33018
1.33054
1.33057
1.33026
1.32957
1.32841
1.3269
1.32528
1.32392
1.32312
1.31411
1.31457
1.31536
1.31667
1.31816
1.31968
1.32113
1.32239
1.32345
1.32437
1.32509
1.32543
1.32537
1.32491
1.32404
1.32292
1.32167
1.32044
1.31947
1.31894
1.30939
1.30973
1.31035
1.31144
1.31275
1.31414
1.31557
1.31699
1.31829
1.31942
1.3203
1.32071
1.32061
1.32009
1.31927
1.31831
1.3173
1.31631
1.31556
1.31517
1.30481
1.30507
1.30557
1.30652
1.30773
1.30905
1.31045
1.3119
1.31337
1.31472
1.31579
1.31631
1.31627
1.31584
1.31517
1.31437
1.31351
1.3127
1.31212
1.31182
1.30031
1.30051
1.30093
1.30177
1.30291
1.3042
1.30558
1.30706
1.30862
1.31017
1.31147
1.31218
1.31231
1.31207
1.31157
1.31093
1.31022
1.30956
1.3091
1.30887
1.29582
1.29597
1.29633
1.29712
1.29823
1.29951
1.30092
1.30248
1.30416
1.30591
1.30748
1.30847
1.30885
1.30881
1.30848
1.30799
1.30742
1.30688
1.30652
1.30634
1.29131
1.29142
1.29173
1.29248
1.2936
1.29491
1.2964
1.29808
1.29993
1.30192
1.30381
1.30517
1.30585
1.30604
1.3059
1.30556
1.30511
1.30467
1.30439
1.30426
1.28674
1.28682
1.2871
1.28783
1.28898
1.29035
1.29192
1.29374
1.29585
1.2982
1.30053
1.30228
1.30328
1.30374
1.30384
1.30368
1.30336
1.30302
1.30282
1.30272
1.28206
1.28211
1.28236
1.28307
1.28424
1.28568
1.28736
1.28935
1.29168
1.29439
1.29724
1.29955
1.30104
1.3019
1.30228
1.30235
1.30221
1.302
1.30187
1.3018
1.27724
1.27726
1.27748
1.2782
1.27943
1.28099
1.28285
1.28511
1.28786
1.29112
1.29462
1.29756
1.29954
1.30077
1.30149
1.30179
1.30183
1.30175
1.3017
1.30167
1.27225
1.27226
1.27245
1.27313
1.27436
1.27598
1.27799
1.28052
1.28368
1.28756
1.29188
1.29563
1.29832
1.30015
1.30124
1.30194
1.30232
1.30247
1.30252
1.30252
1.26672
1.2667
1.26691
1.26758
1.26884
1.27057
1.27283
1.27577
1.27954
1.28424
1.28956
1.29431
1.29775
1.30018
1.30186
1.30298
1.3037
1.30409
1.30425
1.30426
1.26029
1.26026
1.26048
1.26119
1.26254
1.26448
1.2671
1.27057
1.27511
1.28086
1.28744
1.29336
1.29778
1.30098
1.30325
1.30485
1.30594
1.30658
1.30683
1.30684
1.25259
1.25255
1.2528
1.25361
1.25516
1.25742
1.26054
1.26474
1.27027
1.27732
1.28545
1.29284
1.29838
1.30245
1.30541
1.30755
1.30903
1.30992
1.31026
1.31027
1.24324
1.24319
1.2435
1.2445
1.24636
1.24912
1.25296
1.25814
1.26499
1.27372
1.28378
1.29289
1.29977
1.30484
1.30855
1.31126
1.31315
1.31427
1.31469
1.31471
1.23177
1.2317
1.23211
1.23337
1.23569
1.23914
1.24395
1.25045
1.25901
1.26987
1.28229
1.29349
1.30193
1.30817
1.31276
1.31613
1.31848
1.31984
1.32033
1.32036
1.21754
1.21746
1.21801
1.21965
1.22262
1.22705
1.23321
1.24149
1.25232
1.26587
1.28116
1.29483
1.30508
1.31266
1.31823
1.32236
1.32525
1.32686
1.32745
1.32748
1.19964
1.19953
1.20029
1.20248
1.20641
1.21226
1.22033
1.23104
1.2448
1.26171
1.28045
1.297
1.30935
1.31847
1.32525
1.33024
1.33369
1.33558
1.33627
1.33631
1.17678
1.17666
1.17777
1.18079
1.18614
1.19409
1.20489
1.21893
1.2365
1.25753
1.28034
1.30019
1.31494
1.32585
1.33396
1.3399
1.34397
1.34621
1.34702
1.34705
1.1468
1.14671
1.14847
1.15289
1.16054
1.17175
1.18652
1.20511
1.22755
1.25355
1.28103
1.30458
1.32197
1.33488
1.34448
1.35152
1.35629
1.35892
1.35983
1.35986
1.10573
1.10582
1.10903
1.11637
1.12814
1.14457
1.16514
1.18979
1.21828
1.2501
1.28279
1.31034
1.33057
1.34561
1.35683
1.36508
1.3707
1.37373
1.37473
1.37472
1.04602
1.04731
1.05513
1.06884
1.08812
1.11268
1.14129
1.17361
1.20925
1.24759
1.28587
1.31758
1.34073
1.35793
1.37083
1.3804
1.38697
1.39042
1.39143
1.39138
0.974747
0.976831
0.99165
1.0153
1.04516
1.07917
1.11657
1.15711
1.20049
1.24616
1.2911
1.32818
1.35536
1.37571
1.3911
1.40258
1.41056
1.41481
1.41595
1.41595
0.901487
0.908249
0.930154
0.963713
1.00328
1.0465
1.09261
1.14139
1.19258
1.24569
1.2975
1.34011
1.3714
1.39499
1.41309
1.42687
1.43642
1.44067
1.44217
1.4425
0.842593
0.851299
0.877887
0.918177
0.965291
1.01625
1.07011
1.12653
1.18512
1.24531
1.30356
1.35121
1.3861
1.41237
1.43249
1.44776
1.45835
1.46374
1.46605
1.4665
0.794707
0.803975
0.83402
0.879196
0.932052
0.989211
1.04959
1.11268
1.17793
1.24463
1.30878
1.36091
1.39886
1.42728
1.449
1.46556
1.4772
1.48342
1.48607
1.48659
0.754553
0.764041
0.796397
0.845355
0.902855
0.965123
1.03098
1.09986
1.17103
1.24359
1.31307
1.36918
1.40971
1.43988
1.46281
1.48026
1.49262
1.49951
1.50242
1.50297
0.719633
0.729207
0.76327
0.815291
0.87664
0.943246
1.01387
1.08783
1.16428
1.24216
1.3165
1.37616
1.41894
1.45051
1.47433
1.49234
1.50512
1.51247
1.5155
1.51607
0.688394
0.698
0.733388
0.787986
0.852552
0.922896
0.997712
1.07622
1.15748
1.24026
1.31911
1.38208
1.42687
1.45962
1.48409
1.50242
1.51541
1.52293
1.52596
1.52659
0.659645
0.6693
0.705791
0.762603
0.82995
0.903563
0.982096
1.06471
1.15038
1.23775
1.32091
1.38707
1.4338
1.46765
1.49269
1.51127
1.52431
1.53197
1.53499
1.53557
0.632615
0.642327
0.679799
0.73851
0.808346
0.884869
0.96672
1.05306
1.14281
1.23452
1.32188
1.39123
1.43993
1.47494
1.50058
1.51946
1.53261
1.54026
1.54331
1.54373
0.606807
0.616604
0.654989
0.715328
0.787413
0.866527
0.951367
1.0411
1.13463
1.23047
1.32198
1.39461
1.44543
1.48172
1.50809
1.52732
1.54061
1.54824
1.55125
1.55166
0.58181
0.591782
0.630996
0.692865
0.766935
0.848374
0.935908
1.02873
1.12577
1.22554
1.32116
1.39724
1.4504
1.48817
1.51541
1.53511
1.54861
1.55624
1.55914
1.55954
0.557448
0.567661
0.607618
0.670951
0.746786
0.8303
0.920262
1.01589
1.11617
1.21968
1.31941
1.39911
1.45487
1.49434
1.52263
1.54292
1.55668
1.56431
1.56707
1.56741
0.533666
0.544096
0.584817
0.649462
0.726895
0.812271
0.904407
1.00257
1.10582
1.21287
1.31664
1.40014
1.45878
1.50025
1.52979
1.55079
1.56483
1.57239
1.57498
1.57523
0.510342
0.521082
0.562528
0.628375
0.707248
0.794288
0.888359
0.988791
1.09474
1.20507
1.31278
1.40022
1.46207
1.50588
1.5369
1.5587
1.573
1.58046
1.58281
1.58294
0.487547
0.498572
0.540749
0.6077
0.687867
0.776382
0.872167
0.974603
1.08296
1.19629
1.30776
1.39924
1.46461
1.51115
1.54398
1.56668
1.58116
1.58835
1.5904
1.59042
0.465248
0.476578
0.519507
0.587468
0.668793
0.758604
0.855888
0.96008
1.07054
1.18657
1.30158
1.39708
1.46622
1.51596
1.55104
1.57484
1.58934
1.59601
1.59765
1.59755
0.443632
0.455195
0.498846
0.567727
0.650086
0.741039
0.839601
0.945304
1.05759
1.17598
1.29419
1.39362
1.46672
1.52011
1.55808
1.58339
1.59773
1.60342
1.6044
1.60418
0.422572
0.434471
0.4788
0.548513
0.631788
0.723733
0.823405
0.93037
1.0442
1.16461
1.28564
1.38876
1.46588
1.52332
1.56497
1.59265
1.60698
1.61094
1.61061
1.61016
0.402232
0.414438
0.459404
0.529886
0.613985
0.706775
0.807386
0.915402
1.03048
1.15256
1.276
1.38245
1.46349
1.52516
1.57128
1.60275
1.61824
1.62012
1.61692
1.61526
0.382563
0.395053
0.440711
0.511898
0.596719
0.690235
0.791629
0.900484
1.01656
1.13996
1.26535
1.37463
1.45938
1.52515
1.57612
1.61302
1.63239
1.63451
1.62737
1.61706
0.363645
0.376363
0.422621
0.4944
0.579781
0.673831
0.775793
0.885202
1.00197
1.12628
1.25312
1.36465
1.45294
1.52263
1.57817
1.62169
1.64815
1.65442
1.64652
1.63668
0.345531
0.358461
0.40513
0.477434
0.563185
0.657558
0.7599
0.869545
0.986679
1.11144
1.23916
1.35222
1.44352
1.51692
1.57482
1.62306
1.6529
1.66405
1.62874
1.57422
0.328479
0.342111
0.388339
0.461055
0.546814
0.64129
0.743909
0.853635
0.970751
1.0955
1.22345
1.33723
1.43022
1.50782
1.56438
1.60562
1.63647
1.62843
1.57106
1.50422
0.312194
0.326581
0.372442
0.445861
0.530994
0.625499
0.727603
0.837535
0.954337
1.07866
1.20604
1.31958
1.41208
1.49646
1.54635
1.59927
1.5751
1.53673
1.46678
1.39635
0.326417
0.344454
0.392909
0.470207
0.560154
0.658317
0.765606
0.878316
0.997943
1.12533
1.24615
1.3464
1.43039
1.51945
1.57179
1.49023
1.44737
1.38567
1.31163
1.26217
0.302107
0.318634
0.354063
0.421786
0.506535
0.600486
0.702672
0.811883
0.927717
1.05049
1.17552
1.28665
1.37528
1.45366
1.52397
1.52678
1.40637
1.32249
1.25936
1.17386
0.282278
0.297981
0.339208
0.408353
0.493355
0.586849
0.687829
0.796059
0.910781
1.03191
1.15486
1.26336
1.34876
1.41426
1.44093
1.37162
1.22804
1.12981
1.05309
0.96132
0.262059
0.274553
0.320307
0.390762
0.475919
0.569566
0.670452
0.778264
0.891943
1.01134
1.13115
1.23484
1.31316
1.36289
1.34039
1.21
1.05199
0.929758
0.828606
0.68705
0.238665
0.251736
0.299484
0.371073
0.456534
0.550202
0.650929
0.758062
0.870498
0.987802
1.10396
1.20219
1.27255
1.30296
1.24341
1.05514
0.864173
0.701678
0.552403
0.349864
0.216391
0.229102
0.278045
0.350795
0.43674
0.530366
0.630688
0.736897
0.847847
0.962701
1.07484
1.16707
1.22887
1.23054
1.11823
0.908653
0.683793
0.462353
0.276963
-0.151051
0.194224
0.206468
0.255891
0.329503
0.415841
0.509487
0.609396
0.714674
0.824031
0.93621
1.044
1.12961
1.1811
1.1476
0.992559
0.778506
0.546529
0.316198
0.117763
-0.206174
0.171219
0.183287
0.232826
0.306959
0.393569
0.487243
0.586778
0.691151
0.798861
0.908199
1.01139
1.08993
1.12853
1.07394
0.878855
0.672998
0.460473
0.278162
0.200804
0.164279
0.146948
0.158815
0.208496
0.282882
0.369567
0.463113
0.562125
0.665372
0.771116
0.87713
0.975099
1.04581
1.06979
0.986354
0.777074
0.583815
0.409046
0.290874
0.253066
0.240542
0.12121
0.132979
0.182753
0.257276
0.343917
0.437172
0.53546
0.637334
0.740754
0.842945
0.935002
0.997586
1.00015
0.880397
0.684818
0.505438
0.355111
0.292619
0.276478
0.272071
0.0939643
0.105489
0.155538
0.230159
0.316661
0.409459
0.506826
0.607056
0.7078
0.805717
0.891154
0.945296
0.919886
0.778468
0.597534
0.429599
0.318348
0.278144
0.285277
0.285983
0.0652269
0.076765
0.126884
0.201606
0.287878
0.380071
0.4763
0.574623
0.672344
0.765522
0.843873
0.887799
0.842831
0.680314
0.516343
0.366695
0.31381
0.298732
0.29468
0.294317
0.0354177
0.046945
0.0970073
0.171821
0.257747
0.349175
0.444053
0.540207
0.634563
0.722584
0.79358
0.825755
0.77083
0.590383
0.440661
0.335841
0.288244
0.297457
0.298559
0.298509
0.00501428
0.0164572
0.0665874
0.141157
0.226601
0.31709
0.410406
0.504127
0.59482
0.67733
0.740574
0.763163
0.687538
0.504594
0.366676
0.303846
0.297141
0.296447
0.298238
0.299538
-0.025116
-0.0140131
0.0360955
0.110074
0.194956
0.284305
0.375828
0.466873
0.553658
0.63049