/*--------------------------------*- C++ -*----------------------------------*\
  =========                 |
  \\      /  F ield         | OpenFOAM: The Open Source CFD Toolbox
   \\    /   O peration     | Website:  https://openfoam.org
    \\  /    A nd           | Version:  10
     \\/     M anipulation  |
\*---------------------------------------------------------------------------*/
FoamFile
{
    format      ascii;
    class       surfaceScalarField;
    location    "29";
    object      phi;
}
// * * * * * * * * * * * * * * * * * * * * * * * * * * * * * * * * * * * * * //

dimensions      [0 3 -1 0 0 0 0];

internalField   nonuniform List<scalar> 
17370
(
-0.0916072
0.0960068
0.284611
-0.0775903
0.0594138
0.364952
-0.0430356
0.0316163
0.427587
-0.0223116
0.016257
0.505306
-0.0116602
0.00878172
0.602281
-0.00656567
0.00507875
0.720544
-0.00384446
0.00297142
0.86378
-0.00221092
0.0016458
1.03602
-0.00112848
0.000718838
1.24291
-0.000315806
-6.65174e-05
1.49157
0.000446385
-0.000854639
1.4916
0.00126026
-0.00176972
1.2432
0.00232687
-0.00307817
1.03639
0.00394226
-0.00516658
0.864131
0.00664428
-0.00884963
0.721263
0.0117171
-0.0163002
0.603798
0.0223415
-0.0316325
0.50873
0.0430375
-0.0594072
0.432538
0.0775862
-0.096003
0.365192
0.0916177
0.197393
-0.127087
0.0880178
0.039069
-0.36435
0.354024
-0.0714783
0.0818043
-0.446655
0.454246
-0.0791675
0.0715764
-0.521007
0.529106
-0.0637268
0.0556274
-0.612983
0.620759
-0.0482374
0.0404622
-0.727156
0.733683
-0.0338437
0.0273171
-0.867577
0.872416
-0.0221145
0.0172758
-1.03856
1.04187
-0.0135996
0.0102906
-1.24471
1.24709
-0.00776689
0.0053882
-1.49283
1.49483
-0.00344498
0.00145032
-1.49268
1.4945
0.000360748
-0.00217158
-1.24411
1.24602
0.00414151
-0.00605297
-1.03761
1.04009
0.00839108
-0.0108746
-0.866193
0.869828
0.0141385
-0.0177736
-0.724602
0.729765
0.0225685
-0.027732
-0.60907
0.615651
0.0342172
-0.0407987
-0.515125
0.522476
0.0485336
-0.055884
-0.43988
0.447675
0.0639263
-0.0717208
-0.374715
0.377365
0.0792327
-0.0818829
-0.256913
0.224464
0.0715396
-0.0390914
-0.0687999
0.0591869
0.00961299
-0.052117
0.0589531
-0.374831
0.367995
-0.0581093
0.0542712
-0.453938
0.457776
-0.0487872
0.0442305
-0.527605
0.532162
-0.0396829
0.0357893
-0.620785
0.624678
-0.0315813
0.0275963
-0.734641
0.738626
-0.0232566
0.0193896
-0.873934
0.877801
-0.0153734
0.0119455
-1.04334
1.04676
-0.0084599
0.00545833
-1.24862
1.25162
-0.00228459
-0.000667804
-1.49692
1.49987
0.00360545
-0.0067377
-1.4974
1.50053
0.0096821
-0.0130931
-1.25007
1.25348
0.0164482
-0.020382
-1.04566
1.04959
0.0241732
-0.0284317
-0.877157
0.881416
0.0323448
-0.0364769
-0.739009
0.743141
0.0403063
-0.0447917
-0.625999
0.630484
0.0492979
-0.0547329
-0.535042
0.540477
0.0585147
-0.0592938
-0.458104
0.458884
0.0523678
-0.0320174
-0.336808
0.316458
0.009658
-0.0686914
0.0590334
-0.0533956
0.0492841
0.00411147
-0.0332467
0.043673
-0.358539
0.348113
-0.0473505
0.0467658
-0.459556
0.46014
-0.043839
0.0406271
-0.5361
0.539312
-0.0369491
0.0335936
-0.628355
0.63171
-0.0299645
0.0267417
-0.741995
0.745218
-0.023325
0.0201733
-0.881296
0.884448
-0.01664
0.013341
-1.05019
1.05349
-0.00969695
0.00633511
-1.25487
1.25823
-0.00258445
-0.00100149
-1.5032
1.50679
0.00456503
-0.0082515
-1.50402
1.5077
0.0115269
-0.0150601
-1.25703
1.26056
0.0182488
-0.0216574
-1.0533
1.05671
0.0246984
-0.0280004
-0.885039
0.888341
0.0311212
-0.0346421
-0.74684
0.750361
0.0379043
-0.0414875
-0.634612
0.638195
0.0446197
-0.0474585
-0.544628
0.547467
0.0479533
-0.0441523
-0.457021
0.45322
0.0335761
-0.0163212
-0.297184
0.279929
0.00416093
-0.0531986
0.0490376
-0.0461134
0.0435589
0.0025545
-0.0230392
0.03339
-0.337514
0.327163
-0.0391288
0.0400833
-0.459882
0.458928
-0.0388363
0.0365108
-0.541957
0.544283
-0.0338706
0.0313306
-0.634657
0.637197
-0.0283698
0.0255506
-0.74828
0.7511
-0.0223599
0.0193988
-0.887487
0.890448
-0.0161077
0.0130295
-1.05664
1.05972
-0.00953596
0.00619679
-1.26159
1.26493
-0.00235602
-0.00137635
-1.51049
1.51422
0.00507779
-0.00882749
-1.51147
1.51521
0.0120481
-0.0153929
-1.26401
1.26735
0.0183259
-0.0214529
-1.05991
1.06304
0.0242664
-0.0273011
-0.891539
0.894573
0.0299819
-0.0327961
-0.753564
0.756378
0.0352089
-0.0377216
-0.641178
0.643691
0.0399419
-0.0410539
-0.549333
0.550445
0.0399614
-0.0340243
-0.448145
0.442208
0.0234583
-0.0102964
-0.264811
0.25165
0.00261561
-0.0458131
0.0431975
-0.0414418
0.0396469
0.00179491
-0.0169041
0.0261722
-0.317297
0.308029
-0.0327573
0.0348784
-0.457345
0.455224
-0.0344569
0.032779
-0.546275
0.547953
-0.0305776
0.0284743
-0.639465
0.641568
-0.0260693
0.0237345
-0.753677
0.756012
-0.0209837
0.018304
-0.893299
0.895979
-0.015197
0.0122358
-1.06274
1.0657
-0.00885023
0.0056105
-1.2682
1.27144
-0.00185333
-0.0018202
-1.51792
1.5216
0.00545314
-0.00908928
-1.51892
1.52256
0.0121705
-0.0153558
-1.27062
1.2738
0.018122
-0.0210111
-1.06608
1.06897
0.0234976
-0.0260465
-0.897383
0.899932
0.0282048
-0.0304258
-0.758841
0.761062
0.032369
-0.0344073
-0.645927
0.647965
0.0359355
-0.0361755
-0.551048
0.551288
0.0338459
-0.0269751
-0.435698
0.428827
0.0174224
-0.00736307
-0.24018
0.23012
0.0018695
-0.0410151
0.0391456
-0.0381022
0.0367593
0.00134289
-0.0128641
0.0208235
-0.299409
0.29145
-0.0275627
0.0304715
-0.452668
0.44976
-0.0306708
0.0295408
-0.549373
0.550503
-0.0275377
0.0256191
-0.643586
0.645505
-0.0234442
0.0213704
-0.758208
0.760282
-0.0189727
0.0166233
-0.898479
0.900829
-0.0138364
0.0110923
-1.06852
1.07127
-0.00787728
0.00476575
-1.27459
1.2777
-0.00115354
-0.00236274
-1.52519
1.52871
0.00582875
-0.00928342
-1.52613
1.52959
0.012186
-0.0151379
-1.27688
1.27983
0.0176246
-0.0201266
-1.07165
1.07416
0.0222294
-0.0243747
-0.902231
0.904376
0.0262292
-0.0281731
-0.763127
0.765071
0.0298895
-0.0316931
-0.649875
0.651678
0.0326034
-0.0321503
-0.551183
0.55073
0.0289454
-0.021819
-0.421765
0.414639
0.0134984
-0.00562255
-0.22125
0.213374
0.00143371
-0.0375217
0.036088
-0.0355899
0.0345647
0.00102521
-0.00997236
0.0166659
-0.284139
0.277446
-0.0231231
0.0264943
-0.446582
0.44321
-0.0273038
0.0266557
-0.551365
0.552013
-0.0249484
0.0232179
-0.647344
0.649075
-0.0212205
0.0192906
-0.762308
0.764238
-0.0170349
0.0148227
-0.903101
0.905313
-0.0122184
0.00966423
-1.07387
1.07642
-0.00666552
0.00374056
-1.28069
1.28361
-0.000325035
-0.00300339
-1.53212
1.53544
0.00626668
-0.00948272
-1.53294
1.53616
0.0121452
-0.0148048
-1.28265
1.28531
0.017028
-0.0192677
-1.07652
1.07876
0.0211681
-0.0231082
-0.906406
0.908346
0.0247691
-0.0264865
-0.766885
0.768602
0.0279687
-0.0294039
-0.653329
0.654764
0.0297763
-0.0286126
-0.549925
0.548761
0.0248424
-0.0178849
-0.407562
0.400605
0.0107438
-0.0044382
-0.206354
0.200048
0.00113538
-0.0348226
0.0336872
-0.0336679
0.0328816
0.000786348
-0.00778416
0.0133418
-0.271341
0.265784
-0.0192534
0.0227743
-0.43974
0.436219
-0.0240231
0.0236023
-0.552544
0.552965
-0.0221637
0.0205607
-0.650746
0.652349
-0.0187042
0.0169238
-0.766124
0.767904
-0.014845
0.0127983
-0.907445
0.909491
-0.0103808
0.00801234
-1.07883
1.0812
-0.00523524
0.00251799
-1.28639
1.28911
0.000670468
-0.00379024
-1.53866
1.54178
0.00682738
-0.00977378
-1.53927
1.54221
0.0121645
-0.0145192
-1.28785
1.2902
0.0164723
-0.0184269
-1.08087
1.08283
0.0200789
-0.0217646
-0.910138
0.911824
0.0232108
-0.0247212
-0.770178
0.771689
0.0260161
-0.0271062
-0.656013
0.657103
0.027163
-0.0254309
-0.547313
0.545581
0.0213793
-0.0148316
-0.393845
0.387297
0.00872373
-0.00358453
-0.194376
0.189236
0.000920981
-0.032674
0.031753
-0.0321961
0.0315977
0.000598392
-0.00605516
0.0106178
-0.260742
0.256179
-0.0158707
0.0193584
-0.432702
0.429214
-0.02092
0.0207259
-0.553289
0.553483
-0.0195193
0.0179924
-0.653937
0.655463
-0.0162282
0.0145554
-0.769674
0.771347
-0.0126166
0.0107055
-0.911442
0.913354
-0.00843388
0.00620159
-1.08343
1.08566
-0.00358466
0.00104481
-1.29168
1.29422
0.0019009
-0.00473551
-1.54472
1.54756
0.00747511
-0.0101291
-1.54502
1.54768
0.0122766
-0.0143813
-1.29245
1.29456
0.0161032
-0.0177973
-1.08466
1.08636
0.0191976
-0.0206276
-0.913362
0.914791
0.0218857
-0.0232296
-0.773081
0.774425
0.0243893
-0.0251262
-0.658033
0.65877
0.0248385
-0.0226409
-0.543642
0.541444
0.0184732
-0.0124302
-0.38101
0.374967
0.0071969
-0.00294876
-0.184582
0.180334
0.000762347
-0.0309262
0.0301639
-0.0310813
0.0306398
0.000441505
-0.00460451
0.00826476
-0.252084
0.248424
-0.0127657
0.0160388
-0.425819
0.422546
-0.0177813
0.0178357
-0.553552
0.553498
-0.0169279
0.0155543
-0.656944
0.658318
-0.0139219
0.0123326
-0.773034
0.774624
-0.0104537
0.00858707
-0.915213
0.91708
-0.0063868
0.00425378
-1.08777
1.0899
-0.00178789
-0.000578753
-1.29662
1.29899
0.00330146
-0.00590488
-1.55024
1.55284
0.00838914
-0.010755
-1.5502
1.55256
0.0126392
-0.0144593
-1.29656
1.29838
0.0159467
-0.0174218
-1.08796
1.08944
0.0186522
-0.0199018
-0.916132
0.917381
0.0209821
-0.0221037
-0.775598
0.77672
0.0230206
-0.0233172
-0.659273
0.65957
0.0226632
-0.0200906
-0.53909
0.536517
0.0159547
-0.0104781
-0.369229
0.363752
0.00599974
-0.00246052
-0.176476
0.172936
0.000643503
-0.0294748
0.0288313
-0.0302698
0.0299685
0.000301319
-0.00332156
0.00614629
-0.245193
0.242368
-0.00984117
0.0127355
-0.41945
0.416556
-0.014459
0.0146517
-0.553364
0.553171
-0.0138688
0.0126189
-0.659657
0.660907
-0.011057
0.00953462
-0.776246
0.777768
-0.00775172
0.00600445
-0.918858
0.920605
-0.00396526
0.00199814
-1.09188
1.09384
0.00027465
-0.00246281
-1.30121
1.3034
0.00497742
-0.00736426
-1.55531
1.55769
0.00960044
-0.0116655
-1.55479
1.55685
0.0132575
-0.0147584
-1.3001
1.3016
0.015954
-0.0171013
-1.09081
1.09196
0.0180552
-0.019021
-0.918503
0.919468
0.0198625
-0.0207463
-0.777644
0.778528
0.0213924
-0.021441
-0.659713
0.659761
0.0204501
-0.0176905
-0.533876
0.531117
0.0137327
-0.00884727
-0.358604
0.353718
0.00502719
-0.00206973
-0.169722
0.166764
0.000549292
-0.0282502
0.0277009
-0.0297322
0.0295553
0.00017694
-0.00215456
0.00418975
-0.239946
0.237911
-0.00706228
0.00949187
-0.413901
0.411472
-0.0110742
0.0113126
-0.552977
0.552739
-0.0105782
0.00942262
-0.662174
0.66333
-0.0079566
0.00653944
-0.779288
0.780706
-0.00487851
0.00324037
-0.92221
0.923849
-0.00131449
-0.000551246
-1.09565
1.09752
0.00270144
-0.0047453
-1.30545
1.3075
0.0070409
-0.00915482
-1.55991
1.56203
0.0110926
-0.0128423
-1.55876
1.56051
0.0141493
-0.0153168
-1.30296
1.30412
0.0161819
-0.0169743
-1.09294
1.09374
0.0175984
-0.018236
-0.920269
0.920906
0.0188177
-0.0194806
-0.77926
0.779922
0.0199122
-0.0196971
-0.659687
0.659472
0.0184461
-0.0155562
-0.528343
0.525453
0.0118144
-0.00749361
-0.349157
0.344836
0.00424675
-0.00176955
-0.164084
0.161607
0.000482401
-0.0272035
0.0267211
-0.0294422
0.0293906
5.15814e-05
-0.00102809
0.00230102
-0.23626
0.234987
-0.00433376
0.0062492
-0.409309
0.407394
-0.00767656
0.00803132
-0.552477
0.552122
-0.00750292
0.00654817
-0.664465
0.66542
-0.00520636
0.00382679
-0.782136
0.783515
-0.00215461
0.000495445
-0.925384
0.927043
0.00143735
-0.00327696
-1.09928
1.10112
0.00536841
-0.00732168
-1.30943
1.31138
0.0094694
-0.0113938
-1.56399
1.56592
0.0130852
-0.0145531
-1.56214
1.5636
0.0155976
-0.0164878
-1.30524
1.30613
0.0171195
-0.0176474
-1.0945
1.09503
0.0180433
-0.0184293
-0.921403
0.921789
0.0187419
-0.0190208
-0.780263
0.780542
0.018987
-0.0183843
-0.659011
0.658408
0.0167329
-0.013669
-0.522541
0.519477
0.0101469
-0.00635111
-0.340835
0.337039
0.00360173
-0.00152696
-0.159374
0.1573
0.000431137
-0.026286
0.0258548
-0.0294045
0.0294941
-8.968e-05
0.00012387
0.000402346
-0.234102
0.233576
-0.0015623
0.00283738
-0.405812
0.404537
-0.00390203
0.00419831
-0.551811
0.551515
-0.00375204
0.0029245
-0.66639
0.667218
-0.00167508
0.000324392
-0.784922
0.786272
0.00135054
-0.00300545
-0.928584
0.930239
0.00490839
-0.00670112
-1.10281
1.1046
0.00869527
-0.0105142
-1.31319
1.315
0.01247
-0.014171
-1.56769
1.5694
0.0155899
-0.0166923
-1.5649
1.566
0.0173678
-0.0178369
-1.30687
1.30734
0.0181011
-0.0182846
-1.09545
1.09564
0.0183849
-0.018408
-0.92201
0.922033
0.0183617
-0.018291
-0.780555
0.780484
0.0179116
-0.0168712
-0.657471
0.656431
0.0149809
-0.0119233
-0.516486
0.513429
0.00869624
-0.00539635
-0.333571
0.330272
0.00306943
-0.00131927
-0.155447
0.153697
0.000380102
-0.0254736
0.0250935
-0.0296524
0.0298675
-0.000215077
0.00105377
-0.00118641
-0.233429
0.233561
0.000837758
-0.000219956
-0.403631
0.403014
-0.000368642
0.000420675
-0.551408
0.551356
0.000143572
-0.00102528
-0.668197
0.669078
0.00229591
-0.00364674
-0.787625
0.788976
0.00530078
-0.00692609
-0.931708
0.933333
0.00879614
-0.0105493
-1.10623
1.10798
0.0124921
-0.0142436
-1.31668
1.31843
0.0160786
-0.0175914
-1.57093
1.57244
0.0187558
-0.0195683
-1.56694
1.56776
0.0199412
-0.0200619
-1.30772
1.30784
0.0199705
-0.0197112
-1.09566
1.0954
0.0194016
-0.0190528
-0.921853
0.921504
0.0187306
-0.0183359
-0.78005
0.779655
0.0176235
-0.016272
-0.655215
0.653864
0.014176
-0.0110796
-0.510497
0.507401
0.00802001
-0.00500836
-0.327232
0.32422
0.00289172
-0.00126397
-0.15209
0.150462
0.000367828
-0.0247551
0.0243873
-0.0301371
0.0304567
-0.000319572
0.0018441
-0.00252176
-0.233955
0.234633
0.00289396
-0.00288868
-0.402742
0.402736
0.00276099
-0.00293892
-0.551553
0.551731
0.00362316
-0.0046091
-0.670161
0.671147
0.00597612
-0.0074235
-0.79035
0.791798
0.00918631
-0.0109105
-0.934787
0.936511
0.0128891
-0.0147513
-1.1096
1.11146
0.0168075
-0.0186282
-1.3201
1.32192
0.0204591
-0.0218682
-1.57384
1.57524
0.0228447
-0.0234049
-1.56842
1.56898
0.0235187
-0.0232976
-1.30784
1.30762
0.0228944
-0.0222929
-1.09497
1.09437
0.0216453
-0.0209052
-0.920912
0.920172
0.0202573
-0.0195194
-0.778943
0.778205
0.0184754
-0.01672
-0.652363
0.650607
0.0143503
-0.0111278
-0.504415
0.501193
0.00811142
-0.00518155
-0.321385
0.318455
0.00306213
-0.00136103
-0.148885
0.147184
0.000397896
-0.0240431
0.0236452
-0.0308347
0.0312598
-0.000425162
0.00257822
-0.00374034
-0.23557
0.236732
0.00477342
-0.00539146
-0.403066
0.403684
0.00578921
-0.00619075
-0.552209
0.55261
0.00694644
-0.00801693
-0.672351
0.673422
0.00953968
-0.0111987
-0.793273
0.794932
0.0132566
-0.0152731
-0.938134
0.940151
0.017573
-0.0197005
-1.11327
1.11539
0.0219895
-0.0239553
-1.32368
1.32565
0.0258443
-0.0272027
-1.57655
1.57791
0.0280342
-0.028323
-1.56938
1.56967
0.0281707
-0.0276426
-1.30728
1.30675
0.026932
-0.0259927
-1.09357
1.09264
0.0250624
-0.0240092
-0.919187
0.918133
0.023026
-0.0218392
-0.777097
0.775911
0.0203717
-0.0181628
-0.648725
0.646516
0.0154721
-0.012056
-0.498085
0.494669
0.00894652
-0.00586366
-0.315617
0.312534
0.00353223
-0.00158903
-0.145456
0.143513
0.000467374
-0.0232571
0.0227898
-0.0317528
0.0323098
-0.000556974
0.00342912
-0.00509438
-0.238169
0.239834
0.00678735
-0.00806524
-0.404629
0.405907
0.0091352
-0.0100019
-0.553494
0.554361
0.0110632
-0.0123815
-0.674765
0.676083
0.0142312
-0.0162532
-0.796631
0.798653
0.0187291
-0.021108
-0.942091
0.94447
0.0237643
-0.02615
-1.11746
1.11984
0.0286351
-0.0306814
-1.32752
1.32957
0.0325591
-0.0337943
-1.57913
1.58037
0.0343694
-0.0342988
-1.56975
1.56968
0.0337707
-0.0328185
-1.30601
1.30506
0.0317285
-0.030411
-1.09148
1.09016
0.0291303
-0.0276977
-0.91678
0.915348
0.0263634
-0.0247545
-0.774345
0.772736
0.0229221
-0.0203378
-0.644219
0.641635
0.0173969
-0.0137493
-0.49141
0.487763
0.0103616
-0.00688562
-0.309451
0.305975
0.0041798
-0.00188873
-0.141504
0.139213
0.000556896
-0.0223303
0.0217734
-0.03294
0.0336709
-0.000730806
0.00452067
-0.00676829
-0.241792
0.24404
0.00915964
-0.0111325
-0.407606
0.409579
0.0129901
-0.0145513
-0.555937
0.557498
0.0163007
-0.0182123
-0.677871
0.679783
0.0206694
-0.0231852
-0.800719
0.803235
0.0261232
-0.0288666
-0.946734
0.949478
0.0318453
-0.034453
-1.12211
1.12472
0.0370777
-0.0391486
-1.33146
1.33353
0.0409133
-0.0418842
-1.58137
1.58234
0.0420647
-0.0414708
-1.56931
1.56872
0.0404351
-0.0389559
-1.30385
1.30237
0.0374211
-0.0356072
-1.08854
1.08673
0.0339175
-0.0320755
-0.913534
0.911692
0.0303873
-0.0284008
-0.770722
0.768736
0.0262878
-0.0234278
-0.639061
0.636201
0.0202072
-0.0161215
-0.484273
0.480188
0.0122247
-0.00814246
-0.302438
0.298355
0.00494531
-0.00223953
-0.136842
0.134136
0.000662812
-0.021224
0.0205612
-0.034482
0.0354573
-0.00097531
0.00602475
-0.00903477
-0.246611
0.249621
0.0122384
-0.0148896
-0.412008
0.414659
0.017462
-0.0196887
-0.559902
0.562128
0.0221893
-0.0248115
-0.682285
0.684907
0.0280247
-0.0311596
-0.805787
0.808922
0.0347
-0.037905
-0.952115
0.95532
0.0413123
-0.0442431
-1.12721
1.13014
0.0471425
-0.0493626
-1.33546
1.33768
0.0511238
-0.051908
-1.58306
1.58385
0.0517337
-0.0506324
-1.56778
1.56667
0.0490287
-0.0468734
-1.3005
1.29835
0.0446961
-0.0422948
-1.08458
1.08218
0.0401993
-0.0379995
-0.909481
0.907281
0.036049
-0.0337721
-0.766355
0.764078
0.0313625
-0.0280025
-0.633303
0.629943
0.0240971
-0.0190945
-0.476085
0.471082
0.0143583
-0.00950764
-0.294186
0.289335
0.00576935
-0.00261422
-0.13137
0.128215
0.000773043
-0.0199127
0.0191396
-0.0365109
0.0378268
-0.00131586
0.00809972
-0.0121325
-0.252976
0.257009
0.0163489
-0.0197117
-0.41786
0.421223
0.0228624
-0.0255844
-0.565304
0.568026
0.0286678
-0.0319028
-0.688108
0.691343
0.0358918
-0.0397478
-0.812089
0.815945
0.0440146
-0.0478612
-0.958467
0.962314
0.0519446
-0.0554481
-1.13305
1.13655
0.0588984
-0.0615088
-1.33985
1.34246
0.0635386
-0.064398
-1.58449
1.58535
0.0641451
-0.0628142
-1.56534
1.56401
0.0609132
-0.058337
-1.29589
1.29331
0.0556906
-0.0526488
-1.07928
1.07624
0.0498529
-0.0469523
-0.904534
0.901633
0.0445109
-0.0415614
-0.761285
0.758336
0.0383573
-0.0337989
-0.626262
0.621704
0.0286502
-0.0223836
-0.465916
0.45965
0.0167281
-0.011084
-0.284455
0.278811
0.0067416
-0.0030586
-0.125002
0.121319
0.000903642
-0.0183805
0.0174769
-0.0392108
0.0410469
-0.00183612
0.011155
-0.016641
-0.261417
0.266903
0.0222696
-0.0265937
-0.425418
0.429742
0.0304069
-0.0335514
-0.571878
0.575022
0.0370905
-0.0408653
-0.695113
0.698888
0.0455181
-0.0500273
-0.819735
0.824244
0.0551221
-0.0597839
-0.96616
0.970822
0.0647658
-0.0690339
-1.14012
1.14439
0.0731965
-0.0763149
-1.34509
1.34821
0.0787256
-0.0797472
-1.58613
1.58715
0.0794765
-0.0779825
-1.56252
1.56102
0.0758455
-0.0729356
-1.2905
1.28759
0.0699288
-0.0663937
-1.07279
1.06926
0.0630625
-0.0593641
-0.898019
0.894321
0.0557842
-0.0514217
-0.754436
0.750074
0.0465717
-0.0401734
-0.616412
0.610013
0.0335615
-0.0260459
-0.453272
0.445756
0.0194873
-0.0129633
-0.273208
0.266684
0.00789568
-0.00357229
-0.117583
0.11326
0.00104828
-0.0165978
0.0155495
-0.0429171
0.0455748
-0.00265769
0.0157606
-0.0232756
-0.272761
0.280277
0.0308241
-0.0365431
-0.435497
0.441216
0.041384
-0.0451864
-0.579718
0.583521
0.0493506
-0.0537321
-0.70315
0.707531
0.0591488
-0.0644754
-0.828678
0.834005
0.0705528
-0.0760954
-0.975506
0.981049
0.081958
-0.0868779
-1.14867
1.15359
0.0915502
-0.0949283
-1.35125
1.35463
0.0973864
-0.0982259
-1.58795
1.58879
0.0975762
-0.0955487
-1.55921
1.55718
0.0928641
-0.0892879
-1.28433
1.28075
0.0856169
-0.0812877
-1.06518
1.06085
0.0771081
-0.0722083
-0.889637
0.884738
0.0672027
-0.0610462
-0.744399
0.738242
0.0545576
-0.0466009
-0.602896
0.594939
0.0388734
-0.0303428
-0.438358
0.429828
0.0228463
-0.0152435
-0.260268
0.252665
0.00925919
-0.00415456
-0.108892
0.103787
0.00120419
-0.0145343
0.0133301
-0.0482034
0.0522959
-0.00409253
0.0231563
-0.0335322
-0.288232
0.298608
0.043671
-0.0513929
-0.449353
0.457075
0.0578478
-0.0628471
-0.589549
0.594548
0.0682898
-0.0737763
-0.712502
0.717988
0.0803095
-0.086537
-0.839273
0.845501
0.0934359
-0.0995476
-0.986474
0.992586
0.105794
-0.110833
-1.15827
1.16331
0.115368
-0.118369
-1.35761
1.36061
0.120128
-0.120065
-1.58904
1.58898
0.118353
-0.115122
-1.55449
1.55126
0.111316
-0.106485
-1.27653
1.2717
0.101663
-0.0960485
-1.05572
1.05011
0.0906159
-0.0842589
-0.878583
0.872226
0.0779453
-0.0704051
-0.730706
0.723166
0.0628385
-0.0539086
-0.586496
0.577566
0.0453359
-0.0357329
-0.421526
0.411923
0.027029
-0.0179963
-0.245216
0.236183
0.0108381
-0.00479073
-0.0986931
0.0926458
0.00136042
-0.0121806
0.0108202
-0.0561537
0.0633294
-0.00717576
0.0365921
-0.0512739
-0.310034
0.324715
0.0651396
-0.075487
-0.468635
0.478983
0.0838687
-0.0904855
-0.602582
0.609199
0.097868
-0.104728
-0.724049
0.730908
0.11226
-0.118985
-0.851469
0.858194
0.126044
-0.131975
-0.998226
1.00416
0.137706
-0.141993
-1.16766
1.17195
0.145435
-0.147161
-1.36273
1.36446
0.147265
-0.145418
-1.58785
1.586
0.141856
-0.136714
-1.54696
1.54181
0.131235
-0.12467
-1.26593
1.25936
0.118333
-0.111127
-1.04348
1.03628
0.104325
-0.0966502
-0.864549
0.856873
0.0893745
-0.0810356
-0.714301
0.705962
0.0728649
-0.0631887
-0.568173
0.558497
0.0536241
-0.0425229
-0.402424
0.391323
0.0321543
-0.0212921
-0.227367
0.216505
0.0126856
-0.00550818
-0.0867818
0.0796043
0.00152029
-0.009552
0.00803172
-0.0701252
0.0739709
-0.00384567
0.027343
-0.0400406
-0.34211
0.354808
0.052436
-0.0618735
-0.494508
0.503945
0.0703889
-0.0789383
-0.619367
0.627917
0.0886177
-0.0972302
-0.737643
0.746255
0.107029
-0.115928
-0.864129
0.873028
0.125474
-0.133957
-1.00906
1.01754
0.142735
-0.15012
-1.17498
1.18237
0.157186
-0.162417
-1.36479
1.37002
0.166323
-0.167698
-1.58266
1.58403
0.166354
-0.162637
-1.53524
1.53152
0.157483
-0.150338
-1.25166
1.24452
0.142939
-0.133552
-1.028
1.01861
0.124621
-0.11449
-0.847914
0.837784
0.105087
-0.0945669
-0.696155
0.685635
0.0840945
-0.0716397
-0.547989
0.535534
0.059434
-0.0451107
-0.379947
0.365624
0.0322622
-0.0197116
-0.205797
0.193247
0.0107045
-0.00415962
-0.0731047
0.0665598
0.000972574
-0.00677006
0.00579749
-0.0809622
0.078826
0.00213621
0.00561721
-0.0137116
-0.370457
0.378552
0.0229579
-0.0300412
-0.518145
0.525229
0.0377101
-0.0453535
-0.638524
0.646168
0.0544054
-0.0626503
-0.754848
0.763093
0.0715031
-0.0796909
-0.881484
0.889672
0.0883897
-0.0957482
-1.02569
1.03305
0.103493
-0.109584
-1.18945
1.19554
0.115242
-0.118981
-1.37469
1.37843
0.120899
-0.120438
-1.58411
1.58365
0.117241
-0.11166
-1.52635
1.52077
0.104786
-0.0960401
-1.23626
1.22751
0.0874073
-0.0773187
-1.00839
0.9983
0.0677435
-0.0570823
-0.825939
0.815278
0.0476581
-0.0382101
-0.671756
0.662308
0.0302902
-0.0218269
-0.520948
0.512484
0.0143182
-0.00758488
-0.350639
0.343906
0.00327118
-0.000416234
-0.180874
0.178019
-0.000742306
0.000809407
-0.0600193
0.0599522
-0.00039652
-0.00453256
0.00492907
-0.0818225
0.078863
0.00295956
-0.00296561
-0.00146696
-0.389485
0.393918
0.00751784
-0.0129728
-0.536379
0.541834
0.0193079
-0.0260449
-0.655317
0.662054
0.0339625
-0.0412075
-0.770842
0.778087
0.0491784
-0.0563431
-0.897238
0.904403
0.0636727
-0.0701898
-1.04021
1.04673
0.0768025
-0.082041
-1.20112
1.20636
0.0864021
-0.0889547
-1.38137
1.38392
0.0899096
-0.0884064
-1.58224
1.58074
0.0843085
-0.0780195
-1.51428
1.50799
0.0707983
-0.0621141
-1.2184
1.20972
0.053411
-0.043756
-0.987739
0.978084
0.0347893
-0.0250221
-0.80446
0.794693
0.0166972
-0.00840719
-0.650773
0.642483
0.00188707
0.00448511
-0.501697
0.495325
-0.00860505
0.0104779
-0.334992
0.33312
-0.0101265
0.00823462
-0.172935
0.174827
-0.00577272
0.00297219
-0.0590216
0.0618221
-0.000993609
-0.00480116
0.00579477
-0.0803427
0.0775637
0.00277899
-0.00607169
0.0040687
-0.401983
0.403986
-0.000417623
-0.00388502
-0.550405
0.554708
0.00958424
-0.0153305
-0.669428
0.675175
0.0221883
-0.0285014
-0.785056
0.79137
0.0353878
-0.0415755
-0.911167
0.917355
0.0482662
-0.0538066
-1.05285
1.05839
0.0595898
-0.0637019
-1.21118
1.2153
0.067361
-0.0693598
-1.38621
1.38821
0.0696702
-0.0675623
-1.57874
1.57663
0.0634621
-0.0574169
-1.50117
1.49513
0.0505928
-0.0421927
-1.20088
1.19248
0.0342492
-0.0255469
-0.968221
0.959518
0.0173946
-0.00887203
-0.784788
0.776266
0.00129572
0.0058516
-0.632435
0.625287
-0.0111941
0.0154494
-0.486804
0.482549
-0.0174588
0.0169695
-0.327697
0.328187
-0.0145393
0.0107554
-0.174124
0.177908
-0.00722997
0.00352852
-0.063349
0.0670504
-0.00111331
-0.006203
0.00731631
-0.0787634
0.0763793
0.00238413
-0.00679634
0.0062102
-0.410312
0.410898
-0.00346899
0.000324479
-0.562013
0.565158
0.00453032
-0.00982205
-0.681468
0.68676
0.0156634
-0.021303
-0.797269
0.802908
0.0273431
-0.0327762
-0.923224
0.928657
0.0385738
-0.0435618
-1.06385
1.06884
0.0485073
-0.052351
-1.21931
1.22315
0.0555258
-0.0571922
-1.38988
1.39155
0.0572975
-0.0551995
-1.5744
1.57231
0.0513452
-0.0456088
-1.48855
1.48281
0.0394207
-0.0320142
-1.18427
1.17687
0.024963
-0.0171581
-0.950724
0.94292
0.0101309
-0.00271077
-0.76753
0.76011
-0.00363471
0.00969422
-0.616993
0.610934
-0.0140385
0.0172069
-0.475821
0.472652
-0.018573
0.0175825
-0.324744
0.325735
-0.0146776
0.0107587
-0.178806
0.182725
-0.00713788
0.00340922
-0.0691416
0.0728703
-0.00108002
-0.00783336
0.00891338
-0.0774228
0.0754158
0.00200691
-0.00643474
0.00621477
-0.416053
0.416273
-0.00462177
0.00191815
-0.571052
0.573756
0.00273103
-0.00731202
-0.691875
0.696456
0.0124234
-0.0174086
-0.807986
0.812971
0.022862
-0.0277935
-0.933866
0.938797
0.0331859
-0.0376352
-1.07362
1.07807
0.042178
-0.0457271
-1.22677
1.23032
0.0486222
-0.0501459
-1.39302
1.39454
0.0502317
-0.048662
-1.57021
1.56864
0.0451405
-0.0401321
-1.47681
1.4718
0.0346129
-0.0280569
-1.16954
1.16298
0.0220768
-0.0151542
-0.935248
0.928326
0.00903086
-0.00276919
-0.752696
0.746434
-0.00259908
0.00767277
-0.604157
0.599083
-0.0112732
0.0139602
-0.467152
0.464465
-0.0148257
0.014024
-0.32338
0.324182
-0.011811
0.00851811
-0.18353
0.186823
-0.00556003
0.00269271
-0.0745448
0.0774121
-0.000868756
-0.00932863
0.0101974
-0.0764806
0.0749398
0.00154075
-0.00540928
0.0054149
-0.420371
0.420366
-0.00396324
0.00182082
-0.579143
0.581286
0.00241086
-0.00658714
-0.701053
0.70523
0.0115109
-0.0158868
-0.817739
0.822115
0.0207649
-0.0252183
-0.943806
0.948259
0.0304255
-0.0345568
-1.08261
1.08674
0.0386977
-0.0421661
-1.23375
1.23722
0.0453484
-0.0468813
-1.39615
1.39768
0.047248
-0.0459081
-1.56679
1.56545
0.0431241
-0.0384693
-1.46673
1.46207
0.0337311
-0.0280981
-1.15645
1.15081
0.0227706
-0.0169348
-0.921674
0.915838
0.0116012
-0.00603628
-0.74005
0.734485
0.00164351
0.00280322
-0.593325
0.588878
-0.00599304
0.00813219
-0.45986
0.45772
-0.00898219
0.00871225
-0.322179
0.322449
-0.00725015
0.00505005
-0.186902
0.189102
-0.0032005
0.00155515
-0.0781608
0.0798062
-0.000528159
-0.0103595
0.0108877
-0.0760655
0.0748689
0.00119659
-0.0042622
0.00432656
-0.423878
0.423813
-0.00288835
0.000814238
-0.586306
0.58838
0.00312626
-0.00691543
-0.709417
0.713206
0.0112136
-0.0154948
-0.826572
0.830853
0.0200767
-0.0247281
-0.952618
0.95727
0.0292996
-0.0333261
-1.09103
1.09506
0.0376835
-0.0410089
-1.24064
1.24396
0.0438486
-0.0459227
-1.39919
1.40127
0.0466444
-0.0457866
-1.56423
1.56337
0.0434023
-0.0395808
-1.45771
1.45389
0.0354087
-0.0303736
-1.14498
1.13995
0.0256878
-0.0204815
-0.909982
0.904776
0.0157729
-0.0110103
-0.729036
0.724273
0.00685284
-0.00293646
-0.583893
0.579977
5.83052e-05
0.00216593
-0.453706
0.451482
-0.00322275
0.00331358
-0.320136
0.320045
-0.00288675
0.00204968
-0.188136
0.188973
-0.00132846
0.000683661
-0.0796207
0.0802655
-0.000276942
-0.010783
0.01106
-0.0761794
0.0751842
0.000995194
-0.00297326
0.00281521
-0.427118
0.427276
-0.00155025
-0.000605149
-0.592893
0.595048
0.00425048
-0.00794384
-0.717281
0.720975
0.0121141
-0.016048
-0.83504
0.838974
0.020798
-0.0247345
-0.96144
0.965376
0.0293346
-0.033245
-1.09929
1.1032
0.0375649
-0.0411597
-1.24732
1.25092
0.0443787
-0.0463477
-1.40316
1.40513
0.0475398
-0.047214
-1.5625
1.56218
0.045588
-0.042204
-1.44999
1.44661
0.0385696
-0.0340367
-1.13505
1.13052
0.0298107
-0.0249829
-0.89939
0.894562
0.0207456
-0.0162382
-0.719268
0.714761
0.0123853
-0.00862897
-0.575532
0.571776
0.00571499
-0.00349318
-0.447662
0.445441
0.00201817
-0.00130102
-0.317132
0.316414
0.000732935
-0.000376767
-0.187199
0.186843
0.000118256
0.000112389
-0.0791698
0.0789392
-0.00012176
-0.0107029
0.0108247
-0.0765637
0.0758765
0.000687171
-0.00183993
0.00131271
-0.43053
0.431058
-0.000245563
-0.0021979
-0.598697
0.60114
0.00548956
-0.00906598
-0.724685
0.728261
0.0130959
-0.0171862
-0.842864
0.846954
0.0213807
-0.0255124
-0.96958
0.973712
0.0301231
-0.0338791
-1.10758
1.11133
0.0383476
-0.0419611
-1.25437
1.25798
0.0453185
-0.0478885
-1.40755
1.41012
0.0496602
-0.0497094
-1.56193
1.56198
0.0484101
-0.0457802
-1.44341
1.44078
0.0426935
-0.0385072
-1.12584
1.12165
0.0345013
-0.0301609
-0.889629
0.885289
0.0258265
-0.0216752
-0.709972
0.70582
0.0179686
-0.0141926
-0.567719
0.563943
0.011331
-0.00869226
-0.441497
0.438858
0.0068244
-0.00523814
-0.31315
0.311563
0.00393517
-0.00252438
-0.184355
0.182944
0.00130152
-0.000365011
-0.0771605
0.0762239
-3.79487e-06
-0.0102109
0.0102147
-0.0773457
0.0768046
0.000541081
-0.000898085
0.000469593
-0.434165
0.434594
0.00128859
-0.00352312
-0.604707
0.606942
0.00694361
-0.0103965
-0.73162
0.735073
0.0142932
-0.0180189
-0.850799
0.854524
0.0223661
-0.0262227
-0.977905
0.981761
0.0308204
-0.0350384
-1.11557
1.11979
0.0392017
-0.0431867
-1.26168
1.26566
0.0470184
-0.0497447
-1.41263
1.41536
0.0519603
-0.0528453
-1.56228
1.56316
0.0520362
-0.0500441
-1.43802
1.43603
0.0471523
-0.0433709
-1.11746
1.11368
0.0396978
-0.0354312
-0.880496
0.87623
0.0313639
-0.0272116
-0.701117
0.696965
0.0235206
-0.0196118
-0.559737
0.555828
0.0164638
-0.0135275
-0.434935
0.431999
0.0109855
-0.00865251
-0.307754
0.305421
0.00653563
-0.00426872
-0.179678
0.177411
0.00240521
-0.000894456
-0.0739421
0.0724313
0.000164029
-0.00948486
0.00932084
-0.0783726
0.0780033
0.000369292
8.27483e-05
-0.000780686
-0.437886
0.438584
0.00240431
-0.00490104
-0.610302
0.612799
0.00823192
-0.0115306
-0.738331
0.74163
0.0155149
-0.0191089
-0.858288
0.861882
0.0233273
-0.027326
-0.986132
0.990131
0.0318554
-0.0360663
-1.1239
1.12811
0.0404806
-0.0445276
-1.2696
1.27365
0.0485893
-0.0520983
-1.4184
1.42191
0.0548098
-0.0560412
-1.56402
1.56525
0.0559524
-0.0542938
-1.43392
1.43227
0.051933
-0.0486164
-1.10978
1.10647
0.0449327
-0.0407796
-0.871616
0.867463
0.0367859
-0.0324955
-0.692379
0.688089
0.028829
-0.0247392
-0.551765
0.547676
0.0213918
-0.0178895
-0.427808
0.424306
0.014887
-0.0118008
-0.301019
0.297933
0.00882487
-0.00578693
-0.173401
0.170363
0.00334201
-0.00132058
-0.0697006
0.0676792
0.000283841
-0.00854157
0.00825773