/*--------------------------------*- C++ -*----------------------------------*\
  =========                 |
  \\      /  F ield         | OpenFOAM: The Open Source CFD Toolbox
   \\    /   O peration     | Website:  https://openfoam.org
    \\  /    A nd           | Version:  10
     \\/     M anipulation  |
\*---------------------------------------------------------------------------*/
FoamFile
{
    format      ascii;
    class       volScalarField;
    location    "59";
    object      p;
}
// * * * * * * * * * * * * * * * * * * * * * * * * * * * * * * * * * * * * * //

dimensions      [0 2 -2 0 0 0 0];

internalField   nonuniform List<scalar> 
2200
(
0.77251
0.751011
0.735104
0.719436
0.704828
0.692311
0.681959
0.673864
0.668169
0.665233
0.665737
0.669572
0.675919
0.684483
0.695171
0.707941
0.722734
0.738662
0.754706
0.776204
0.704917
0.701658
0.698736
0.694623
0.689165
0.682697
0.676088
0.670142
0.665645
0.663271
0.663746
0.667079
0.67228
0.678752
0.685744
0.692503
0.698169
0.702266
0.705115
0.708477
0.665002
0.665223
0.667281
0.668625
0.669016
0.668168
0.666193
0.663526
0.661001
0.659532
0.66011
0.66257
0.66586
0.669092
0.671428
0.672427
0.672157
0.671166
0.669529
0.66928
0.642502
0.643953
0.646552
0.649008
0.651456
0.65348
0.654638
0.654879
0.654521
0.654254
0.654927
0.65632
0.65753
0.657929
0.657256
0.655588
0.653429
0.651231
0.648614
0.64721
0.628128
0.6301
0.632922
0.635766
0.638633
0.641474
0.643945
0.645818
0.647063
0.647884
0.648637
0.649124
0.648906
0.647811
0.645962
0.643603
0.641065
0.638341
0.635542
0.633618
0.620785
0.622383
0.624589
0.627123
0.629793
0.632466
0.635071
0.63751
0.639548
0.641078
0.641974
0.642031
0.641218
0.639723
0.637837
0.635697
0.633374
0.631035
0.628938
0.627364
0.617355
0.618379
0.619649
0.621514
0.62366
0.625836
0.628039
0.630341
0.632582
0.634463
0.635519
0.635562
0.634817
0.633633
0.632261
0.630719
0.629026
0.627452
0.626339
0.625323
0.614663
0.615332
0.615966
0.617273
0.618897
0.620596
0.622366
0.624313
0.626407
0.628402
0.629693
0.630029
0.629735
0.629137
0.628377
0.627448
0.626414
0.625496
0.62505
0.624373
0.611398
0.611843
0.612242
0.613241
0.614509
0.615902
0.617414
0.619105
0.620993
0.622998
0.624566
0.625402
0.625696
0.625671
0.625403
0.624944
0.624372
0.623845
0.623661
0.623197
0.607322
0.60762
0.607978
0.608851
0.609972
0.611258
0.612709
0.614341
0.616184
0.618259
0.620171
0.621535
0.622347
0.622751
0.62286
0.622738
0.622453
0.622139
0.622014
0.621689
0.602573
0.602774
0.603147
0.60398
0.605077
0.606393
0.607933
0.609697
0.611692
0.613975
0.61632
0.618196
0.619455
0.620217
0.620583
0.620693
0.620595
0.620425
0.620323
0.620085
0.597333
0.597478
0.597851
0.598664
0.599815
0.601257
0.602981
0.604996
0.607338
0.610066
0.612921
0.61531
0.616953
0.617985
0.618581
0.618866
0.618956
0.618931
0.618863
0.618674
0.591674
0.591782
0.592163
0.592989
0.594223
0.595833
0.597814
0.600177
0.602978
0.606283
0.609785
0.612692
0.614751
0.616117
0.616978
0.61749
0.617792
0.617904
0.617875
0.617707
0.585627
0.585696
0.586079
0.586931
0.588273
0.590064
0.592311
0.595064
0.598425
0.602444
0.606709
0.610297
0.612852
0.61463
0.615862
0.616677
0.617206
0.617454
0.617467
0.617309
0.579021
0.579061
0.579484
0.580393
0.581877
0.583878
0.586422
0.589633
0.593657
0.598538
0.603715
0.608098
0.611322
0.613649
0.615335
0.616518
0.617297
0.617695
0.617756
0.617599
0.571817
0.571781
0.572201
0.573208
0.574906
0.577179
0.580095
0.583841
0.588622
0.594522
0.600831
0.606177
0.610205
0.613226
0.615476
0.617071
0.618142
0.618704
0.618816
0.618654
0.563693
0.563677
0.56414
0.565265
0.567216
0.569817
0.573207
0.577606
0.583262
0.590315
0.597955
0.604581
0.609643
0.613449
0.61631
0.618409
0.619813
0.620547
0.620713
0.620542
0.554531
0.554556
0.554996
0.55623
0.558467
0.561482
0.565483
0.570692
0.57742
0.585903
0.595207
0.603339
0.609611
0.614389
0.617999
0.620631
0.622404
0.623321
0.62354
0.623352
0.543849
0.543826
0.544375
0.545835
0.548456
0.552063
0.556884
0.563193
0.571344
0.581622
0.592854
0.602653
0.610296
0.616146
0.620562
0.623825
0.626017
0.627114
0.627382
0.627173
0.531192
0.531126
0.5318
0.533635
0.536813
0.541224
0.547149
0.554882
0.564837
0.577297
0.590868
0.602635
0.61176
0.618791
0.624131
0.628081
0.630735
0.632022
0.632329
0.632093
0.516265
0.516161
0.516935
0.519151
0.523077
0.528575
0.535963
0.545592
0.557906
0.573088
0.589323
0.603309
0.614123
0.622441
0.628776
0.633515
0.63663
0.638083
0.638418
0.63815
0.498047
0.497962
0.498971
0.501745
0.506659
0.513603
0.522945
0.535053
0.550335
0.568797
0.588125
0.604635
0.617308
0.627069
0.634566
0.640119
0.643716
0.645338
0.645673
0.645372
0.475573
0.47543
0.476732
0.48031
0.486703
0.49578
0.507859
0.523282
0.54227
0.564618
0.587509
0.606698
0.621404
0.632742
0.641439
0.647905
0.651972
0.65372
0.654029
0.653695
0.446516
0.446535
0.448633
0.453723
0.462478
0.474741
0.490673
0.510352
0.533757
0.560551
0.587411
0.609693
0.626619
0.639579
0.649551
0.656832
0.661272
0.663101
0.663352
0.662984
0.408198
0.408439
0.411962
0.419912
0.432673
0.449854
0.471019
0.496022
0.524677
0.556581
0.587891
0.613421
0.632671
0.647408
0.658637
0.666743
0.671462
0.673267
0.673429
0.673046
0.357216
0.357606
0.364575
0.377791
0.396951
0.42126
0.449431
0.481131
0.516089
0.553714
0.589612
0.618374
0.639938
0.656365
0.668889
0.677622
0.682268
0.683751
0.683747
0.683423
0.2902
0.292987
0.308049
0.329483
0.357578
0.390842
0.427205
0.46638
0.508219
0.55217
0.59315
0.625708
0.650025
0.668608
0.682512
0.691947
0.696478
0.697508
0.697446
0.697261
0.214049
0.223548
0.248692
0.279915
0.318171
0.360569
0.405185
0.452122
0.501315
0.552157
0.599059
0.635865
0.663407
0.684325
0.700013
0.710189
0.714501
0.715071
0.715057
0.714989
0.145986
0.160655
0.192088
0.232287
0.280163
0.331414
0.38412
0.4388
0.495283
0.552701
0.605015
0.646117
0.676968
0.700166
0.717268
0.727997
0.732236
0.732461
0.732556
0.732552
0.0942562
0.107374
0.143985
0.190263
0.245476
0.304245
0.364334
0.426178
0.489365
0.553055
0.610759
0.656194
0.689786
0.715056
0.73352
0.745003
0.7493
0.750176
0.750377
0.750365
0.0514129
0.0638478
0.104227
0.154387
0.215054
0.279784
0.346231
0.414489
0.484011
0.554089
0.617453
0.666348
0.702422
0.729596
0.749359
0.761308
0.76639
0.767471
0.767523
0.767595
0.0148313
0.0274879
0.0705181
0.123557
0.188563
0.258104
0.330025
0.404092
0.479574
0.555369
0.623236
0.675569
0.714258
0.743038
0.764304
0.776928
0.78225
0.783459
0.783538
0.783612
-0.0170543
-0.00417942
0.0409792
0.0965849
0.165241
0.238857
0.315531
0.394611
0.475185
0.55589
0.628256
0.684253
0.725005
0.75537
0.777632
0.790789
0.796575
0.797925
0.798056
0.798114
-0.0453986
-0.0325106
0.0143375
0.0724504
0.144303
0.221414
0.302107
0.385417
0.470477
0.556011
0.633042
0.69192
0.734757
0.766285
0.789238
0.803143
0.809146
0.810675
0.810832
0.810873
-0.0712517
-0.0583482
-0.0101889
0.0503362
0.124956
0.205068
0.289243
0.376306
0.465575
0.555682
0.636772
0.6984
0.743231
0.77597
0.799309
0.813756
0.820122
0.821769
0.821979
0.821989
-0.0952635
-0.0821187
-0.0331553
0.0295782
0.106629
0.189431
0.276708
0.367198
0.460363
0.554644
0.639636
0.704376
0.750908
0.784506
0.808241
0.823207
0.829602
0.83142
0.831622
0.831607
-0.117869
-0.104448
-0.0547563
0.00988191
0.0890213
0.174239
0.264334
0.357956
0.454654
0.552845
0.641786
0.709525
0.757602
0.79243
0.816584
0.831268
0.837946
0.839742
0.839976
0.839909
-0.139175
-0.125643
-0.0752569
-0.00901479
0.0719444
0.159379
0.252022
0.348422
0.448257
0.55013
0.643079
0.713984
0.764017
0.799746
0.824193
0.838721
0.845158
0.846994
0.847145
0.847024
-0.159497
-0.145889
-0.0948165
-0.0272064
0.0553096
0.144694
0.239578
0.338432
0.441129
0.546572
0.643522
0.717807
0.770209
0.807061
0.83148
0.845442
0.851694
0.85332
0.853463
0.853362
-0.17922
-0.165218
-0.113643
-0.0448684
0.0389881
0.130076
0.226926
0.328005
0.433386
0.542195
0.643073
0.721064
0.776231
0.814353
0.838712
0.85209
0.857627
0.858999
0.859103
0.859016
-0.198614
-0.183901
-0.131878
-0.0620691
0.0229316
0.115476
0.214055
0.317176
0.42503
0.536911
0.641703
0.723709
0.78209
0.82221
0.846603
0.858841
0.863421
0.864131
0.864191
0.864154
-0.217546
-0.202081
-0.149649
-0.0788991
0.00710771
0.100932
0.201041
0.305994
0.416072
0.530803
0.639431
0.725644
0.787857
0.830532
0.855591
0.866716
0.869208
0.86891
0.86879
0.868645
-0.235993
-0.219888
-0.166975
-0.095327
-0.00843004
0.0864995
0.187931
0.294489
0.406574
0.523923
0.636057
0.726604
0.793217
0.839565
0.866336
0.876177
0.876082
0.873869
0.873523
0.874434
-0.253811
-0.237246
-0.183837
-0.111349
-0.0236535
0.0722374
0.174792
0.282737
0.396621
0.516274
0.631481
0.726419
0.798045
0.848961
0.879024
0.888891
0.886025
0.879267
0.8743
0.873173
-0.271047
-0.254106
-0.200165
-0.126896
-0.0384984
0.0581959
0.161681
0.270812
0.386269
0.507879
0.625698
0.724831
0.801615
0.858539
0.893646
0.90578
0.903285
0.892063
0.891702
0.895849
-0.287636
-0.270348
-0.215901
-0.141942
-0.0529359
0.0444312
0.148677
0.258792
0.375553
0.49879
0.618807
0.721579
0.803686
0.867136
0.909233
0.926833
0.926124
0.896797
0.857918
0.823825
-0.303571
-0.286008
-0.23107
-0.156534
-0.0670446
0.0308266
0.135631
0.246489
0.364255
0.488823
0.610612
0.716257
0.803074
0.873835
0.925132
0.951446
0.965248
0.942025
0.9593
1.01983
-0.318771
-0.301085
-0.245765
-0.17083
-0.0810198
0.0171615
0.122283
0.233572
0.351942
0.477397
0.600438
0.708076
0.798779
0.875584
0.932977
0.964227
0.969552
0.944239
0.901304
0.917481
-0.333242
-0.3156
-0.259944
-0.184758
-0.0947651
0.00353883
0.108751
0.220172
0.338748
0.464595
0.58829
0.696857
0.788667
0.867788
0.926284
0.957763
0.940754
0.884094
0.818907
0.806234
-0.346942
-0.3295
-0.273605
-0.198339
-0.108297
-0.0100404
0.0950548
0.206326
0.324708
0.450396
0.573997
0.682135
0.772477
0.847443
0.900573
0.905413
0.867809
0.788605
0.712938
0.688991
-0.359935
-0.342825
-0.286762
-0.211571
-0.121618
-0.0235861
0.0811922
0.192047
0.309863
0.434827
0.557484
0.66371
0.748797
0.812253
0.840576
0.825662
0.764513
0.661381
0.573044
0.549797
-0.372645
-0.355921
-0.2998
-0.224837
-0.135099
-0.0374154
0.0668968
0.177119
0.29404
0.417721
0.538478
0.640976
0.718708
0.766178
0.760526
0.724221
0.61069
0.486877
0.378522
0.350426
-0.38596
-0.36964
-0.31341
-0.238724
-0.149276
-0.0519994
0.0517583
0.161201
0.276976
0.398861
0.51673
0.6136
0.683994
0.70665
0.673043
0.583412
0.426112
0.272418
0.142177
0.113776
-0.400378
-0.384279
-0.327899
-0.253502
-0.164362
-0.0674767
0.0356949
0.144255
0.258661
0.378263
0.492207
0.582465
0.642187
0.636119
0.583885
0.432848
0.232538
0.0195149
-0.160944
-0.210079
-0.416053
-0.400061
-0.343338
-0.269146
-0.180294
-0.0838064
0.0187295
0.126299
0.239133
0.356001
0.464897
0.548928
0.59365
0.55585
0.468574
0.280401
0.049418
-0.239044
-0.559726
-0.708402
-0.433022
-0.416937
-0.359838
-0.285809
-0.197184
-0.101069
0.000799808
0.107283
0.218355
0.332132
0.435189
0.512611
0.539304
0.471187
0.334686
0.129682
-0.103545
-0.446437
-1.03148
-1.60248
-0.451425
-0.435174
-0.377488
-0.303485
-0.214997
-0.119243
-0.0180691
0.0872672
0.196479
0.306996
0.404098
0.473386
0.481264
0.396862
0.20572
-0.0268879
-0.22862
-0.461913
-1.01428
-2.52179
-0.471221
-0.454643
-0.396379
-0.322388
-0.233969
-0.138553
-0.0381136
0.0659916
0.173193
0.280311
0.371467
0.430966
0.418159
0.338611
0.11281
-0.124108
-0.270972
-0.307296
-0.295651
-0.681598
-0.492411
-0.475736
-0.416705
-0.342718
-0.254417
-0.159474
-0.0599644
0.04267
0.147553
0.250663
0.33617
0.385277
0.356643
0.28899
0.0631677
-0.137721
-0.247655
-0.255046
-0.201597
-0.241549
-0.514811
-0.498028
-0.438442
-0.364659
-0.276538
-0.182177
-0.0837795
0.01715
0.119353
0.217998
0.298484
0.337483
0.302361
0.235281
0.0312922
-0.127954
-0.209421
-0.217176
-0.265201
-0.269088
-0.538491
-0.521761
-0.461552
-0.388072
-0.300205
-0.206641
-0.109609
-0.0106549
0.088563
0.182614
0.258106
0.287757
0.255519
0.174746
0.00329577
-0.118165
-0.187663
-0.164992
-0.185243
-0.186858
-0.563057
-0.546094
-0.485836
-0.41301
-0.32542
-0.232849
-0.137381
-0.0406144
0.0553236
0.144816
0.215442
0.234542
0.214656
0.106849
-0.0316043
-0.113168
-0.15127
-0.199563
-0.173952
-0.18252
-0.588445
-0.571111
-0.511231
-0.439143
-0.351792
-0.260582
-0.166918
-0.0725509
0.0197309
0.104896
0.171537
0.180215
0.172137
0.0466438
-0.0682963
-0.131828
-0.10806
-0.168032
-0.148962
-0.153877
-0.613436
-0.595982
-0.537528
-0.4663
-0.379168
-0.289681
-0.197949
-0.106121
-0.0179608
0.0633061
0.127373
0.128524
0.120254
-0.00490018
-0.0951121
-0.145777
-0.134446
-0.148945
-0.154499
-0.152631
-0.637881
-0.620541
-0.564056
-0.493596
-0.406993
-0.319721
-0.230075
-0.140945
-0.0572408
0.0204062
0.0832892
0.0808753
0.0628716
-0.0470105
-0.108623
-0.139708
-0.17868
-0.149928
-0.15567
-0.150058
-0.660579
-0.643949
-0.589506
-0.520268
-0.435128
-0.35025
-0.262768
-0.17648
-0.0972182
-0.0234899
0.038924
0.037285
0.00735074
-0.0825116
-0.122643
-0.114081
-0.1875
-0.130135
-0.145413
-0.137558
-0.68107
-0.665555
-0.613127
-0.545105
-0.46299
-0.380411
-0.295364
-0.212118
-0.136949
-0.0680068
-0.00611561
-0.00326104
-0.0384218
-0.101503
-0.13002
-0.0900989
-0.134294
-0.116955
-0.123358
-0.120283
-0.697541
-0.683683
-0.633859
-0.567906
-0.489635
-0.409241
-0.327024
-0.247074
-0.175547
-0.112185
-0.0516582
-0.0416271
-0.0704211
-0.103393
-0.121614
-0.0979528
-0.112058
-0.115272
-0.116414
-0.116723
-0.70934
-0.697639
-0.6511
-0.587645
-0.513276
-0.435824
-0.356879
-0.280479
-0.212205
-0.154872
-0.0962507
-0.0777333
-0.0957226
-0.098945
-0.112194
-0.125447
-0.117716
-0.122926
-0.119578
-0.120465
-0.714888
-0.705624
-0.66326
-0.603252
-0.532815
-0.458979
-0.383783
-0.311207
-0.246088
-0.194321
-0.137648
-0.11444
-0.124829
-0.100602
-0.0981196
-0.13415
-0.113705
-0.127395
-0.12115
-0.123784
-0.714364
-0.707251
-0.669226
-0.613086
-0.546968
-0.477485
-0.406588
-0.337982
-0.276193
-0.228623
-0.174061
-0.151373
-0.159212
-0.122373
-0.0720692
-0.10619
-0.0912606
-0.115075
-0.120271
-0.12426
-0.706659
-0.699309
-0.666412
-0.615857
-0.554868
-0.490129
-0.423798
-0.359237
-0.300772
-0.255941
-0.204877
-0.186479
-0.19549
-0.183377
-0.126373
-0.148488
-0.165708
-0.177354
-0.180022
-0.180302
-0.686485
-0.678078
-0.653294
-0.610118
-0.555371
-0.496151
-0.43477
-0.373681
-0.317542
-0.273894
-0.226349
-0.212534
-0.250299
-0.35427
-0.525223
-0.621355
-0.64306
-0.609741
-0.56423
-0.527513
-0.644289
-0.636252
-0.627231
-0.59598
-0.549046
-0.495396
-0.438654
-0.380106
-0.324192
-0.279372
-0.233655
-0.207101
-0.300264
-0.476834
-0.723511
-0.844622
-0.855736
-0.794237
-0.74392
-0.695919
-0.603109
-0.600186
-0.59949
-0.574977
-0.536899
-0.489748
-0.436441
-0.378655
-0.319459
-0.268378
-0.218209
-0.151474
-0.134378
-0.142323
-0.195725
-0.169033
-0.0862379
-0.0217169
0.0517696
0.0911264
-0.581055
-0.582667
-0.572879
-0.557267
-0.525813
-0.481556
-0.429184
-0.370558
-0.304976
-0.23809
-0.172173
-0.0437641
0.116726
0.381996
0.64795
0.872047
1.03486
1.12931
1.16922
1.19856
-0.549627
-0.549534
-0.545973
-0.543082
-0.516857
-0.474925
-0.421237
-0.35936
-0.286424
-0.201733
-0.112088
0.0345368
0.255756
0.5943
0.936713
1.21794
1.41219
1.52786
1.58319
1.60341
-0.534736
-0.533004
-0.535692
-0.529603
-0.509414
-0.469893
-0.41486
-0.348815
-0.270322
-0.173836
-0.069256
0.063662
0.304634
0.621436
0.939548
1.21035
1.41151
1.53284
1.58694
1.60247
-0.521632
-0.520471
-0.524348
-0.517032
-0.504475
-0.465137
-0.409015
-0.340491
-0.259307
-0.157961
-0.0492008
0.0534638
0.27257
0.546134
0.813473
1.04421
1.225
1.33373
1.38158
1.39476
-0.503175
-0.50277
-0.503944
-0.500187
-0.498397
-0.462925
-0.407984
-0.337566
-0.255053
-0.155705
-0.0511062
0.0247179
0.202735
0.43462
0.65009
0.832631
0.979455
1.06853
1.10705
1.11678
-0.489395
-0.488654
-0.484294
-0.481733
-0.48102
-0.458019
-0.407963
-0.337764
-0.257059
-0.164805
-0.065907
-0.00643153
0.126943
0.318428
0.48964
0.628967
0.740314
0.808992
0.838532
0.846208
-0.498263
-0.49579
-0.490109
-0.49072
-0.486229
-0.463842
-0.4098
-0.338475
-0.259863
-0.177518
-0.0847113
-0.0332994
0.059603
0.213453
0.34828
0.453109
0.534854
0.586895
0.608453
0.612763
-0.525374
-0.5244
-0.524767
-0.534481
-0.528339
-0.491493
-0.418201
-0.339596
-0.260583
-0.187597
-0.101773
-0.0539007
0.00757382
0.128339
0.232384
0.310189
0.370312
0.408768
0.423704
0.428793
-0.555844
-0.55922
-0.568223
-0.57735
-0.565743
-0.509897
-0.419316
-0.335447
-0.255777
-0.191175
-0.113601
-0.0685917
-0.0284968
0.0665077
0.144395
0.200278
0.244923
0.27505
0.28527
0.288162
-0.521613
-0.526072
-0.536952
-0.548274
-0.535308
-0.476996
-0.395915
-0.316772
-0.241591
-0.18499
-0.118687
-0.0775615
-0.0511495
0.0240334
0.0808035
0.119739
0.153129
0.174181
0.183382
0.186044
-0.395026
-0.401473
-0.41196
-0.418511
-0.411553
-0.377324
-0.327231
-0.273017
-0.214544
-0.167255
-0.116669
-0.0817376
-0.0625933
-0.00483576
0.035481
0.0635026
0.086128
0.0994154
0.105475
0.10696
-0.237455
-0.24096
-0.245837
-0.251637
-0.251803
-0.243013
-0.22686
-0.204394
-0.171414
-0.140212
-0.107087
-0.0808855
-0.0637595
-0.0232378
0.00462984
0.0240103
0.0378251
0.0450966
0.0474257
0.0472081
-0.102794
-0.104535
-0.108169
-0.114838
-0.121392
-0.12765
-0.132298
-0.131672
-0.121153
-0.108188
-0.0904344
-0.0736315
-0.0586949
-0.0327899
-0.0151678
-0.00367741
0.00325811
0.00559249
0.00526116
0.00424012
-0.0109037
-0.0119211
-0.0143331
-0.0215541
-0.0342224
-0.049122
-0.0626669
-0.0724924
-0.0758057
-0.0764745
-0.0696604
-0.061062
-0.0513979
-0.0366541
-0.0274778
-0.0223291
-0.0201647
-0.0208836
-0.0227321
-0.0240972
0.0387321
0.0379325
0.0359081
0.0289722
0.0151042
-0.00271426
-0.0195135
-0.0335696
-0.0427528
-0.0501484
-0.0495236
-0.0458653
-0.0431632
-0.0368661
-0.0339215
-0.0331707
-0.0340837
-0.0364609
-0.0387157
-0.0401298
0.0593637
0.0587815
0.0570712
0.0510362
0.0387054
0.0218689
0.00495716
-0.0104912
-0.0219611
-0.0314146
-0.0332478
-0.0331971
-0.0350581
-0.0340258
-0.0348898
-0.037233
-0.0398891
-0.0428808
-0.0450598
-0.0464091
0.0636664
0.0632318
0.0618853
0.0571044
0.0472268
0.0332098
0.0180948
0.00308325
-0.00891181
-0.0189382
-0.0216862
-0.024054
-0.0280395
-0.0300262
-0.0330289
-0.036679
-0.0399524
-0.0428201
-0.0446987
-0.0459221
0.0597793
0.0594722
0.0584454
0.0548534
0.047392
0.0365932
0.0242556
0.0110004
-0.000159724
-0.0103887
-0.013994
-0.0171547
-0.0219471
-0.0251106
-0.0290525
-0.0330711
-0.0364751
-0.0391377
-0.0406216
-0.0416825
0.0524821
0.0522774
0.051529
0.0489415
0.0434964
0.0354368
0.0258714
0.0149731
0.0056557
-0.00419353
-0.00861969
-0.0117015
-0.0163631
-0.0198863
-0.0243043
-0.0283797
-0.0315635
-0.0339102
-0.0350279
-0.0359073
0.0442422
0.0441251
0.0435912
0.0417951
0.0379753
0.0321509
0.0249724
0.016327
0.00906567
9.70765e-05
-0.00455262
-0.00748837
-0.0116016
-0.0150187
-0.019396
-0.0232059
-0.0260364
-0.0280736
-0.0288728
-0.0295889
0.0360818
0.0360272
0.0356575
0.0344173
0.0317507
0.0276412
0.0224286
0.0158238
0.0104677
0.00279807
-0.0013707
-0.00432966
-0.00823021
-0.0111246
-0.0148727
-0.0181069
-0.0205423
-0.0222772
-0.0228905
-0.0234695
0.0285459
0.0285041
0.0282473
0.0274112
0.0255766
0.0226366
0.0188045
0.0138036
0.0100486
0.00391853
0.000592922
-0.00195386
-0.00565246
-0.00808841
-0.0111911
-0.0138312
-0.0157789
-0.0171693
-0.0175939
-0.0180297
0.0219067
0.0218852
0.021718
0.0211562
0.0199268
0.0179059
0.015108
0.0112533
0.00862824
0.00383875
0.00137137
-0.000663894
-0.00370693
-0.00561005
-0.00811382
-0.0101222
-0.0115413
-0.0125276
-0.0128318
-0.0132068
0.0159906
0.0159732
0.0158858
0.0155339
0.0147441
0.013415
0.0115854
0.00875091
0.00704054
0.00321334
0.00150317
-0.00024975
-0.00261968
-0.00374385
-0.00552085
-0.00684069
-0.00775978
-0.00840585
-0.008602
-0.00892519
0.0106874
0.0106664
0.0106146
0.0104373
0.0100084
0.00924205
0.00822339
0.00628063
0.00538348
0.0023301
0.00115469
-0.00023201
-0.00190037
-0.00235964
-0.0035675
-0.00435873
-0.00483101
-0.00512483
-0.00520775
-0.00553995
0.00607198
0.00604949
0.00602351
0.0059849
0.00583693
0.00548895
0.00509501
0.00381141
0.00365121
0.00145512
0.000842819
-0.000110114
-0.00131618
-0.0014246
-0.0024751
-0.00286925
-0.00302823
-0.00309099
-0.00299813
-0.00326868
0.00211298
0.00212371
0.0021575
0.00219737
0.00220918
0.00205014
0.00204054
0.00133363
0.00167917
0.000490027
0.000644881
0.000511043
-0.000418072
-0.000320225
-0.00164898
-0.00222077
-0.00285225
-0.00333692
-0.00312505
-0.00314775
-1.07365
-0.236331
0.0336048
0.308953
0.489338
0.643911
0.768112
0.894841
1.03502
1.11869
-0.0958719
0.309633
0.325095
0.512652
0.635214
0.745192
0.83965
0.923958
0.951043
0.909335
0.2789
0.491841
0.525937
0.661859
0.746758
0.825723
0.890889
0.939841
0.941738
0.956019
0.506912
0.648925
0.683648
0.784542
0.84118
0.898158
0.94265
0.974819
0.983785
1.00753
0.683719
0.784381
0.814091
0.880986
0.925362
0.965929
0.997859
1.02205
1.03176
1.06339
0.826221
0.894603
0.924831
0.967363
1.00328
1.03321
1.05737
1.07809
1.09215
1.12049
0.944883
0.99521
1.02068
1.04849
1.076
1.09968
1.11958
1.13881
1.15366
1.1802
1.04835
1.08523
1.10623
1.1268
1.14751
1.16684
1.18422
1.20232
1.21719
1.24087
1.14215
1.1712
1.18749
1.20272
1.21878
1.23482
1.25037
1.26727
1.28089
1.30321
1.23031
1.25074
1.26557
1.27872
1.29228
1.30604
1.31954
1.33413
1.34567
1.36531
1.3157
1.33148
1.34529
1.3571
1.36901
1.38065
1.39178
1.40347
1.41114
1.42794
1.40092
1.41346
1.42717
1.43892
1.44956
1.45935
1.46817
1.47644
1.48
1.49124
1.48966
1.50049
1.51396
1.52349
1.53106
1.53835
1.54553
1.55201
1.55311
1.56047
1.58807
1.59268
1.60087
1.60562
1.60901
1.61349
1.61949
1.62715
1.63105
1.64093
1.70137
1.68827
1.68098
1.67526
1.67253
1.67387
1.68021
1.69257
1.7074
1.73706
1.82335
1.76732
1.73629
1.7191
1.71088
1.71081
1.71965
1.73926
1.77107
1.84033
)
;

boundaryField
{
    wall-4
    {
        type            zeroGradient;
    }
    pressure-outlet-7
    {
        type            fixedValue;
        value           uniform 0;
    }
    velocity-inlet-6
    {
        type            zeroGradient;
    }
    velocity-inlet-5
    {
        type            zeroGradient;
    }
    frontAndBackPlanes
    {
        type            empty;
    }
}


// ************************************************************************* //
