/*--------------------------------*- C++ -*----------------------------------*\
  =========                 |
  \\      /  F ield         | OpenFOAM: The Open Source CFD Toolbox
   \\    /   O peration     | Website:  https://openfoam.org
    \\  /    A nd           | Version:  10
     \\/     M anipulation  |
\*---------------------------------------------------------------------------*/
FoamFile
{
    format      ascii;
    class       surfaceScalarField;
    location    "59";
    object      phi;
}
// * * * * * * * * * * * * * * * * * * * * * * * * * * * * * * * * * * * * * //

dimensions      [0 3 -1 0 0 0 0];

internalField   nonuniform List<scalar> 
4262
(
0.107133
0.470855
0.0955544
0.705164
0.0693595
0.858498
0.0473414
1.02078
0.0309595
1.2149
0.0197497
1.44943
0.0123351
1.73328
0.00710129
2.07627
0.00310589
2.48924
-0.000582529
2.98598
-0.00414514
2.98585
-0.00791631
2.48901
-0.0129515
2.07607
-0.0201377
1.73305
-0.0310859
1.44917
-0.0471483
1.21458
-0.0689003
1.02052
-0.0951801
0.858583
-0.10706
0.705466
0.470928
0.112884
0.357971
0.135321
0.682728
0.120454
0.873365
0.0979272
1.04331
0.0746961
1.23813
0.0529575
1.47117
0.0345448
1.75169
0.0203428
2.09047
0.00914432
2.50044
-0.000890722
2.99602
-0.011177
2.99614
-0.0224003
2.50024
-0.0364193
2.09009
-0.0547067
1.75134
-0.0765475
1.47101
-0.100312
1.23834
-0.123514
1.04372
-0.13702
0.87209
-0.113564
0.682009
0.357364
0.0920301
0.265941
0.124939
0.649819
0.121045
0.877258
0.104765
1.05959
0.0861142
1.25678
0.0669945
1.49029
0.0480561
1.77063
0.030008
2.10852
0.0133796
2.51707
-0.00269766
3.01209
-0.018303
3.01175
-0.0342464
2.51618
-0.0517999
2.10764
-0.0701963
1.76973
-0.0885179
1.48933
-0.105703
1.25553
-0.119773
1.05779
-0.125199
0.877515
-0.0923353
0.649146
0.265029
0.0640148
0.201926
0.104881
0.608953
0.106679
0.87546
0.0952902
1.07098
0.0813325
1.27074
0.066561
1.50506
0.0503983
1.78679
0.0332234
2.1257
0.0156113
2.53468
-0.00297969
3.03068
-0.0215223
3.03029
-0.0389112
2.53357
-0.0553471
2.12408
-0.070635
1.78502
-0.084511
1.50321
-0.0982541
1.26927
-0.11003
1.06956
-0.107057
0.874542
-0.0649156
0.607004
0.200113
0.0374937
0.164433
0.0807313
0.565716
0.0910148
0.865177
0.0838241
1.07817
0.0712313
1.28333
0.0593968
1.51689
0.0463985
1.79979
0.0314379
2.14066
0.0144102
2.55171
-0.00493549
3.05003
-0.023655
3.04901
-0.0395984
2.54951
-0.0535432
2.13802
-0.0655764
1.79705
-0.0767467
1.51438
-0.088639
1.28116
-0.0950162
1.07594
-0.0831795
0.862705
-0.0383847
0.56221
0.161729
0.019447
0.144986
0.0571699
0.527993
0.0725475
0.849799
0.0704408
1.08027
0.0616559
1.29212
0.0508217
1.52773
0.039682
1.81093
0.0270377
2.1533
0.0119676
2.56678
-0.00552053
3.06752
-0.022865
3.06635
-0.0372661
2.56391
-0.0488204
2.14958
-0.0588765
1.80711
-0.0687706
1.52427
-0.0764079
1.2888
-0.0772158
1.07675
-0.0600333
0.845523
-0.0203849
0.522561
0.141344
0.010623
0.134363
0.0423633
0.496252
0.0584934
0.833669
0.0587777
1.07999
0.0526166
1.29828
0.0432017
1.53714
0.0328128
1.82132
0.0214967
2.16462
0.00822795
2.58004
-0.00788449
3.08363
-0.0232735
3.08174
-0.035069
2.57571
-0.0448206
2.15933
-0.0536461
1.81594
-0.0615463
1.53217
-0.0661323
1.29339
-0.0642491
1.07487
-0.0458979
0.827171
-0.011705
0.488368
0.129639
0.00658892
0.127774
0.0329896
0.469852
0.0492749
0.817384
0.0507647
1.0785
0.045644
1.3034
0.0372549
1.54553
0.0275893
1.83098
0.0166627
2.17554
0.0045953
2.59211
-0.00905812
3.09728
-0.0223548
3.09504
-0.0332744
2.58663
-0.0425581
2.16861
-0.0503558
1.82373
-0.0569571
1.53877
-0.0601686
1.2966
-0.0564261
1.07112
-0.0372514
0.807997
-0.00787489
0.458992
0.121764
0.00471021
0.123063
0.0265554
0.448007
0.042374
0.801565
0.0445063
1.07637
0.0398967
1.30801
0.0322535
1.55317
0.0231128
1.84013
0.0125907
2.18606
0.000904996
2.6038
-0.0122678
3.11046
-0.0242958
3.10707
-0.0339121
2.59625
-0.0421499
2.17685
-0.0490276
1.83061
-0.0544026
1.54415
-0.0566323
1.29883
-0.0516278
1.06612
-0.0319846
0.788354
-0.00636832
0.433376
0.115395
0.00376352
0.1193
0.0217446
0.430026
0.0369276
0.786382
0.039702
1.07359
0.0353436
1.31237
0.0279807
1.56054
0.0191608
1.84895
0.00902439
2.1962
-0.00226648
2.61509
-0.0143687
3.12256
-0.0257423
3.11844
-0.0352096
2.60571
-0.0427169
2.18436
-0.0486808
1.83658
-0.0533485
1.54881
-0.0545549
1.30004
-0.0481731
1.05974
-0.0282487
0.768429
-0.00574959
0.410876
0.109646
0.00305504
0.116245
0.0175596
0.415521
0.0314842
0.772458
0.0344327
1.07065
0.0303271
1.31647
0.0232578
1.56761
0.0147532
1.85745
0.00478451
2.20617
-0.00661732
2.62649
-0.0188655
3.13481
-0.0298743
3.12945
-0.0380296
2.61387
-0.0444601
2.19079
-0.0496102
1.84173
-0.0533115
1.55252
-0.0534625
1.30019
-0.0456878
1.05196
-0.0255826
0.748324
-0.00551003
0.390804
0.104136
0.00239346
0.113851
0.0139088
0.404006
0.02657
0.759797
0.0297152
1.0675
0.0256703
1.32052
0.0185391
1.57474
0.0100789
1.86591
0.000525624
2.21572
-0.0101389
2.63715
-0.0219808
3.14665
-0.0324736
3.13994
-0.040567
2.62196
-0.0464422
2.19666
-0.0507025
1.84599
-0.0534991
1.55531
-0.0528703
1.29956
-0.0437466
1.04284
-0.0235988
0.728176
-0.00536101
0.372566
0.0987748
0.00170267
0.112149
0.0105486
0.39516
0.0213803
0.748965
0.024013
1.06487
0.0199529
1.32458
0.0129464
1.58174
0.00440179
1.87445
-0.00546811
2.22559
-0.0166267
2.64831
-0.0284204
3.15844
-0.0383255
3.14985
-0.0447685
2.62841
-0.0493268
2.20122
-0.0530258
1.84969
-0.0548126
1.5571
-0.0533089
1.29805
-0.0428101
1.03234
-0.0223513
0.707717
-0.00527955
0.355494
0.0934953
0.000837951
0.111311
0.00710496
0.388893
0.0162851
0.739785
0.0185865
1.06257
0.0142008
1.32896
0.00677858
1.58917
-0.00194551
1.88318
-0.0115947
2.23524
-0.0220738
2.65879
-0.0333294
3.1697
-0.0427942
3.15931
-0.0491955
2.63481
-0.0532529
2.20528
-0.0559261
1.85236
-0.0567142
1.55789
-0.0541943
1.29553
-0.0423724
1.02052
-0.0215925
0.686937
-0.00525782
0.33916
0.0882375
0.000183202
0.111128
0.00432703
0.384749
0.011172
0.73294
0.012268
1.06147
0.00750871
1.33372
-4.99147e-05
1.59673
-0.00932951
1.89246
-0.0198142
2.24573
-0.0312012
2.67018
-0.0425559
3.18105
-0.0509777
3.16773
-0.0556399
2.63947
-0.0584739
2.20811
-0.0604414
1.85433
-0.0603047
1.55775
-0.0561217
1.29135
-0.0426918
1.00709
-0.0213118
0.665558
-0.00528633
0.323134
0.0829511
-0.000809369
0.111937
0.000571231
0.383368
0.00540291
0.728108
0.00579382
1.06108
0.000375463
1.33914
-0.00813931
1.60524
-0.0180304
1.90235
-0.0286527
2.25635
-0.0395449
2.68107
-0.0501059
3.19161
-0.058147
3.17578
-0.0627058
2.64403
-0.0648218
2.21023
-0.0657916
1.8553
-0.0646676
1.55663
-0.0589603
1.28564
-0.0438157
0.991943
-0.0215575
0.643299
-0.00543104
0.307008
0.0775201
-0.00166456
0.113601
-0.00250826
0.384212
-0.000557926
0.726158
-0.00230447
1.06283
-0.00883885
1.34567
-0.0180291
1.61443
-0.0287168
1.91304
-0.0404223
2.26805
-0.0523783
2.69303
-0.0632142
3.20245
-0.069833
3.18239
-0.0728249
2.64702
-0.0739562
2.21136
-0.0735137
1.85485
-0.0708269
1.55394
-0.0632037
1.27802
-0.0459084
0.974648
-0.0223529
0.619744
-0.00570195
0.290357
0.0718181
-0.00301699
0.116618
-0.00621363
0.387409
-0.00782142
0.727766
-0.0109713
1.06598
-0.0184325
1.35313
-0.0287532
1.62475
-0.0403695
1.92465
-0.0525382
2.28022
-0.0645395
2.70503
-0.0748067
3.21272
-0.0810915
3.18868
-0.0835007
2.64943
-0.0831165
2.21098
-0.0819282
1.85366
-0.0783865
1.5504
-0.0687428
1.26838
-0.0489036
0.954808
-0.0236537
0.594494
-0.00608032
0.272783
0.0657378
-0.00429133
0.12091
-0.0104088
0.393526
-0.0153695
0.732726
-0.0214561
1.07206
-0.0304798
1.36216
-0.0423334
1.6366
-0.0554548
1.93777
-0.0692956
2.29406
-0.0826471
2.71838
-0.0934852
3.22355
-0.0983386
3.19353
-0.0987231
2.64981
-0.0973907
2.20965
-0.0940835
1.85036
-0.0880514
1.54437
-0.0758184
1.25614
-0.0529776
0.931968
-0.0254594
0.566976
-0.00655898
0.253883
0.0591788
-0.00574675
0.126657
-0.0154364
0.403216
-0.0243966
0.741687
-0.0333136
1.08098
-0.0441132
1.37296
-0.0574795
1.64997
-0.0719894
1.95228
-0.0867714
2.30885
-0.100588
2.7322
-0.111239
3.23421
-0.115722
3.19802
-0.1152
2.64929
-0.111533
2.20598
-0.107019
1.84584
-0.0997992
1.53715
-0.0844021
1.24075
-0.0579235
0.905489
-0.0276309
0.536683
-0.00707851
0.233331
0.0521003
-0.00806722
0.134724
-0.0222694
0.417418
-0.0365341
0.755951
-0.0488801
1.09332
-0.0617436
1.38582
-0.077316
1.66554
-0.0941945
1.96916
-0.111529
2.32618
-0.127035
2.7477
-0.13711
3.24428
-0.138943
3.19985
-0.136088
2.64644
-0.131687
2.20158
-0.124726
1.83888
-0.113943
1.52636
-0.0949112
1.22171
-0.064061
0.874639
-0.030211
0.502833
-0.00764906
0.210769
0.0444513
-0.0105091
0.145233
-0.0295623
0.436471
-0.0499672
0.776356
-0.0672986
1.11066
-0.0835058
1.40203
-0.101798
1.68384
-0.120948
1.98831
-0.13907
2.3443
-0.153682
2.76232
-0.162839
3.25344
-0.164426
3.20144
-0.160006
2.64202
-0.152121
2.19369
-0.143008
1.82977
-0.130199
1.51355
-0.106529
1.19804
-0.0704963
0.838607
-0.0327692
0.465106
-0.00813222
0.186132
0.036319
-0.0151825
0.160415
-0.0416298
0.462919
-0.0688443
0.80357
-0.0911177
1.13293
-0.111057
1.42197
-0.133083
1.70586
-0.154998
2.01023
-0.175511
2.36481
-0.191814
2.77862
-0.199622
3.26124
-0.196034
3.19785
-0.187674
2.63366
-0.178639
2.18466
-0.166948
1.81808
-0.149276
1.49588
-0.12048
1.16925
-0.0782831
0.796409
-0.0355077
0.422331
-0.00856012
0.159184
0.0277589
-0.0193096
0.179725
-0.0546132
0.498222
-0.0916515
0.840609
-0.121819
1.1631
-0.147814
1.44796
-0.174344
1.73239
-0.198941
2.03483
-0.219157
2.38503
-0.231942
2.7914
-0.234849
3.26415
-0.229476
3.19247
-0.219367
2.62355
-0.205697
2.17099
-0.191123
1.8035
-0.17056
1.47532
-0.134792
1.13348
-0.0850506
0.746668
-0.0375272
0.374807
-0.00863058
0.130287
0.0191283
-0.0325413
0.212266
-0.081736
0.547417
-0.129512
0.888385
-0.166117
1.1997
-0.197277
1.47912
-0.227671
1.76279
-0.252785
2.05994
-0.272169
2.40441
-0.283798
2.80303
-0.284991
3.26534
-0.273155
3.18064
-0.25629
2.60668
-0.240651
2.15535
-0.221926
1.78478
-0.193921
1.44731
-0.150521
1.09008
-0.0928998
0.689047
-0.0395545
0.321462
-0.00855735
0.0992902
0.010571
-0.0468962
0.259163
-0.120387
0.620908
-0.183726
0.951724
-0.229034
1.24501
-0.266356
1.51644
-0.297442
1.79387
-0.320392
2.08289
-0.335757
2.41978
-0.340894
2.80817
-0.33207
3.25652
-0.313993
3.16256
-0.295136
2.58783
-0.27431
2.13452
-0.251321
1.76179
-0.218307
1.4143
-0.164743
1.03652
-0.0965764
0.620881
-0.0390066
0.263892
-0.00834182
0.0686255
0.00222917
-0.0339119
0.293074
-0.0973975
0.684393
-0.156034
1.01036
-0.203482
1.29246
-0.24646
1.55942
-0.285099
1.83251
-0.321133
2.11892
-0.353352
2.452
-0.377977
2.8328
-0.392716
3.27126
-0.392323
3.16217
-0.378
2.5735
-0.358752
2.11527
-0.328847
1.73188
-0.276887
1.36234
-0.198489
0.958118
-0.108579
0.530971
-0.0418527
0.197166
-0.00947434
0.0362471
-0.00724517
-0.0127238
0.305798
-0.0476797
0.719349
-0.0894651
1.05215
-0.128951
1.33194
-0.168122
1.59859
-0.202856
1.86725
-0.23502
2.15109
-0.262694
2.47967
-0.282423
2.85252
-0.288208
3.27705
-0.274921
3.14888
-0.254844
2.55343
-0.230214
2.09064
-0.198022
1.69969
-0.155814
1.32013
-0.100421
0.902726
-0.0460383
0.476588
-0.0165178
0.167645
-0.00400367
0.023733
-0.0112488
0.000159481
0.305639
-0.0246478
0.744156
-0.0541549
1.08165
-0.0842668
1.36206
-0.115831
1.63016
-0.146476
1.89789
-0.174857
2.17947
-0.198475
2.50329
-0.213358
2.86741
-0.213299
3.27699
-0.198586
3.13417
-0.176668
2.53151
-0.149226
2.0632
-0.11921
1.66967
-0.080231
1.28115
-0.0387446
0.861239
-0.0111421
0.448985
-0.00275583
0.159259
-0.00101743
0.0219946
-0.0122663
0.000609255
0.305029
-0.0129432
0.757709
-0.0343108
1.10302
-0.0588517
1.3866
-0.0847509
1.65606
-0.110555
1.92369
-0.134541
2.20346
-0.154077
2.52283
-0.165155
2.87848
-0.1626
3.27443
-0.146959
3.11853
-0.122966
2.50751
-0.0944419
2.03468
-0.0599989
1.63523
-0.0284746
1.24963
-0.00386137
0.836626
0.00723544
0.437888
0.0051414
0.161353
0.00116626
0.0259697
-0.0111
0.00423815
0.300791
-0.00483177
0.766779
-0.0228354
1.12102
-0.0435546
1.40732
-0.0652587
1.67776
-0.0869404
1.94538
-0.107334
2.22385
-0.123587
2.53908
-0.132081
2.88698
-0.128197
3.27055
-0.11027
3.1006
-0.0848324
2.48208
-0.0559784
2.00582
-0.0293406
1.60859
-0.00105042
1.22134
0.0181821
0.817394
0.0196312
0.436439
0.0108769
0.170107
0.00286806
0.0339786
-0.00823194
0.00515048
0.295641
-0.000906729
0.772836
-0.0166389
1.13676
-0.0347983
1.42548
-0.0538603
1.69682
-0.0727702
1.96429
-0.0905425
2.24162
-0.1051
2.55364
-0.112882
2.89476
-0.108314
3.26598
-0.0899992
3.08229
-0.0651496
2.45723
-0.0379863
1.97866
-0.00860682
1.57921
0.0129938
1.19974
0.0242749
0.806112
0.0232466
0.437468
0.0128813
0.180472
0.00357056
0.0432894
-0.00466138
0.00428264
0.291358
0.000131926
0.776987
-0.0131442
1.15003
-0.0296319
1.44196
-0.0467713
1.71396
-0.063973
1.98149
-0.0803504
2.258
-0.093555
2.56684
-0.0996829
2.90089
-0.0947245
3.26102
-0.0775061
3.06507
-0.0534275
2.43315
-0.027334
1.95257
-0.00504782
1.55693
0.0152317
1.17946
0.0264934
0.794851
0.0230719
0.440889
0.012894
0.19065
0.00369284
0.0524905
-0.000968544
0.00263436
0.288724
-0.000908123
0.780529
-0.0126211
1.16175
-0.0273666
1.45671
-0.0434842
1.73008
-0.0595532
1.99756
-0.074716
2.27316
-0.0871455
2.57927
-0.0936792
2.90742
-0.0902751
3.25762
-0.0734448
3.04824
-0.0518182
2.41152
-0.0289668
1.92972
-0.00337058
1.53133
0.0140732
1.16202
0.0218748
0.787049
0.0201165
0.442647
0.0113033
0.199464
0.00334657
0.0604473
0.00237802
0.000693301
0.288031
-0.00257811
0.783801
-0.0132108
1.17238
-0.0266722
1.47017
-0.0416638
1.74507
-0.0568262
2.01272
-0.0714833
2.28782
-0.0838801
2.59167
-0.0909985
2.91454
-0.0884658
3.25509
-0.0743861
3.03416
-0.0540122
2.39115
-0.0301383
1.90584
-0.0112758
1.51247
0.00647834
1.14426
0.0170289
0.776499
0.0152267
0.44445
0.00879132
0.205899
0.00266165
0.066577
0.00503967
-0.000517184
0.288548
-0.00526053
0.788544
-0.014762
1.18188
-0.027045
1.48245
-0.041331
1.75936
-0.0560099
2.0274
-0.0703887
2.3022
-0.0830631
2.60434
-0.0911602
2.92264
-0.0898585
3.25378
-0.0765273
3.02083
-0.0574439
2.37207
-0.0388708
1.88727
-0.0170678
1.49067
-0.000873865
1.12807
0.00722482
0.7684
0.00911576
0.442559
0.00544171
0.209573
0.00186067
0.070158
0.00690034
-0.00175774
0.290305
-0.00677034
0.793557
-0.0161419
1.19125
-0.0279032
1.49421
-0.0414123
1.77287
-0.0555581
2.04154
-0.0699426
2.31658
-0.0831246
2.61752
-0.0924058
2.93192
-0.0935331
3.25491
-0.0835641
3.01086
-0.0650632
2.35356
-0.043305
1.86551
-0.0269837
1.47435
-0.0114006
1.11248
0.000367727
0.756632
0.00283861
0.440088
0.00240022
0.210011
0.00102761
0.0715306
0.00792795
-0.00326914
0.293575
-0.00882644
0.799114
-0.0176882
1.20011
-0.0288237
1.50535
-0.0418886
1.78593
-0.0558619
2.05552
-0.0703588
2.33108
-0.0841784
2.63134
-0.0948957
2.94264
-0.0978831
3.2579
-0.087992
3.00097
-0.0715436
2.33712
-0.0552033
1.84917
-0.0346561
1.4538
-0.0188651
1.09669
-0.00846228
0.746229
-0.0021473
0.433773
-0.00054287
0.208407
0.000122701
0.070865
0.00805065
-0.0039777
0.297552
-0.00973097
0.804867
-0.0187307
1.20911
-0.0297324
1.51635
-0.042372
1.79857
-0.0559655
2.06911
-0.070494
2.34561
-0.0848765
2.64572
-0.0969724
2.95473
-0.10278
3.26371
-0.09672
2.99491
-0.0815364
2.32193
-0.0600114
1.82765
-0.0433808
1.43717
-0.0265097
1.07982
-0.0126918
0.732411
-0.00638701
0.427468
-0.00209245
0.204112
-0.000259633
0.0690322
0.00779102
-0.00431972
0.301872
-0.0109509
0.811498
-0.0197547
1.21792
-0.0302854
1.52688
-0.0426177
1.8109
-0.0561178
2.08261
-0.0708199
2.36031
-0.0859403
2.66085
-0.0996735
2.96847
-0.107901
3.27193
-0.10354
2.99055
-0.0894275
2.30782
-0.072698
1.81092
-0.0496185
1.41409
-0.030819
1.06102
-0.0175222
0.719114
-0.00810497
0.418051
-0.00304759
0.199055
-0.000566275
0.0665509
0.00722474
-0.00432563
0.306198
-0.0111812
0.818354
-0.0201649
1.2269
-0.0306609
1.53738
-0.0427118
1.82295
-0.0559059
2.09581
-0.0706272
2.37503
-0.0862387
2.67646
-0.101189
2.98342
-0.112051
3.28279
-0.111947
2.99044
-0.0997362
2.29561
-0.0774701
1.78865
-0.0562845
1.3929
-0.0344766
1.03922
-0.0170175
0.701655
-0.00827398
0.409307
-0.00276662
0.193548
-0.000652497
0.0644368
0.00657224
-0.00448988
0.310687
-0.0118181
0.825682
-0.0205221
1.2356
-0.0305778
1.54743
-0.0423362
1.83471
-0.0554643
2.10893
-0.0703459
2.38991
-0.0865573
2.69267
-0.102972
2.99983
-0.116439
3.29626
-0.118733
2.99274
-0.108252
2.28513
-0.0903968
1.7708
-0.061476
1.36398
-0.0349357
1.01267
-0.0161938
0.682913
-0.00365926
0.396773
0.000729148
0.189159
0.00104105
0.0641249
0.00761329
-0.0044729
0.31516
-0.011654
0.832863
-0.0203407
1.24429
-0.0303522
1.55745
-0.0418705
1.84623
-0.0547041
2.12177
-0.0695088
2.40472
-0.0860464
2.70921
-0.103509
3.01729
-0.119078
3.31183
-0.125645
2.9993
-0.118074
2.27756
-0.0953055
1.74803
-0.0676521
1.33633
-0.0346685
0.979691
-0.00829816
0.656543
0.00498797
0.383487
0.00551845
0.188629
-0.00101942
0.0706628
0.00659387
-0.00456316
0.319724
-0.0118977
0.840198
-0.020203
1.2526
-0.0297326
1.56698
-0.0409003
1.8574
-0.0536093
2.13448
-0.0684739
2.41958
-0.0854568
2.72619
-0.104002
3.03584
-0.121653
3.32948
-0.131234
3.00888
-0.126291
2.27261
-0.109183
1.73092
-0.0739996
1.30115
-0.0331518
0.938843
0.00378804
0.619603
0.0320934
0.355181
0.0413937
0.179328
0.0269017
0.0851548
0.0334955
-0.00441565
0.324139
-0.0114439
0.847226
-0.0196354
1.26079
-0.0290536
1.57639
-0.0399425
1.86829
-0.0523121
2.14685
-0.0669895
2.43426
-0.0841057
2.7433
-0.103357
3.05509
-0.122854
3.34898
-0.135672
3.0217
-0.135378
2.27232
-0.115223
1.71076
-0.0823796
1.2683
-0.0336637
0.890128
0.0144292
0.57151
0.0545085
0.315102
0.050307
0.18353
0.0221287
0.113333
0.0556242
-0.00432397
0.328463
-0.0113888
0.854291
-0.0191702
1.26857
-0.0280483
1.58527
-0.0385506
1.87879
-0.0507287
2.15902
-0.0653661
2.4489
-0.0827155
2.76065
-0.102649
3.07502
-0.123747
3.37008
-0.138816
3.03677
-0.142231
2.27574
-0.130811
1.69934
-0.0942117
1.2317
-0.0406001
0.836516
0.0309574
0.499953
0.129082
0.216977
0.198802
0.11381
0.183639
0.128496
0.239263
-0.00415312
0.332616
-0.0109474
0.861085
-0.0187951
1.27642
-0.0278705
1.59435
-0.0386304
1.88955
-0.0511941
2.17159
-0.066647
2.46435
-0.0854749
2.77948
-0.108001
3.09755
-0.133606
3.39568
-0.15494
3.0581
-0.164471
2.28527
-0.152099
1.68697
-0.119815
1.19942
-0.0572033
0.773904
0.00136369
0.441386
-0.0586431
0.276984
-0.355728
0.410895
-0.943491
0.716259
0.901126
-1.60535
-0.00402623
0.336643
-0.0108484
0.867907
-0.0183895
1.28396
-0.0271218
1.60308
-0.0377112
1.90014
-0.0504694
2.18435
-0.0664729
2.48035
-0.086389
2.7994
-0.110864
3.12203
-0.139847
3.42466
-0.165892
3.08415
-0.180585
2.29996
-0.186078
1.69246
-0.162
1.17534
-0.130626
0.74253
-0.22683
0.53759
-0.693592
0.743746
-1.44765
1.16496
-2.05399
1.3226
1.21631
-2.36918
-0.0037819
0.340424
-0.0101779
0.874303
-0.0176024
1.29138
-0.0263472
1.61182
-0.0369196
1.91071
-0.0497163
2.19714
-0.0660246
2.49666
-0.0867352
2.82011
-0.11304
3.14833
-0.146055
3.45768
-0.179035
3.11713
-0.203085
2.32401
-0.209043
1.69842
-0.193764
1.16006
-0.279289
0.828056
-0.753174
1.01147
-1.5511
1.54167
-2.11308
1.72694
-2.3515
1.56101
1.33023
-2.46542
-0.00366185
0.344086
-0.00990497
0.880546
-0.016949
1.29843
-0.0252919
1.62017
-0.0356108
1.92103
-0.0485169
2.21005
-0.0652656
2.51341
-0.086957
2.8418
-0.115152
3.17653
-0.151672
3.4942
-0.190155
3.15561
-0.22064
2.35449
-0.245659
1.72344
-0.321258
1.23566
-0.680627
1.18743
-1.44104
1.77189
-2.02908
2.12971
-2.26824
1.96609
-2.3811
1.67388
1.39409
-2.44496
-0.00333528
0.347422
-0.00905658
0.886268
-0.0158861
1.30526
-0.0241664
1.62845
-0.0344788
1.93134
-0.0473584
2.22293
-0.0642775
2.53033
-0.0865971
2.86412
-0.116476
3.2064
-0.157135
3.53486
-0.203798
3.20227
-0.246894
2.39759
-0.28586
1.76241
-0.466458
1.41626
-1.09511
1.81607
-1.79056
2.46734
-2.10933
2.44848
-2.25702
2.11378
-2.33892
1.75577
1.46003
-2.40486
-0.00333623
0.350758
-0.00914885
0.89208
-0.0158502
1.31196
-0.0239799
1.63658
-0.0344075
1.94177
-0.0476509
2.23617
-0.0652244
2.5479
-0.0886846
2.88758
-0.120516
3.23824
-0.164634
3.57898
-0.217041
3.25468
-0.263167
2.44372
-0.350752
1.84999
-0.743752
1.80926
-1.49165
2.56397
-1.96325
2.93894
-2.16294
2.64817
-2.26898
2.21982
-2.34609
1.83289
1.52336
-2.40942
-0.00338695
0.354145
-0.00924274
0.897936
-0.0164354
1.31915
-0.0252389
1.64538
-0.0363359
1.95287
-0.0501985
2.25003
-0.068541
2.56625
-0.0931212
2.91216
-0.126949
3.27206
-0.175505
3.62753
-0.233705
3.31288
-0.295309
2.50532
-0.48197
2.03665
-1.04596
2.37324
-1.67918
3.1972
-1.95327
3.21304
-2.09988
2.79477
-2.21361
2.33355
-2.30715
1.92643
1.58493
-2.36871
-0.00353351
0.357678
-0.00999686
0.904399
-0.0174618
1.32661
-0.0264686
1.65439
-0.037906
1.9643
-0.0524899
2.26462
-0.0718965
2.58565
-0.0980207
2.93828
-0.134046
3.30809
-0.18615
3.67964
-0.249141
3.37587
-0.334328
2.59051
-0.615996
2.31832
-1.26417
3.02141
-1.75217
3.6852
-1.95908
3.41994
-2.09859
2.93428
-2.22224
2.45721
-2.33244
2.03663
1.64347
-2.39099
-0.00344067
0.361119
-0.00984721
0.910806
-0.0179763
1.33474
-0.0278827
1.66429
-0.0401449
1.97657
-0.0554066
2.27988
-0.0756005
2.60585
-0.10282
2.9655
-0.14074
3.34601
-0.196495
3.73539
-0.264894
3.44427
-0.388784
2.7144
-0.774703
2.70424
-1.41034
3.65705
-1.762
4.03687
-1.93463
3.59257
-2.03626
3.03591
-2.12462
2.54557
-2.19151
2.10352
1.63614
-2.18418
-0.00348842
0.364607
-0.0106555
0.917973
-0.0190427
1.34313
-0.0290856
1.67434
-0.0416761
1.98916
-0.0577181
2.29592
-0.0790682
2.6272
-0.107928
2.99436
-0.148022
3.3861
-0.205623
3.79299
-0.284231
3.52288
-0.453686
2.88385
-0.906346
3.1569
-1.46237
4.21307
-1.72346
4.29796
-1.87467
3.74378
-1.96781
3.12905
-1.96881
2.54657
-1.89919
2.0339
1.5996
-1.86265
-0.00320745
0.367815
-0.0100399
0.924805
-0.0191571
1.35225
-0.0302177
1.6854
-0.043655
2.00259
-0.0601531
2.31242
-0.0817632
2.64881
-0.110751
3.02335
-0.15108
3.42643
-0.208348
3.85026
-0.294234
3.60877
-0.498277
3.08789
-0.988451
3.64708
-1.42906
4.65368
-1.59364
4.46254
-1.66049
3.81063
-1.66476
3.13331
-1.51692
2.39874
-1.01693
1.5339
0.582672
-0.00287012
0.370685
-0.0107568
0.932692
-0.0200802
1.36157
-0.0312542
1.69657
-0.0452598
2.0166
-0.0631175
2.33028
-0.0868697
2.67256
-0.118979
3.05546
-0.163587
3.47104
-0.227734
3.91441
-0.330837
3.71187
-0.584657
3.34171
-1.12423
4.18665
-1.48193
5.01138
-1.5809
4.56151
-1.57849
3.80822
-1.47445
3.02927
-1.23564
2.15993
-0.631401
0.929663
-0.048729
-0.00248874
0.373174
-0.00926901
0.939472
-0.0194145
1.37172
-0.0320998
1.70926
-0.04765
2.03215
-0.0668735
2.3495
-0.0922645
2.69795
-0.126644
3.08984
-0.175349
3.51975
-0.245355
3.98441
-0.367801
3.83432
-0.682238
3.65615
-1.24238
4.74679
-1.50234
5.27134
-1.56053
4.6197
-1.5382
3.78589
-1.33644
2.82751
-0.782383
1.60587
-0.108583
0.255863
-0.157312
-0.00171882
0.374892
-0.00966369
0.947417
-0.0197484
1.3818
-0.0322205
1.72173
-0.0480209
2.04795
-0.0684959
2.36998
-0.0961174
2.72557
-0.133904
3.12763
-0.186653
3.5725
-0.265219
4.06298
-0.414303
3.9834
-0.786372
4.02822
-1.32096
5.28138
-1.49667
5.44704
-1.52783
4.65087
-1.43951
3.69757
-1.10148
2.48948
-0.312744
0.817138
0.0247569
-0.0816378
-0.132555
-0.00070213
0.375595
-0.00662981
0.953345
-0.0173909
1.39256
-0.0316167
1.73595
-0.0491363
2.06547
-0.0710111
2.39185
-0.100156
2.75471
-0.139785
3.16726
-0.195203
3.62791
-0.281504
4.14928
-0.456291
4.15819
-0.894542
4.46647
-1.36585
5.75269
-1.48199
5.56319
-1.48464
4.65352
-1.25927
3.4722
-0.685783
1.91599
-0.0625845
0.19394
0.0302184
-0.174441
-0.102336
6.57414e-05
0.375529
-0.00595418
0.959365
-0.0162631
1.40287
-0.0298689
1.74956
-0.0469886
2.08259
-0.0698272
2.41469
-0.100989
2.78588
-0.143715
3.20998
-0.202739
3.68694
-0.298924
4.24546
-0.500795
4.36006
-0.989006
4.95468
-1.36188
6.12556
-1.42556
5.62686
-1.37905
4.607
-1.09018
3.18333
-0.322063
1.14788
0.00505495
-0.133179
0.0151289
-0.184515
-0.0872074
0.00330883
0.37222
0.000419179
0.962254
-0.0107689
1.41406
-0.0263441
1.76514
-0.0451176
2.10136
-0.0693771
2.43895
-0.101652
2.81815
-0.145357
3.25369
-0.206615
3.7482
-0.309968
4.34882
-0.53689
4.58698
-1.0496
5.46739
-1.32527
6.40124
-1.36644
5.66803
-1.22567
4.46623
-0.770991
2.72866
-0.068244
0.445132
0.044682
-0.246105
0.0243756
-0.164208
-0.0628318
0.00441759
0.367802
0.00239034
0.964282
-0.00741541
1.42387
-0.0210299
1.77875
-0.0384071
2.11874
-0.063036
2.46358
-0.0966069
2.85172
-0.142837
3.29992
-0.207158
3.81252
-0.31947
4.46113
-0.57787
4.84538
-1.07344
5.96295
-1.26279
6.59059
-1.27101
5.67626
-1.05116
4.24638
-0.459952
2.13744
-0.0184276
0.00360672
-0.00657136
-0.257961
0.00490947
-0.175689
-0.0579223
0.00867032
0.359132
0.00997443
0.962978
0.00259551
1.43124
-0.0118691
1.79321
-0.0311131
2.13798
-0.0567611
2.48923
-0.0905706
2.88553
-0.13613
3.34548
-0.201414
3.8778
-0.318955
4.57867
-0.597455
5.12388
-1.04835
6.41385
-1.17223
6.71446
-1.15802
5.66205
-0.896998
3.98536
-0.263115
1.50356
-0.0707578
-0.18875
-0.0388697
-0.289849
-0.0142776
-0.200281
-0.0721998
0.0114329
0.347699
0.0159593
0.958451
0.0109143
1.43629
0.000776545
1.80335
-0.0173096
2.15607
-0.0415777
2.51349
-0.0750488
2.919
-0.12179
3.39222
-0.188435
3.94445
-0.31095
4.70119
-0.598431
5.41136
-0.986573
6.80199
-1.0515
6.7794
-0.979046
5.58959
-0.676605
3.68291
-0.0711103
0.898067
0.0147788
-0.27464
-4.25934e-05
-0.275027
-0.0017195
-0.198604
-0.0739193
0.0185184
0.329181
0.0301205
0.946849
0.0286736
1.43774
0.0171745
1.81485
-0.00130022
2.17454
-0.0244347
2.53663
-0.0567389
2.95131
-0.100729
3.43621
-0.164827
4.00854
-0.28563
4.82199
-0.564324
5.69006
-0.871492
7.10916
-0.905382
6.81329
-0.80623
5.49044
-0.446758
3.32344
0.0673627
0.383946
0.0769252
-0.284202
0.0573371
-0.255439
0.0222135
-0.163481
-0.0517059
0.0243199
0.304861
0.0423531
0.928816
0.045367
1.43472
0.0387974
1.82142
0.0266709
2.18667
0.00545008
2.55785
-0.0243304
2.98109
-0.0667452
3.47862
-0.128656
4.07045
-0.24485
4.93818
-0.494338
5.93954
-0.715219
7.33004
-0.746937
6.845
-0.638299
5.3818
-0.307438
2.99258
-0.0030891
0.0795978
0.0174593
-0.30475
0.0306425
-0.268622
0.0160527
-0.148891
-0.0356531
0.0352283
0.269633
0.0653225
0.898722
0.076132
1.42391
0.0723318
1.82522
0.0608411
2.19816
0.0412811
2.57741
0.0141131
3.00826
-0.0232435
3.51598
-0.0776664
4.12488
-0.175708
5.03622
-0.37757
6.14141
-0.533885
7.48636
-0.554436
6.86555
-0.460242
5.28761
-0.181188
2.71353
-0.0667329
-0.0348569
-0.0511309
-0.320352
-0.0216123
-0.298141
-0.00329923
-0.167204
-0.0389524
0.0446617
0.224971
0.0870978
0.856286
0.107137
1.40387
0.1117
1.82066
0.107771
2.20209
0.0940893
2.59109
0.0733941
3.02895
0.0414284
3.54794
-0.00908762
4.17539
-0.0838255
5.11096
-0.220967
6.27855
-0.311107
7.5765
-0.326983
6.88143
-0.270152
5.23078
-0.0598131
2.50319
-0.0833408
-0.0113293
-0.0748589
-0.328834
-0.0320771
-0.340923
0.00815393
-0.207435
-0.0307984
0.0580225
0.166949
0.120586
0.793722
0.157005
1.36745
0.169044
1.80862
0.168607
2.20253
0.158279
2.60142
0.143526
3.0437
0.122145
3.56933
0.0886578
4.20888
0.0438275
5.15579
-0.00746976
6.32984
-0.0448887
7.61392
-0.0508892
6.88743
-0.039662
5.21955
-0.0110542
2.47458
-0.174176
0.151792
-0.15778
-0.34523
-0.0693743
-0.429328
0.0181679
-0.294977
-0.0126306
0.0602325
0.106716
0.150563
0.703392
0.20688
1.31114
0.233626
1.78187
0.24528
2.19087
0.244734
2.60196
0.239123
3.04931
0.227797
3.58065
0.211494
4.22518
0.192825
5.17446
0.250374
6.27229
0.300933
7.56336
0.280571
6.90779
0.113723
5.3864
-0.194221
2.78252
-0.490604
0.448175
-0.497508
-0.338326
-0.364807
-0.56203
-0.160564
-0.49922
-0.173195
0.0503997
0.0563163
0.183725
0.570067
0.278951
1.21591
0.32421
1.73661
0.343652
2.17143
0.350997
2.59462
0.351624
3.04869
0.355552
3.57672
0.362382
4.21835
0.383691
5.15315
0.535943
6.12004
0.697938
7.40136
0.70227
6.90346
0.564021
5.52465
0.064218
3.28233
-0.495714
1.00811
-0.720047
-0.113993
-0.585894
-0.696183
-0.316477
-0.768637
-0.489672
0.0346109
0.0217055
0.218776
0.385902
0.34442
1.09027
0.420944
1.66009
0.461854
2.13052
0.485573
2.5709
0.494308
3.03995
0.510359
3.56067
0.541166
4.18755
0.606907
5.08741
0.882953
5.844
1.28841
6.99591
1.57044
6.62144
1.74313
5.35195
1.36444
3.66103
0.615613
1.75693
0.0422561
0.459363
-0.247211
-0.406715
-0.22762
-0.788228
-0.717292
0.0309761
-0.00927065
0.237146
0.179732
0.445835
0.881579
0.559126
1.5468
0.609855
2.07979
0.642595
2.53816
0.66474
3.01781
0.693803
3.53161
0.750474
4.13088
0.873475
4.96441
1.25199
5.46548
1.93075
6.31714
2.30198
6.25021
2.52568
5.12825
2.38582
3.80089
1.78475
2.358
1.18433
1.05978
0.545264
0.23235
0.169219
-0.412183
-0.548073
0.0262882
-0.0355589
0.164261
0.0417589
0.49181
0.55403
0.684799
1.35381
0.783959
1.98063
0.833862
2.48826
0.868385
2.98329
0.896689
3.50331
0.972476
4.05509
1.11586
4.82103
1.50002
5.08132
2.28613
5.53104
2.6697
5.86664
2.85954
4.9384
2.7504
3.91003
2.26332
2.84507
1.6119
1.7112
1.02486
0.819397
0.445011
0.167663
-0.103062
0.00523995
-0.0407988
0.0841651
-0.0371662
0.414249
0.223946
0.702898
1.06516
0.833876
1.84965
0.874718
2.44742
0.886058
2.97195
0.871542
3.51782
0.869427
4.0572
0.912073
4.77838
1.05923
4.93416
1.48975
5.10052
1.66199
5.69439
1.69516
4.90524
1.61499
3.9902
1.39011
3.06995
1.01906
2.08225
0.642087
1.19637
0.25877
0.55098
0.155708
0.00336715
-0.044166
0.0446435
-0.0784426
0.225276
0.0433137
0.532588
0.757849
0.701479
1.68076
0.754341
2.39455
0.769515
2.95677
0.765168
3.52217
0.749542
4.07283
0.770765
4.75716
0.839961
4.86497
1.12059
4.81989
1.31315
5.50184
1.31721
4.90117
1.25495
4.05246
1.09885
3.22605
0.817489
2.36361
0.510499
1.50336
0.21579
0.845689
0.371497
0.00375022
-0.0479162
0.0237248
-0.0984172
0.0982394
-0.0312009
0.365422
0.490666
0.551941
1.49424
0.636816
2.30968
0.65268
2.94091
0.65019
3.52466
0.624129
4.09889
0.619375
4.76191
0.648466
4.83588
0.813173
4.65519
0.991758
5.32325
0.983919
4.90901
0.922756
4.11363
0.805186
3.34363
0.610264
2.55853
0.376048
1.73758
0.150338
1.0714
0.521835
-0.00997696
-0.0379392
-0.00975927
-0.0986349
0.0250407
-0.0660009
0.236709
0.278998
0.414078
1.31688
0.501907
2.22185
0.528131
2.91468
0.531487
3.5213
0.508272
4.12211
0.489704
4.78048
0.493068
4.83251
0.59144
4.55681
0.722153
5.19254
0.715874
4.91529
0.652457
4.17704
0.556196
3.43989
0.417637
2.69709
0.246501
1.90871
0.0885016
1.2294
0.610337
-0.0104323
-0.0275069
0.00214149
-0.111209
0.0345006
-0.09836
0.167192
0.146306
0.322786
1.16128
0.384733
2.1599
0.399669
2.89975
0.403949
3.51702
0.39389
4.13217
0.37726
4.79711
0.3657
4.84407
0.418475
4.50404
0.507924
5.10309