/*--------------------------------*- C++ -*----------------------------------*\
  =========                 |
  \\      /  F ield         | OpenFOAM: The Open Source CFD Toolbox
   \\    /   O peration     | Website:  https://openfoam.org
    \\  /    A nd           | Version:  10
     \\/     M anipulation  |
\*---------------------------------------------------------------------------*/
FoamFile
{
    format      ascii;
    class       volVectorField;
    location    "59";
    object      U;
}
// * * * * * * * * * * * * * * * * * * * * * * * * * * * * * * * * * * * * * //

dimensions      [0 1 -1 0 0 0 0];

internalField   nonuniform List<vector> 
2200
(
(0.878857 -0.030411 0)
(1.0058 -0.0512798 0)
(1.00331 -0.0353827 0)
(1.00033 -0.0244301 0)
(0.999915 -0.0166459 0)
(1.00001 -0.0107174 0)
(1.00001 -0.00682356 0)
(1 -0.00418027 0)
(0.99998 -0.00215148 0)
(1.00018 -0.000602987 0)
(0.999994 0.00110487 0)
(1.00003 0.00257238 0)
(1.00021 0.00449008 0)
(1.00016 0.00706482 0)
(1.00011 0.010833 0)
(1.00006 0.0166482 0)
(1.00038 0.0243718 0)
(1.00348 0.0348677 0)
(1.00599 0.0513771 0)
(0.879054 0.0302983 0)
(0.711997 -0.032767 0)
(0.996643 -0.063017 0)
(1.0333 -0.0561878 0)
(1.02484 -0.0464474 0)
(1.01584 -0.0361609 0)
(1.00966 -0.0264225 0)
(1.00594 -0.0181849 0)
(1.0038 -0.0114583 0)
(1.00263 -0.0061342 0)
(1.00206 -0.00169295 0)
(1.00202 0.00249637 0)
(1.00235 0.00706901 0)
(1.00337 0.0123345 0)
(1.00558 0.0189327 0)
(1.00935 0.027199 0)
(1.01545 0.0369548 0)
(1.02457 0.0474516 0)
(1.03315 0.0579786 0)
(0.996707 0.0631412 0)
(0.711777 0.0330335 0)
(0.535572 -0.0238889 0)
(0.969918 -0.0569228 0)
(1.05645 -0.0546942 0)
(1.05229 -0.0487264 0)
(1.03629 -0.0403859 0)
(1.02446 -0.0322253 0)
(1.01589 -0.023944 0)
(1.01036 -0.0160914 0)
(1.00711 -0.00877224 0)
(1.00563 -0.00206382 0)
(1.00576 0.00434919 0)
(1.00725 0.010741 0)
(1.01043 0.0177716 0)
(1.01575 0.0254487 0)
(1.02421 0.0334279 0)
(1.03624 0.0414034 0)
(1.05229 0.0493941 0)
(1.05633 0.0532652 0)
(0.969223 0.0576421 0)
(0.534414 0.0239349 0)
(0.392315 -0.0136539 0)
(0.911789 -0.0464007 0)
(1.05749 -0.0469361 0)
(1.06949 -0.0443267 0)
(1.05483 -0.0381886 0)
(1.03933 -0.0314868 0)
(1.02758 -0.0246944 0)
(1.01912 -0.0174428 0)
(1.01379 -0.00998486 0)
(1.01111 -0.00248593 0)
(1.01066 0.00500238 0)
(1.01289 0.0125192 0)
(1.0181 0.0197925 0)
(1.02657 0.0266342 0)
(1.03839 0.0330649 0)
(1.05389 0.0395352 0)
(1.06811 0.0456311 0)
(1.05549 0.0483242 0)
(0.909889 0.0469924 0)
(0.389935 0.0137794 0)
(0.307693 -0.0045156 0)
(0.846749 -0.0323855 0)
(1.04945 -0.0399327 0)
(1.07953 -0.0381811 0)
(1.06828 -0.0335295 0)
(1.05173 -0.0279446 0)
(1.03833 -0.0225401 0)
(1.02808 -0.0164936 0)
(1.02095 -0.00956164 0)
(1.01713 -0.00186863 0)
(1.01723 0.00607749 0)
(1.02085 0.0132996 0)
(1.02753 0.0197837 0)
(1.03738 0.0254562 0)
(1.05038 0.0303729 0)
(1.06679 0.0356658 0)
(1.07783 0.0399834 0)
(1.04742 0.0417138 0)
(0.843071 0.0329458 0)
(0.303798 0.00473203 0)
(0.264266 0.000104925 0)
(0.788989 -0.0200609 0)
(1.03338 -0.031446 0)
(1.08352 -0.0320088 0)
(1.07727 -0.0287431 0)
(1.06084 -0.0238481 0)
(1.04723 -0.0193985 0)
(1.03638 -0.0142927 0)
(1.02859 -0.00823311 0)
(1.02417 -0.00125809 0)
(1.02343 0.00598014 0)
(1.027 0.0128382 0)
(1.03439 0.0185167 0)
(1.04495 0.0230975 0)
(1.05852 0.0271139 0)
(1.07482 0.0315306 0)
(1.08027 0.034264 0)
(1.02911 0.0333241 0)
(0.782619 0.0207342 0)
(0.258791 0.000119201 0)
(0.24035 0.00106736 0)
(0.738386 -0.0122868 0)
(1.01373 -0.0249997 0)
(1.08408 -0.0267761 0)
(1.08304 -0.0244952 0)
(1.06781 -0.0203434 0)
(1.05427 -0.0163115 0)
(1.04341 -0.0118119 0)
(1.0352 -0.00644543 0)
(1.0302 -2.17682e-05 0)
(1.03006 0.00680774 0)
(1.03428 0.0125999 0)
(1.04164 0.0172706 0)
(1.05186 0.0212016 0)
(1.06486 0.0245546 0)
(1.07953 0.0279989 0)
(1.08007 0.0296204 0)
(1.00773 0.027195 0)
(0.729072 0.013133 0)
(0.233201 -0.000840127 0)
(0.225999 0.000955761 0)
(0.69546 -0.0080487 0)
(0.993063 -0.0207639 0)
(1.0822 -0.0231395 0)
(1.08686 -0.0212749 0)
(1.0734 -0.0176939 0)
(1.0599 -0.0138868 0)
(1.04932 -0.00957772 0)
(1.0414 -0.00459263 0)
(1.03658 0.00101549 0)
(1.03549 0.0067722 0)
(1.03882 0.0121373 0)
(1.04583 0.0164877 0)
(1.05589 0.0199405 0)
(1.06923 0.0230217 0)
(1.08198 0.025808 0)
(1.07563 0.0267436 0)
(0.983319 0.0234107 0)
(0.681945 0.00910568 0)
(0.216761 -0.000715768 0)
(0.216426 0.000623525 0)
(0.660078 -0.00567294 0)
(0.972578 -0.0176231 0)
(1.07957 -0.0202222 0)
(1.0903 -0.0186576 0)
(1.07828 -0.0155282 0)
(1.06489 -0.0118582 0)
(1.05437 -0.00767754 0)
(1.04639 -0.00288294 0)
(1.04117 0.00253424 0)
(1.04051 0.00803982 0)
(1.04421 0.0126694 0)
(1.05082 0.0163681 0)
(1.06021 0.0196383 0)
(1.07271 0.0223126 0)
(1.08356 0.0244603 0)
(1.07106 0.0249484 0)
(0.959507 0.0209689 0)
(0.642037 0.00705966 0)
(0.204729 -0.000336381 0)
(0.209217 0.000295836 0)
(0.631452 -0.00422709 0)
(0.953609 -0.015037 0)
(1.07633 -0.0179844 0)
(1.09332 -0.0166555 0)
(1.08291 -0.0137181 0)
(1.06947 -0.0101207 0)
(1.05902 -0.00601392 0)
(1.05128 -0.00132061 0)
(1.04645 0.00367148 0)
(1.04489 0.00865442 0)
(1.04716 0.0130975 0)
(1.05326 0.0168972 0)
(1.06268 0.0196615 0)
(1.0756 0.0220628 0)
(1.08445 0.0238095 0)
(1.06403 0.0237317 0)
(0.934678 0.0190668 0)
(0.607106 0.00590116 0)
(0.19429 3.45663e-05 0)
(0.203375 8.22768e-05 0)
(0.60816 -0.00316169 0)
(0.935702 -0.0125847 0)
(1.07332 -0.0155983 0)
(1.09671 -0.014444 0)
(1.08761 -0.0117139 0)
(1.07412 -0.00820655 0)
(1.06338 -0.00416998 0)
(1.0552 0.000509407 0)
(1.04966 0.00566757 0)
(1.04823 0.0105027 0)
(1.05128 0.0147462 0)
(1.05723 0.0176928 0)
(1.06611 0.0203536 0)
(1.07805 0.0223826 0)
(1.08488 0.023559 0)
(1.05734 0.0229727 0)
(0.911066 0.0175351 0)
(0.576998 0.00525173 0)
(0.184743 0.000317798 0)
(0.198772 3.00727e-06 0)
(0.589878 -0.00231077 0)
(0.920236 -0.0102895 0)
(1.07027 -0.0135307 0)
(1.09998 -0.0124748 0)
(1.09247 -0.00972064 0)
(1.07891 -0.00613451 0)
(1.06805 -0.00224827 0)
(1.05987 0.00221209 0)
(1.05448 0.00701046 0)
(1.05222 0.0118422 0)
(1.05342 0.0156359 0)
(1.0587 0.0189341 0)
(1.06775 0.0209573 0)
(1.08029 0.0226843 0)
(1.08463 0.0236066 0)
(1.04825 0.0223208 0)
(0.886456 0.0162918 0)
(0.549418 0.00486281 0)
(0.175328 0.000486452 0)
(0.195176 2.54476e-05 0)
(0.575141 -0.00156492 0)
(0.90562 -0.00813602 0)
(1.06751 -0.0110648 0)
(1.10362 -0.00998635 0)
(1.09743 -0.00728471 0)
(1.08365 -0.00374875 0)
(1.07218 0.000263257 0)
(1.06316 0.00487879 0)
(1.05664 0.00993013 0)
(1.05413 0.0144167 0)
(1.05652 0.0181241 0)
(1.06214 0.0202022 0)
(1.07082 0.0221807 0)
(1.08185 0.0235736 0)
(1.08388 0.0239676 0)
(1.03941 0.0221704 0)
(0.86284 0.0154301 0)
(0.524559 0.00467345 0)
(0.166283 0.000571463 0)
(0.193057 6.60611e-05 0)
(0.564592 -0.000783422 0)
(0.894339 -0.00592027 0)
(1.06512 -0.00878312 0)
(1.10716 -0.00756347 0)
(1.10261 -0.00469278 0)
(1.0889 -0.00094105 0)
(1.07733 0.00295909 0)
(1.06828 0.00736657 0)
(1.06176 0.012017 0)
(1.05827 0.0165718 0)
(1.05843 0.0198132 0)
(1.06287 0.0223865 0)
(1.07177 0.0236234 0)
(1.08295 0.0245449 0)
(1.08207 0.0245746 0)
(1.02739 0.0222502 0)
(0.837427 0.0148539 0)
(0.500263 0.00461026 0)
(0.157089 0.000612739 0)
(0.192149 0.000102101 0)
(0.557055 -0.000239875 0)
(0.883947 -0.00399032 0)
(1.06342 -0.00612673 0)
(1.11121 -0.00469833 0)
(1.10799 -0.00169513 0)
(1.09415 0.00207722 0)
(1.08177 0.00631605 0)
(1.07154 0.0110715 0)
(1.06362 0.0161511 0)
(1.05976 0.0203421 0)
(1.06091 0.0232305 0)
(1.06608 0.0246371 0)
(1.07436 0.0258086 0)
(1.08303 0.026296 0)
(1.07951 0.0257635 0)
(1.01583 0.0227038 0)
(0.813018 0.0146251 0)
(0.477555 0.00463739 0)
(0.148157 0.000629025 0)
(0.192706 8.43826e-05 0)
(0.5527 0.000818377 0)
(0.87769 -0.00158848 0)
(1.06272 -0.0034577 0)
(1.11547 -0.00166721 0)
(1.1137 0.00160363 0)
(1.09995 0.00577516 0)
(1.08758 0.0101193 0)
(1.07737 0.014841 0)
(1.06917 0.0194626 0)
(1.06381 0.0235025 0)
(1.06258 0.0262598 0)
(1.06562 0.0277545 0)
(1.07389 0.0282712 0)
(1.08282 0.0283923 0)
(1.07495 0.0273861 0)
(1.00041 0.0235178 0)
(0.785978 0.0147665 0)
(0.453994 0.0047758 0)
(0.138769 0.00065251 0)
(0.194736 0.000228021 0)
(0.552908 0.00151772 0)
(0.872775 0.000469689 0)
(1.06336 -0.000100015 0)
(1.1205 0.00210426 0)
(1.11981 0.0057502 0)
(1.10584 0.0101436 0)
(1.09247 0.0149847 0)
(1.08067 0.0201508 0)
(1.07071 0.0252151 0)
(1.06491 0.0290465 0)
(1.06432 0.0308366 0)
(1.06849 0.031833 0)
(1.07575 0.0321119 0)
(1.08115 0.0313532 0)
(1.06983 0.02964 0)
(0.985483 0.0249 0)
(0.759524 0.0152443 0)
(0.431058 0.00503728 0)
(0.129362 0.00068217 0)
(0.198873 0.000665126 0)
(0.555515 0.00230981 0)
(0.873059 0.00330966 0)
(1.06589 0.00322117 0)
(1.12645 0.00608296 0)
(1.12681 0.0100723 0)
(1.11256 0.0150445 0)
(1.09896 0.0201572 0)
(1.08717 0.0254354 0)
(1.07695 0.0303284 0)
(1.06905 0.0338243 0)
(1.06533 0.0357721 0)
(1.06629 0.0361684 0)
(1.0733 0.0356214 0)
(1.07955 0.0349738 0)
(1.06226 0.0326071 0)
(0.965694 0.0266724 0)
(0.729326 0.0161108 0)
(0.405941 0.00540591 0)
(0.119026 0.000715265 0)
(0.205194 0.000868197 0)
(0.562124 0.0034133 0)
(0.876737 0.00575146 0)
(1.07053 0.00737943 0)
(1.13335 0.0108804 0)
(1.13459 0.015647 0)
(1.1199 0.0211845 0)
(1.10501 0.0270468 0)
(1.09114 0.033021 0)
(1.07819 0.0383293 0)
(1.06921 0.0418821 0)
(1.06638 0.0426997 0)
(1.06865 0.0424032 0)
(1.0744 0.0416676 0)
(1.07554 0.0396574 0)
(1.05364 0.0361798 0)
(0.945846 0.0291383 0)
(0.698882 0.0173118 0)
(0.380414 0.00587203 0)
(0.108334 0.000752025 0)
(0.213572 0.00105036 0)
(0.57332 0.00471944 0)
(0.884874 0.00887836 0)
(1.07802 0.0119578 0)
(1.14174 0.0165213 0)
(1.1435 0.0217561 0)
(1.12781 0.0280954 0)
(1.11186 0.0344028 0)
(1.09714 0.0406644 0)
(1.08362 0.0461059 0)
(1.07241 0.0493198 0)
(1.06578 0.050213 0)
(1.06452 0.0493158 0)
(1.06944 0.0470843 0)
(1.07195 0.0452662 0)
(1.04191 0.040699 0)
(0.91988 0.0319951 0)
(0.663235 0.0188614 0)
(0.351477 0.00639278 0)
(0.0963628 0.000778697 0)
(0.225804 0.00139603 0)
(0.591359 0.00667318 0)
(0.899501 0.0131841 0)
(1.08863 0.0181585 0)
(1.15159 0.0235986 0)
(1.15354 0.0298677 0)
(1.13696 0.0371039 0)
(1.1195 0.0445214 0)
(1.10244 0.0518081 0)
(1.08547 0.0576764 0)
(1.07175 0.0601405 0)
(1.0655 0.0596565 0)
(1.06544 0.0579648 0)
(1.06915 0.0558486 0)
(1.0647 0.0519739 0)
(1.02805 0.0460351 0)
(0.893085 0.035719 0)
(0.626186 0.0207204 0)
(0.321222 0.00696507 0)
(0.0838689 0.000803479 0)
(0.241459 0.00193737 0)
(0.614621 0.00850379 0)
(0.92011 0.0178533 0)
(1.10378 0.0251729 0)
(1.1639 0.032416 0)
(1.1654 0.0397284 0)
(1.14702 0.0482781 0)
(1.12744 0.0562963 0)
(1.10791 0.0635765 0)
(1.08869 0.0687662 0)
(1.07294 0.0712701 0)
(1.0634 0.0705979 0)
(1.05961 0.0679772 0)
(1.06107 0.0636901 0)
(1.05768 0.0596843 0)
(1.01024 0.0523074 0)
(0.858081 0.0395211 0)
(0.582058 0.0227268 0)
(0.286562 0.00747352 0)
(0.0699837 0.00080333 0)
(0.26335 0.00280389 0)
(0.647646 0.0122444 0)
(0.949233 0.0246436 0)
(1.12348 0.0347361 0)
(1.17894 0.0431571 0)
(1.17933 0.0526103 0)
(1.15874 0.0622606 0)
(1.13662 0.0715066 0)
(1.11416 0.0797641 0)
(1.09177 0.0855714 0)
(1.07256 0.0863615 0)
(1.06154 0.0832898 0)
(1.0583 0.0792895 0)
(1.05888 0.0753168 0)
(1.04636 0.0689094 0)
(0.98889 0.0593821 0)
(0.821479 0.0445393 0)
(0.535841 0.0249538 0)
(0.250403 0.00794133 0)
(0.055826 0.000784155 0)
(0.294376 0.00368455 0)
(0.692215 0.0153997 0)
(0.987469 0.0326974 0)
(1.14963 0.0464106 0)
(1.19755 0.0578455 0)
(1.19519 0.0693632 0)
(1.17087 0.0808668 0)
(1.14518 0.090726 0)
(1.11886 0.0982638 0)
(1.09203 0.101716 0)
(1.06966 0.100916 0)
(1.05677 0.0977948 0)
(1.0506 0.0927025 0)
(1.04762 0.0857097 0)
(1.03426 0.0790532 0)
(0.962399 0.0675601 0)
(0.773494 0.0489817 0)
(0.479396 0.0268375 0)
(0.208953 0.00813935 0)
(0.0403981 0.000687133 0)
(0.330744 0.0070822 0)
(0.750382 0.0246794 0)
(1.03718 0.046632 0)
(1.18193 0.0645929 0)
(1.22006 0.0774195 0)
(1.21349 0.0920257 0)
(1.18451 0.104203 0)
(1.15463 0.114046 0)
(1.12424 0.121039 0)
(1.09447 0.124286 0)
(1.06962 0.122573 0)
(1.05333 0.115486 0)
(1.04551 0.107725 0)
(1.04234 0.100735 0)
(1.01694 0.0907852 0)
(0.929596 0.075877 0)
(0.722828 0.0545009 0)
(0.422576 0.0289503 0)
(0.167778 0.00814528 0)
(0.0262263 0.000608039 0)
(0.410593 0.0106254 0)
(0.837721 0.0356723 0)
(1.10288 0.067194 0)
(1.22218 0.0898853 0)
(1.24705 0.106053 6.2561e-34)
(1.2333 0.122362 -2.82193e-34)
(1.19782 0.134607 0)
(1.16297 0.143311 0)
(1.12806 0.148377 0)
(1.09315 0.147998 0)
(1.06255 0.141077 0)
(1.04472 0.132857 0)
(1.03636 0.124255 0)
(1.02655 0.113959 0)
(0.997253 0.102728 0)
(0.890572 0.0851026 0)
(0.657421 0.0583918 0)
(0.34985 0.0291774 0)
(0.118313 0.00764835 0)
(0.0103282 0.000751602 0)
(0.481417 0.0258533 4.60138e-20)
(0.93994 0.0596399 -3.48487e-20)
(1.17402 0.101883 0)
(1.26339 0.128818 2.70189e-20)
(1.27488 0.144172 -2.19111e-20)
(1.25185 0.162494 2.9774e-34)
(1.20932 0.172855 0)
(1.16903 0.17943 1.58826e-20)
(1.1283 0.181669 -5.21774e-20)
(1.08846 0.178604 1.06547e-20)
(1.05763 0.171436 0)
(1.03749 0.16024 -2.70755e-20)
(1.02434 0.147665 -3.25147e-20)
(1.01483 0.136219 5.69137e-20)
(0.963909 0.120349 -4.49545e-20)
(0.827148 0.0947921 0)
(0.567666 0.0622129 -1.61836e-20)
(0.266312 0.02838 0)
(0.0682431 0.00730608 -8.93283e-20)
(-0.00660994 0.000492582 1.05278e-19)
(0.517743 0.0535825 -6.04792e-21)
(1.00472 0.102465 1.03676e-19)
(1.22453 0.152122 -5.63016e-21)
(1.29719 0.176533 -6.62932e-20)
(1.29965 0.193933 -4.63823e-20)
(1.26748 0.210342 7.54705e-20)
(1.21848 0.217841 0)
(1.17266 0.22159 0)
(1.1272 0.221449 8.30006e-20)
(1.08353 0.215575 0)
(1.04505 0.202918 9.77176e-20)
(1.0192 0.187161 2.90524e-20)
(1.00595 0.173899 4.58762e-22)
(0.981071 0.159265 -6.19013e-20)
(0.9232 0.139119 0)
(0.767333 0.109927 0)
(0.494379 0.0668092 -2.63822e-19)
(0.208014 0.0273906 6.6331e-19)
(0.0371481 0.00562846 -3.92071e-19)
(-0.0179007 -0.00124289 -4.61952e-19)
(0.525235 0.0760433 -5.76437e-20)
(1.04131 0.159445 2.221e-20)
(1.26085 0.212449 1.22613e-20)
(1.32352 0.235759 1.15488e-19)
(1.31874 0.251526 1.45284e-20)
(1.27925 0.263479 -1.96586e-19)
(1.22466 0.267032 6.71232e-20)
(1.17343 0.267536 0)
(1.12176 0.263688 -1.75423e-19)
(1.07094 0.253575 1.5597e-19)
(1.02859 0.236967 -2.63701e-19)
(1.00259 0.220754 1.23614e-19)
(0.984435 0.205185 -8.01751e-20)
(0.964563 0.188418 1.80681e-19)
(0.890727 0.165766 0)
(0.722768 0.124779 -6.59188e-20)
(0.451341 0.0740404 0)
(0.190647 0.0291323 3.62518e-19)
(0.0304813 0.00512176 -8.59528e-19)
(-0.0209552 -0.00297962 5.38451e-19)
(0.521452 0.107934 1.55532e-19)
(1.06324 0.216522 -6.858e-20)
(1.28318 0.277868 -1.477e-20)
(1.34067 0.300494 0)
(1.33099 0.314127 -8.56248e-20)
(1.28631 0.320917 1.05719e-19)
(1.22703 0.319667 -7.17723e-20)
(1.17098 0.315876 0)
(1.1151 0.307964 1.24619e-19)
(1.06135 0.293613 -1.09554e-19)
(1.01647 0.274454 2.28229e-19)
(0.984624 0.255348 0)
(0.96294 0.237215 -1.70317e-19)
(0.929627 0.216041 9.59461e-20)
(0.858095 0.187285 2.41783e-19)
(0.692144 0.143952 -2.12738e-19)
(0.433953 0.0856657 3.36566e-19)
(0.188013 0.0347888 -7.44061e-19)
(0.0326425 0.00592025 4.71102e-19)
(-0.0204486 -0.00422056 -5.89338e-19)
(0.509234 0.131978 -5.03322e-20)
(1.06922 0.269592 3.58313e-20)
(1.29346 0.343133 -4.92191e-20)
(1.34969 0.366013 9.97244e-20)
(1.33669 0.377516 -9.51405e-20)
(1.28836 0.379268 3.32385e-20)
(1.22569 0.373325 3.70417e-21)
(1.16603 0.365189 -1.40539e-19)
(1.10589 0.352644 -1.30486e-19)
(1.04627 0.333712 -2.35221e-19)
(0.995266 0.310463 -4.90865e-19)
(0.96117 0.288099 -1.5142e-19)
(0.9381 0.267019 2.23405e-21)
(0.911529 0.246403 -3.28856e-19)
(0.83378 0.216616 -5.4291e-21)
(0.66992 0.163727 3.09686e-19)
(0.425706 0.0987208 -9.31676e-20)
(0.193257 0.0430197 -5.39293e-20)
(0.0413551 0.00818289 0)
(-0.0166781 -0.00439743 1.25326e-18)
(0.493406 0.152996 0)
(1.06572 0.32017 -1.86772e-21)
(1.29625 0.406853 -7.57432e-21)
(1.35187 0.430145 -1.28802e-20)
(1.33639 0.440484 9.13936e-20)
(1.28571 0.437812 -7.77966e-20)
(1.22034 0.427372 7.81992e-20)
(1.15712 0.414809 2.30872e-19)
(1.09295 0.398237 -7.27295e-20)
(1.02971 0.375484 1.16107e-19)
(0.976688 0.348497 2.63924e-19)
(0.941156 0.322873 3.30161e-19)
(0.914541 0.299922 -1.98968e-19)
(0.876935 0.274828 3.56211e-19)
(0.804333 0.239059 -2.82341e-19)
(0.650414 0.187015 0)
(0.421796 0.115812 -7.07415e-19)
(0.20401 0.0540851 9.52136e-19)
(0.0544021 0.0134471 7.10706e-20)
(-0.0106243 -0.00350932 -1.32599e-18)
(0.477916 0.17274 -5.08454e-21)
(1.05591 0.367163 -9.45694e-21)
(1.29274 0.467064 5.48962e-20)
(1.34917 0.491963 -7.77175e-20)
(1.33177 0.501286 7.65296e-20)
(1.27916 0.494593 -7.50283e-20)
(1.21156 0.480359 1.54684e-19)
(1.14586 0.463957 -6.90481e-20)
(1.07885 0.442962 -2.93192e-19)
(1.0128 0.415367 -1.52512e-22)
(0.956892 0.384771 -2.87066e-19)
(0.915988 0.355367 -3.55524e-19)
(0.887747 0.330423 2.19888e-19)
(0.859078 0.30547 -1.28176e-19)
(0.782542 0.270583 3.07238e-19)
(0.634031 0.207911 0)
(0.418588 0.133853 -4.3979e-19)
(0.212995 0.0660492 6.49571e-19)
(0.0661761 0.0198903 1.22875e-18)
(-0.00455238 -0.0019405 -1.44499e-18)
(0.464225 0.190628 -7.92476e-20)
(1.04499 0.412602 3.40573e-20)
(1.28616 0.525084 -3.40466e-20)
(1.34242 0.55112 8.01452e-20)
(1.32325 0.55994 1.21201e-20)
(1.26928 0.549887 -1.4684e-19)
(1.2001 0.532067 -8.99976e-20)
(1.13237 0.511731 -8.87342e-20)
(1.06304 0.486943 -1.65658e-19)
(0.994339 0.455874 2.66607e-19)
(0.934007 0.421146 2.89909e-19)
(0.893189 0.388942 5.64128e-19)
(0.864258 0.362496 0)
(0.824376 0.333514 6.51773e-21)
(0.755837 0.291954 -8.44982e-19)
(0.616822 0.232496 1.98062e-19)
(0.415339 0.152044 9.53906e-19)
(0.220927 0.0791958 -2.81521e-19)
(0.0771455 0.0273242 5.84442e-19)
(0.00142704 0.000202277 -4.87066e-20)
(0.453348 0.208205 5.8312e-21)
(1.03173 0.454245 5.38329e-20)
(1.27619 0.57945 -1.15445e-20)
(1.33298 0.607638 8.27271e-20)
(1.3125 0.615759 -1.47366e-19)
(1.25748 0.602422 1.45456e-19)
(1.18709 0.581497 9.31258e-20)
(1.11796 0.557996 2.6475e-19)
(1.04651 0.529621 3.32228e-19)
(0.974812 0.494805 -3.08475e-19)
(0.912784 0.456306 0)
(0.868602 0.422147 -2.13681e-19)
(0.836616 0.39125 2.4533e-19)
(0.80658 0.362416 3.10038e-19)
(0.735009 0.323113 -1.79375e-19)
(0.600614 0.252827 -4.36824e-19)
(0.410227 0.170201 -1.30228e-19)
(0.22607 0.0921758 -1.92655e-21)
(0.0854786 0.0348041 0)
(0.00626022 0.00240527 0)
(0.445353 0.224454 -7.93737e-20)
(1.02054 0.495253 0)
(1.26535 0.631684 3.43513e-21)
(1.32146 0.6613 -1.43557e-20)
(1.29976 0.668811 1.68624e-19)
(1.24391 0.652801 -4.25959e-20)
(1.17252 0.629084 9.45907e-20)
(1.10194 0.602369 -1.78995e-19)
(1.02856 0.570979 2.51991e-19)
(0.955055 0.532981 -1.01799e-19)
(0.890569 0.490345 1.66305e-19)
(0.845292 0.452409 6.78127e-19)
(0.81354 0.420892 1.43638e-20)
(0.773126 0.388344 -3.23498e-19)
(0.708493 0.341801 5.99457e-19)
(0.581956 0.27653 3.8097e-21)
(0.403362 0.187 1.39325e-19)
(0.227513 0.104744 -6.64282e-19)
(0.0903531 0.0413506 6.84656e-19)
(0.00971295 0.00438149 -8.066e-19)
(0.438073 0.241704 2.7885e-23)
(1.00759 0.53224 0)
(1.25266 0.679955 0)
(1.30863 0.712205 -3.49731e-23)
(1.28604 0.719066 -4.92836e-20)
(1.22951 0.70034 6.76528e-20)
(1.15731 0.674093 -1.75464e-19)
(1.0857 0.644881 0)
(1.01067 0.610641 -3.7176e-19)
(0.934459 0.56942 4.47119e-19)
(0.867815 0.523937 4.75015e-19)
(0.819398 0.483704 -2.48977e-19)
(0.786048 0.447325 -3.01723e-19)
(0.755907 0.413295 7.07696e-19)
(0.68721 0.370601 -2.13108e-19)
(0.563727 0.293114 -2.54216e-19)
(0.39251 0.202393 -1.52064e-19)
(0.224797 0.114619 -7.17526e-19)
(0.0916147 0.0466316 1.05203e-19)
(0.0117644 0.00578075 8.72818e-19)
(0.433607 0.259592 -3.88351e-20)
(0.997488 0.569367 -5.1794e-20)
(1.24006 0.72631 2.36511e-20)
(1.29486 0.760124 -1.9575e-22)
(1.27138 0.766342 -5.27885e-20)
(1.21421 0.745511 1.07967e-19)
(1.14125 0.717127 0)
(1.06855 0.685393 1.08446e-19)
(0.992112 0.648935 -8.55102e-20)
(0.914514 0.605236 7.46271e-19)
(0.845681 0.556072 -1.07608e-19)
(0.796663 0.511013 1.23367e-19)
(0.76328 0.474454 0)
(0.722299 0.437421 -3.83306e-19)
(0.660618 0.384122 4.64629e-19)
(0.543326 0.313011 0)
(0.381236 0.215239 -3.275e-19)
(0.219827 0.123251 9.63871e-19)
(0.0899159 0.050264 1.14246e-19)
(0.0123513 0.00662031 -1.075e-18)
(0.430611 0.276624 -9.74986e-20)
(0.986318 0.602645 1.2459e-19)
(1.22644 0.768852 0)
(1.2806 0.805278 1.95735e-20)
(1.25641 0.811077 0)
(1.1987 0.788057 -1.41146e-19)
(1.12527 0.757595 0)
(1.05202 0.723919 0)
(0.974415 0.685321 -1.1362e-19)
(0.894155 0.638915 -7.09494e-19)
(0.822304 0.587336 -8.78272e-19)
(0.770552 0.539681 1.44526e-19)
(0.735024 0.497865 5.21916e-19)
(0.704579 0.457855 4.22487e-19)
(0.638838 0.409303 -1.49097e-18)
(0.523521 0.323532 -5.97004e-19)
(0.367045 0.225926 3.49875e-19)
(0.211972 0.129247 0)
(0.0868003 0.0520922 9.78966e-19)
(0.0118878 0.00708072 -1.1582e-18)
(0.428933 0.292225 1.16166e-19)
(0.977598 0.636173 -1.44511e-19)
(1.2135 0.809852 0)
(1.26612 0.847572 -1.12285e-20)
(1.2412 0.852808 -2.15696e-21)
(1.18305 0.82819 0)
(1.10922 0.796121 5.4147e-20)
(1.0352 0.760517 7.54817e-20)
(0.956215 0.720353 -2.13424e-19)
(0.874396 0.67236 9.39185e-20)
(0.800275 0.617924 0)
(0.747559 0.565516 5.98754e-19)
(0.711413 0.522832 5.65003e-21)
(0.670621 0.478768 2.27985e-19)
(0.611788 0.416595 2.70662e-19)
(0.502475 0.338151 0)
(0.353571 0.232991 -5.70421e-19)
(0.203071 0.132877 1.11781e-18)
(0.0824127 0.0528765 -1.18426e-18)
(0.0109458 0.00708667 2.49433e-18)
(0.427481 0.307157 0)
(0.96758 0.665952 0)
(1.20011 0.84716 -7.09353e-20)
(1.25173 0.887298 0)
(1.2262 0.892342 0)
(1.16769 0.866 -1.14893e-19)
(1.09361 0.832262 5.53851e-20)
(1.0192 0.79517 1.77566e-20)
(0.939103 0.753421 -4.86765e-20)
(0.854844 0.703343 0)
(0.777425 0.646547 -1.33994e-19)
(0.720713 0.592469 -4.88454e-19)
(0.682167 0.543966 -5.88658e-19)
(0.651291 0.494055 -2.36897e-19)
(0.589069 0.436939 2.93116e-19)
(0.481938 0.34149 -6.90662e-19)
(0.338521 0.237497 1.22767e-18)
(0.194121 0.133793 1.76972e-21)
(0.0779894 0.0528366 -1.13295e-18)
(0.0100205 0.00701659 -1.68215e-19)
(0.426449 0.321541 0)
(0.959875 0.696505 -1.17522e-19)
(1.18776 0.883339 8.6473e-20)
(1.23757 0.924451 0)
(1.21141 0.928954 0)
(1.1526 0.901419 2.29313e-19)
(1.07831 0.866543 0)
(1.00323 0.828038 0)
(0.921869 0.785209 -4.68358e-19)
(0.83613 0.734336 1.30274e-19)
(0.755966 0.675986 -1.188e-18)
(0.697304 0.618075 0)
(0.657444 0.566993 -6.40122e-19)
(0.61517 0.511888 1.04446e-20)
(0.559903 0.435983 -9.43109e-19)
(0.460176 0.348779 3.71492e-19)
(0.325934 0.236803 1.32913e-21)
(0.187436 0.131296 -1.28245e-18)
(0.075107 0.0511109 6.09629e-19)
(0.00799211 0.00517482 1.79932e-19)
(0.425327 0.335684 0)
(0.951044 0.723433 -1.61262e-19)
(1.17519 0.91605 9.12054e-20)
(1.22378 0.959295 1.23164e-19)
(1.19706 0.963743 -8.88269e-21)
(1.13798 0.934841 2.27937e-20)
(1.06356 0.898642 -3.21721e-20)
(0.988243 0.859052 4.45672e-19)
(0.905953 0.815139 5.0101e-19)
(0.817714 0.762859 9.91713e-19)
(0.733995 0.702614 9.87065e-19)
(0.670509 0.643253 1.73744e-19)
(0.625871 0.58612 9.20871e-19)
(0.593005 0.522335 5.69484e-19)
(0.534081 0.45066 6.7692e-19)
(0.438941 0.341153 -4.06523e-19)
(0.311264 0.229862 -4.69936e-19)
(0.185435 0.126369 5.50821e-19)
(0.0799796 0.056544 -3.27724e-19)
(0.0141085 0.0133406 5.82813e-19)
(0.424533 0.349332 2.26239e-19)
(0.944412 0.751299 2.52674e-19)
(1.16372 0.948063 5.27183e-20)
(1.21039 0.991877 1.57846e-20)
(1.18312 0.995727 -5.2489e-21)
(1.12383 0.965918 -6.34044e-20)
(1.04936 0.928976 3.08315e-20)
(0.973551 0.888435 -1.95711e-20)
(0.890058 0.843833 -5.83359e-19)
(0.800372 0.79128 -1.07647e-18)
(0.714235 0.730743 6.8523e-20)
(0.647627 0.668997 0)
(0.60053 0.608661 0)
(0.55277 0.538892 -2.97029e-19)
(0.499501 0.440803 -1.10917e-18)
(0.414745 0.33728 8.75813e-19)
(0.30678 0.211062 5.14158e-19)
(0.195055 0.106722 0)
(0.095737 0.0285716 1.04896e-18)
(0.0079955 -0.0126738 -6.21653e-19)
(0.423603 0.362523 -1.20017e-19)
(0.936591 0.775372 1.0606e-19)
(1.15202 0.976732 -1.26398e-19)
(1.19747 1.02237 -1.04471e-19)
(1.16972 1.02624 -1.77132e-20)
(1.11026 0.995338 -2.02568e-20)
(1.03579 0.957354 0)
(0.959839 0.916063 -5.60231e-19)
(0.875547 0.870764 7.09388e-20)
(0.783565 0.817462 0)
(0.693872 0.756201 0)
(0.621398 0.693483 1.11195e-19)
(0.56647 0.627117 1.49661e-19)
(0.526124 0.546305 -3.21129e-19)
(0.466959 0.452356 7.96128e-19)
(0.384824 0.314299 -9.5449e-19)
(0.285849 0.186603 -1.10189e-18)
(0.211808 0.0921917 9.76343e-19)
(0.159628 0.0770378 -3.72985e-19)
(0.111892 0.0772578 2.16999e-19)
(0.4229 0.374858 1.49864e-19)
(0.930715 0.800471 0)
(1.14139 1.00503 0)
(1.18501 1.05087 -2.90542e-20)
(1.15683 1.05407 2.35216e-20)
(1.09728 1.02247 -2.01821e-20)
(1.0229 0.984066 1.39316e-19)
(0.94658 0.942207 5.73247e-19)
(0.861247 0.896574 1.05867e-18)
(0.768133 0.843428 -8.12283e-20)
(0.6763 0.782838 1.68167e-19)
(0.599958 0.719147 -9.95034e-19)
(0.541599 0.651185 -9.93674e-19)
(0.480341 0.565569 -1.72585e-19)
(0.418194 0.436465 0)
(0.346834 0.307217 -5.50135e-21)
(0.264452 0.114804 6.08035e-19)
(0.250135 -0.0106654 -1.02144e-18)
(0.215578 -0.101492 7.76293e-19)
(0.0872 -0.0980028 6.42756e-19)
(0.421835 0.386893 -3.3083e-19)
(0.923463 0.821696 -1.49079e-19)
(1.13043 1.03015 6.93848e-21)
(1.17295 1.07768 5.91762e-20)
(1.14436 1.08107 0)
(1.0847 1.04867 -5.77062e-20)
(1.01036 1.00952 -2.01506e-19)
(0.933956 0.96728 -2.05977e-21)
(0.848019 0.921411 -5.54664e-19)
(0.752722 0.868119 -7.97522e-20)
(0.656968 0.807971 7.40769e-20)
(0.574639 0.745023 8.74241e-19)
(0.504367 0.672031 9.69415e-19)
(0.447864 0.573242 1.68384e-19)
(0.377452 0.456128 8.60121e-19)
(0.281697 0.274214 0)
(0.155735 0.0988982 0)
(-0.00536823 0.186921 6.99902e-19)
(-0.0786119 0.630121 -2.8105e-20)
(0.00868715 1.54146 -8.66166e-19)
(0.421102 0.398156 1.82657e-19)
(0.918141 0.844464 4.19616e-19)
(1.12052 1.05553 -5.78403e-19)
(1.16126 1.10314 2.92651e-19)
(1.13224 1.10599 -9.33338e-21)
(1.07249 1.07326 -9.01956e-21)
(0.998245 1.0342 0)
(0.92149 0.991994 -4.7745e-19)
(0.834544 0.946452 0)
(0.738156 0.89407 1.12167e-18)
(0.640362 0.83565 -9.0541e-20)
(0.553594 0.77339 1.01524e-19)
(0.480077 0.702657 1.11382e-18)
(0.393315 0.607347 -3.65796e-19)
(0.285692 0.443948 -4.37011e-19)
(0.188403 0.326071 0)
(0.079612 0.477144 0)
(0.0250556 1.34882 0)
(0.0715247 2.46931 -3.97369e-19)
(0.0984672 2.91361 -2.45144e-19)
(0.419685 0.408933 0)
(0.911333 0.86312 0)
(1.11023 1.07771 2.10787e-19)
(1.15 1.12712 -2.3799e-19)
(1.12056 1.13048 1.08442e-19)
(1.06068 1.09736 1.71822e-20)
(0.986449 1.05798 2.62429e-20)
(0.909646 1.01591 -2.04319e-20)
(0.822269 0.970822 7.85394e-20)
(0.723817 0.919206 -1.28731e-18)
(0.621759 0.862568 1.63948e-19)
(0.529067 0.803741 8.7663e-19)
(0.439259 0.73126 -1.10924e-18)
(0.356695 0.617321 -1.22321e-18)
(0.265698 0.502462 4.11201e-19)
(0.184008 0.643639 0)
(0.116723 1.57575 5.63534e-19)
(0.12003 2.69808 6.12053e-19)
(0.127786 3.08954 -6.84e-19)
(0.120126 3.22296 7.30881e-19)
(0.418702 0.419437 0)
(0.90652 0.883643 3.69229e-19)
(1.10107 1.10048 -5.28365e-20)
(1.13917 1.14987 3.31444e-19)
(1.1093 1.1528 -1.13828e-19)
(1.04935 1.11966 0)
(0.975262 1.08079 0)
(0.898184 1.03929 0)
(0.809927 0.995151 4.4056e-19)
(0.71064 0.945287 5.92484e-20)
(0.60696 0.891349 0)
(0.509741 0.833982 -8.71393e-19)
(0.422897 0.766722 0)
(0.303016 0.663947 8.75113e-19)
(0.202083 0.717974 -5.92019e-19)
(0.148635 1.46441 -4.75173e-19)
(0.152037 2.68508 -1.10029e-18)
(0.174803 3.12638 -5.78961e-19)
(0.165556 3.2661 -7.81517e-19)
(0.152251 3.30631 5.76981e-19)
(0.417138 0.428887 -1.28802e-19)
(0.900091 0.899757 1.50939e-20)
(1.09147 1.11992 -5.87066e-20)
(1.1288 1.17124 -2.56609e-19)
(1.09851 1.175 0)
(1.03845 1.14181 0)
(0.964361 1.10291 0)
(0.887302 1.0619 3.35428e-20)
(0.798849 1.01877 -5.571e-19)
(0.697828 0.970501 0)
(0.590239 0.919395 0)
(0.489854 0.86788 0)
(0.379146 0.796371 0)
(0.308383 0.755867 6.41223e-19)
(0.267916 1.14945 1.57518e-18)
(0.242201 2.3944 4.6402e-19)
(0.258034 3.08224 9.31173e-19)
(0.252619 3.28038 -7.13544e-19)
(0.204218 3.34586 2.62133e-19)
(0.172227 3.35884 0)
(0.415991 0.4382 1.32491e-19)
(0.89561 0.918756 -8.18854e-19)
(1.08285 1.14098 -2.20519e-19)
(1.11861 1.19217 -4.87243e-20)
(1.08793 1.19555 2.64545e-20)
(1.02783 1.16252 -9.96872e-20)
(0.95396 1.12446 -1.66058e-21)
(0.876735 1.0844 -3.6987e-19)
(0.787567 1.04268 0)
(0.686143 0.996878 -7.55679e-20)
(0.578101 0.949384 6.87442e-20)
(0.473378 0.898413 0)
(0.380499 0.842417 0)
(0.320878 0.945773 -8.03107e-19)
(0.26868 1.85368 9.99335e-20)
(0.265181 2.94449 -3.48768e-19)
(0.289222 3.28393 7.29051e-19)
(0.26093 3.38218 5.25031e-19)
(0.196086 3.40666 -7.1174e-19)
(0.17157 3.4166 3.51851e-19)
(0.413936 0.447766 2.59912e-19)
(0.888581 0.934089 7.9762e-19)
(1.07279 1.1599 2.65085e-19)
(1.10804 1.21331 0)
(1.077 1.21776 0)
(1.0169 1.18477 7.74668e-20)
(0.943118 1.14667 5.97222e-20)
(0.866108 1.10716 3.29523e-19)
(0.777135 1.06664 2.16507e-20)
(0.674575 1.0229 9.64098e-19)
(0.563738 0.978736 -1.14478e-18)
(0.453058 0.931004 0)
(0.376004 0.915775 0)
(0.333743 1.31775 -5.4739e-19)
(0.33122 2.4934 -6.58019e-19)
(0.375186 3.19585 0)
(0.399934 3.36501 -7.37411e-19)
(0.329517 3.42775 4.9711e-20)
(0.260903 3.47299 3.43176e-19)
(0.238682 3.49836 -1.12525e-19)
(0.412157 0.457644 -4.94121e-19)
(0.883416 0.955141 -3.82853e-19)
(1.06304 1.18298 0)
(1.09664 1.23571 0)
(1.06532 1.23943 0)
(1.00537 1.20644 0)
(0.932083 1.16919 -7.13021e-20)
(0.85519 1.13067 2.87656e-19)
(0.765825 1.09163 0)
(0.663688 1.05067 -8.77654e-19)
(0.554167 1.01032 2.05373e-18)
(0.445289 0.971966 8.40648e-20)
(0.395587 1.0418 1.12894e-19)
(0.38561 1.74619 8.91946e-19)
(0.397141 2.90182 -4.79995e-19)
(0.436393 3.31619 0)
(0.419646 3.43815 2.07062e-19)
(0.334034 3.52693 9.12868e-20)
(0.259734 3.59076 1.48623e-19)
(0.18433 3.57022 -1.36108e-20)
(0.409146 0.468084 2.34857e-19)
(0.874496 0.971374 -3.90601e-19)
(1.05103 1.20337 0)
(1.08441 1.25865 -7.13835e-20)
(1.05286 1.26363 2.45887e-19)
(0.993077 1.2305 0)
(0.920108 1.19287 0)
(0.843793 1.15462 -4.98702e-19)
(0.755257 1.11666 -5.60398e-20)
(0.652916 1.07772 8.60248e-19)
(0.538626 1.03994 -9.7574e-19)
(0.44814 1.01985 5.71842e-19)
(0.409403 1.22335 0)
(0.420263 2.18692 -4.7288e-19)
(0.463098 3.14412 3.10219e-19)
(0.527467 3.4187 1.9481e-19)
(0.51875 3.51436 0)
(0.456249 3.59582 -3.69385e-20)
(0.387038 3.63597 -4.0975e-19)
(0.306625 3.60786 -9.62945e-20)
(0.40645 0.478671 -4.6742e-19)
(0.868102 0.995503 5.59222e-19)
(1.03957 1.22941 3.8785e-19)