/*--------------------------------*- C++ -*----------------------------------*\
  =========                 |
  \\      /  F ield         | OpenFOAM: The Open Source CFD Toolbox
   \\    /   O peration     | Website:  https://openfoam.org
    \\  /    A nd           | Version:  10
     \\/     M anipulation  |
\*---------------------------------------------------------------------------*/
FoamFile
{
    format      ascii;
    class       volScalarField;
    location    "35";
    object      p;
}
// * * * * * * * * * * * * * * * * * * * * * * * * * * * * * * * * * * * * * //

dimensions      [0 2 -2 0 0 0 0];

internalField   nonuniform List<scalar> 
8800
(
0.981918
0.934129
0.895434
0.866432
0.845558
0.830709
0.820087
0.812575
0.807711
0.805594
0.806783
0.810911
0.817503
0.826778
0.839529
0.857243
0.882007
0.915938
0.95848
1.01718
0.81318
0.820858
0.828321
0.831625
0.830113
0.825023
0.818519
0.812416
0.807653
0.804752
0.8044
0.806828
0.811252
0.81715
0.823883
0.830136
0.833758
0.833011
0.827578
0.818881
0.791602
0.797761
0.801883
0.804818
0.806854
0.807441
0.806309
0.80417
0.802103
0.801121
0.802001
0.804307
0.807045
0.809178
0.809748
0.808522
0.806158
0.802749
0.798183
0.79442
0.785832
0.788481
0.791226
0.793619
0.79524
0.796381
0.797093
0.79717
0.796816
0.796686
0.797345
0.798431
0.799199
0.799206
0.798552
0.797425
0.795581
0.79299
0.790575
0.78907
0.780505
0.781929
0.783702
0.785724
0.787493
0.788812
0.789768
0.790518
0.791066
0.791539
0.792081
0.792474
0.792488
0.79213
0.791376
0.79008
0.788347
0.78647
0.785148
0.784316
0.775499
0.776418
0.777655
0.779211
0.780828
0.782329
0.78358
0.784594
0.785481
0.786265
0.786825
0.787027
0.786878
0.786349
0.785393
0.784131
0.782753
0.781455
0.780615
0.780066
0.770682
0.771351
0.77231
0.773605
0.775
0.776435
0.777839
0.779104
0.780215
0.781194
0.781857
0.782069
0.781847
0.781219
0.780313
0.779282
0.7782
0.777226
0.776621
0.776218
0.766015
0.76653
0.767312
0.768438
0.769704
0.771056
0.772465
0.773876
0.775206
0.776388
0.777202
0.777477
0.777272
0.77673
0.775996
0.775161
0.774295
0.773547
0.77309
0.772777
0.76143
0.761838
0.762494
0.7635
0.764697
0.766001
0.767405
0.768891
0.7704
0.771817
0.772824
0.773233
0.77317
0.772803
0.772251
0.771591
0.7709
0.770327
0.769978
0.769727
0.756857
0.757186
0.757755
0.758688
0.759841
0.76113
0.762557
0.764119
0.765781
0.767442
0.768709
0.769356
0.769519
0.769357
0.768988
0.768507
0.767968
0.767533
0.767266
0.767061
0.752219
0.75249
0.752999
0.753889
0.755026
0.756337
0.75783
0.759508
0.761356
0.763294
0.764896
0.765858
0.766291
0.766353
0.766176
0.765866
0.76548
0.765163
0.76496
0.764788
0.747445
0.747667
0.748138
0.74902
0.750186
0.751567
0.753171
0.75503
0.757143
0.759436
0.76145
0.762778
0.763506
0.763812
0.763838
0.763689
0.763439
0.763221
0.763073
0.762927
0.742474
0.742656
0.743105
0.744005
0.74524
0.746728
0.748489
0.75058
0.753026
0.755775
0.758289
0.760057
0.761141
0.761734
0.761991
0.762013
0.761901
0.761775
0.761673
0.761548
0.737229
0.737377
0.737821
0.738764
0.740099
0.741735
0.743701
0.746091
0.74896
0.75228
0.755411
0.757709
0.759225
0.760163
0.760691
0.760914
0.760941
0.760904
0.760844
0.760735
0.731632
0.73175
0.732197
0.7332
0.734667
0.736499
0.738747
0.74152
0.744893
0.748892
0.752796
0.755783
0.757836
0.759165
0.759975
0.760443
0.760632
0.760692
0.760676
0.76058
0.725581
0.725654
0.726118
0.727213
0.72887
0.730966
0.733576
0.736857
0.740935
0.745833
0.750661
0.75441
0.757061
0.758867
0.760042
0.760745
0.761129
0.761294
0.761319
0.761233
0.718921
0.718992
0.71947
0.720659
0.722506
0.724897
0.72794
0.731811
0.736687
0.742641
0.748629
0.753389
0.756844
0.759264
0.760906
0.761967
0.762584
0.762871
0.762939
0.76286
0.711414
0.711463
0.71199
0.713289
0.715405
0.718203
0.721823
0.726501
0.732447
0.739752
0.74714
0.753057
0.757388
0.760508
0.762745
0.764233
0.765147
0.765584
0.765696
0.765618
0.702784
0.702813
0.7034
0.704863
0.707305
0.710613
0.714954
0.720622
0.727883
0.736849
0.74595
0.753295
0.758754
0.762742
0.765666
0.767668
0.768948
0.769563
0.769716
0.76963
0.692532
0.692555
0.693229
0.694927
0.697806
0.701787
0.707075
0.714032
0.722962
0.73398
0.745169
0.754212
0.760977
0.765984
0.769712
0.772345
0.774049
0.774854
0.775043
0.774941
0.679991
0.680017
0.680836
0.682901
0.686423
0.691355
0.69794
0.706611
0.717698
0.731274
0.744941
0.755958
0.764231
0.770406
0.775029
0.778356
0.78051
0.781506
0.781728
0.781604
0.664333
0.664366
0.665413
0.668043
0.672508
0.678775
0.687128
0.69806
0.711882
0.728583
0.745217
0.758547
0.768546
0.776046
0.781713
0.785804
0.788424
0.78961
0.789863
0.789714
0.644429
0.644477
0.645885
0.649404
0.655303
0.66352
0.674364
0.688339
0.705661
0.726163
0.746245
0.762188
0.774142
0.783127
0.789928
0.794849
0.797961
0.799333
0.79961
0.799434
0.618563
0.61865
0.620681
0.625652
0.633825
0.644922
0.65931
0.677338
0.699053
0.724091
0.74812
0.766991
0.781097
0.791734
0.799784
0.805654
0.809282
0.810822
0.811107
0.8109
0.58378
0.584004
0.587314
0.594927
0.606872
0.622426
0.641838
0.665211
0.692344
0.722662
0.75109
0.773125
0.789545
0.801962
0.811427
0.818304
0.822442
0.824105
0.824372
0.824127
0.534281
0.535387
0.542025
0.555064
0.573533
0.595924
0.622264
0.652408
0.685955
0.722191
0.755344
0.780698
0.799524
0.813813
0.824795
0.83273
0.837323
0.839056
0.839266
0.838972
0.461005
0.468526
0.483873
0.507031
0.535201
0.56672
0.60156
0.63954
0.680264
0.723022
0.761375
0.790454
0.812052
0.828577
0.841371
0.850531
0.855759
0.857711
0.857961
0.857722
0.382308
0.399653
0.424418
0.458185
0.496471
0.537332
0.5808
0.626869
0.675251
0.725352
0.770039
0.803998
0.829393
0.848974
0.864228
0.875146
0.881208
0.883375
0.883698
0.883644
0.31722
0.337432
0.370028
0.412581
0.45973
0.509364
0.561164
0.615122
0.670967
0.728133
0.778816
0.817302
0.84614
0.868337
0.885398
0.897369
0.904111
0.906907
0.907264
0.907276
0.264111
0.286058
0.323919
0.372724
0.426833
0.483765
0.542893
0.604071
0.666888
0.730741
0.787008
0.829554
0.86127
0.885452
0.903843
0.916963
0.924861
0.927576
0.928043
0.928121
0.220171
0.243147
0.284579
0.338242
0.397915
0.460838
0.526231
0.593792
0.662954
0.732959
0.794348
0.840471
0.874605
0.900444
0.920065
0.934057
0.942517
0.945628
0.94629
0.946403
0.18286
0.206445
0.250554
0.307975
0.37217
0.440157
0.510987
0.584204
0.659101
0.734744
0.800776
0.850067
0.886262
0.913454
0.93399
0.948625
0.957512
0.961079
0.961903
0.962028
0.150158
0.174154
0.220319
0.280784
0.348751
0.421091
0.496711
0.57502
0.655163
0.735999
0.806302
0.858422
0.896373
0.924635
0.945818
0.96091
0.970085
0.973967
0.974926
0.975053
0.120537
0.144931
0.192741
0.255755
0.326956
0.403078
0.482974
0.565913
0.650901
0.736608
0.810924
0.865674
0.905202
0.934387
0.956067
0.971488
0.980857
0.984944
0.985935
0.986024
0.0930318
0.117797
0.16707
0.23226
0.306248
0.385703
0.469434
0.556605
0.64612
0.736457
0.814649
0.871952
0.912991
0.943032
0.965166
0.980788
0.990249
0.994419
0.995455
0.995506
0.0668575
0.0920509
0.142742
0.209792
0.286254
0.368665
0.455851
0.54691
0.640666
0.735453
0.81748
0.877359
0.919957
0.950867
0.973453
0.989268
0.998759
1.00292
1.00403
1.00409
0.041711
0.0673426
0.11906
0.188031
0.266696
0.351762
0.44207
0.5367
0.634437
0.733534
0.819416
0.881993
0.926269
0.958156
0.98125
0.99727
1.0068
1.0109
1.01195
1.01198
0.0171986
0.0434221
0.0961481
0.166763
0.247403
0.334855
0.427993
0.525898
0.627365
0.730639
0.820446
0.885904
0.932055
0.965063
0.988767
1.00505
1.01461
1.01865
1.01956
1.01953
-0.00677445
0.0199309
0.0737903
0.145867
0.228287
0.317878
0.41357
0.514471
0.619417
0.726735
0.820544
0.889117
0.937382
0.971693
0.996119
1.0127
1.02225
1.02616
1.02696
1.02683
-0.0302915
-0.00301186
0.0518516
0.125282
0.209315
0.300821
0.398799
0.502414
0.610584
0.721782
0.819647
0.891586
0.94226
0.978104
1.00336
1.02023
1.0297
1.03339
1.03404
1.03385
-0.0534269
-0.0255194
0.030295
0.104996
0.190478
0.283697
0.383715
0.489766
0.600882
0.71575
0.817669
0.893222
0.946674
0.984343
1.01055
1.02769
1.03697
1.04034
1.04082
1.04058
-0.0761672
-0.0475743
0.00917567
0.0850358
0.171822
0.266549
0.368372
0.47658
0.590347
0.708619
0.814535
0.893924
0.950549
0.990442
1.0178
1.03511
1.04398
1.04692
1.0472
1.04692
-0.0983394
-0.0691022
-0.0114611
0.0654449
0.153393
0.249452
0.352841
0.462939
0.579049
0.700424
0.810183
0.893554
0.953742
0.996397
1.02527
1.04267
1.05078
1.05303
1.05309
1.0528
-0.119906
-0.0900587
-0.0315835
0.0462828
0.135258
0.232472
0.337217
0.448931
0.567077
0.691205
0.804568
0.891954
0.956058
1.00211
1.03318
1.05083
1.05766
1.05869
1.05841
1.05815
-0.140924
-0.110397
-0.0511477
0.0275922
0.117484
0.215695
0.321594
0.434665
0.554532
0.68104
0.797653
0.88898
0.957229
1.0073
1.04161
1.06035
1.06561
1.06437
1.06316
1.06314
-0.161212
-0.130085
-0.0700884
0.00944385
0.100134
0.199206
0.306067
0.420257
0.54154
0.670036
0.789455
0.884496
0.956944
1.01144
1.05017
1.07188
1.07679
1.07258
1.06872
1.06786
-0.180857
-0.149111
-0.08842
-0.00818609
0.0831766
0.182957
0.290581
0.405645
0.528028
0.658121
0.779844
0.87824
0.954866
1.0138
1.05779
1.08499
1.09317
1.08891
1.07874
1.06234
-0.199783
-0.167461
-0.106262
-0.0254901
0.0663184
0.166611
0.27471
0.390336
0.513444
0.644635
0.768139
0.869363
0.950327
1.01329
1.06196
1.09596
1.10834
1.09823
1.08013
1.06413
-0.217808
-0.185262
-0.123424
-0.0422301
0.0498643
0.150518
0.258684
0.374663
0.498111
0.629867
0.754486
0.857508
0.942769
1.00886
1.05763
1.09144
1.10733
1.08788
1.01813
0.985679
-0.234271
-0.203695
-0.139577
-0.0578138
0.0345374
0.135176
0.242802
0.358854
0.482253
0.613959
0.738873
0.842478
0.931075
1.00034
1.04068
1.06654
1.06644
1.01608
0.945536
0.901665
-0.290655
-0.219918
-0.154442
-0.0733324
0.0188663
0.119167
0.227003
0.342638
0.465513
0.596486
0.720761
0.823873
0.911822
0.988217
0.993313
1.00594
0.968412
0.903171
0.826834
0.783943
-0.252025
-0.235934
-0.176178
-0.0952962
-0.00393676
0.0961134
0.202957
0.317786
0.439436
0.568582
0.690223
0.790876
0.870214
0.947529
0.942811
0.837878
0.735727
0.664588
0.591665
0.625666
-0.283533
-0.254052
-0.193365
-0.113103
-0.0216716
0.0780549
0.185086
0.299213
0.419692
0.546855
0.665391
0.761899
0.833576
0.874037
0.829738
0.68688
0.560596
0.470292
0.37099
0.424423
-0.307857
-0.275421
-0.213456
-0.132899
-0.0413761
0.0582142
0.165107
0.278334
0.397323
0.521962
0.636635
0.727479
0.789515
0.798495
0.696353
0.524259
0.370809
0.251056
0.119182
0.154006
-0.33168
-0.297678
-0.234489
-0.153065
-0.0613499
0.0381162
0.144479
0.256689
0.374012
0.495804
0.60584
0.690335
0.737219
0.714947
0.559928
0.362621
0.169717
-0.0040307
-0.198544
-0.211689
-0.354853
-0.320434
-0.256338
-0.17415
-0.0822026
0.0170905
0.122814
0.23391
0.34934
0.467954
0.57281
0.650082
0.679777
0.622737
0.43036
0.217568
-0.00414238
-0.200654
-0.451888
-0.767975
-0.378319
-0.343902
-0.279273
-0.196561
-0.104365
-0.00518656
0.099979
0.209946
0.323405
0.438636
0.538148
0.607223
0.619249
0.511595
0.31807
0.105683
-0.102909
-0.280223
-0.347306
-0.43761
-0.402986
-0.368541
-0.303629
-0.220642
-0.128328
-0.0293469
0.075175
0.183856
0.295051
0.406417
0.500178
0.559257
0.54637
0.404728
0.218985
0.0262166
-0.138586
-0.232243
-0.256337
-0.273189
-0.42918
-0.394671
-0.329572
-0.246474
-0.154217
-0.055589
0.0480631
0.155171
0.263708
0.370591
0.458108
0.504701
0.472871
0.305191
0.129271
-0.0372551
-0.165765
-0.203001
-0.217933
-0.219602
-0.457108
-0.422454
-0.357161
-0.274041
-0.181969
-0.0839039
0.0186435
0.123862
0.229324
0.331163
0.41164
0.445103
0.395776
0.211925
0.0455715
-0.102937
-0.183093
-0.198994
-0.20042
-0.200424
-0.486814
-0.451898
-0.386411
-0.303324
-0.211583
-0.114261
-0.0130643
0.0899394
0.191921
0.288228
0.360672
0.383031
0.2987
0.125489
-0.0324688
-0.154529
-0.189122
-0.19145
-0.191749
-0.191225
-0.518004
-0.482892
-0.417201
-0.33422
-0.242949
-0.146579
-0.0469986
0.0534655
0.151554
0.241899
0.305859
0.311432
0.203934
0.0444201
-0.0959422
-0.17443
-0.184113
-0.186356
-0.187121
-0.186944
-0.550102
-0.514893
-0.449268
-0.366493
-0.275858
-0.180669
-0.0829701
0.0146172
0.108449
0.19245
0.248131
0.236333
0.116652
-0.0285968
-0.14737
-0.170552
-0.183141
-0.185265
-0.184462
-0.184092
-0.582664
-0.547413
-0.482125
-0.399734
-0.309935
-0.216173
-0.120654
-0.0262646
0.0629647
0.140534
0.187084
0.163598
0.0318405
-0.0980495
-0.185939
-0.215262
-0.196269
-0.185653
-0.183082
-0.182302
-0.614841
-0.579813
-0.514937
-0.433298
-0.344614
-0.252574
-0.15954
-0.0686376
0.0156607
0.0869905
0.123604
0.0951744
-0.0457804
-0.165892
-0.217028
-0.203285
-0.199493
-0.195013
-0.190195
-0.187792
-0.645063
-0.610938
-0.546827
-0.466287
-0.379092
-0.289112
-0.198899
-0.111732
-0.0325669
0.0324664
0.0630819
0.0231273
-0.110668
-0.242479
-0.291649
-0.269524
-0.231137
-0.206667
-0.197907
-0.19516
-0.671911
-0.638697
-0.576697
-0.497566
-0.412318
-0.32478
-0.237753
-0.154572
-0.0804547
-0.0221256
0.00895805
-0.0495164
-0.160278
-0.278576
-0.324553
-0.291744
-0.25722
-0.236153
-0.228567
-0.225455
-0.693387
-0.662012
-0.602403
-0.525722
-0.442978
-0.358365
-0.274855
-0.195943
-0.126639
-0.0752731
-0.0424967
-0.107867
-0.185233
-0.210597
-0.288471
-0.316147
-0.356181
-0.368888
-0.3601
-0.351607
-0.707509
-0.67877
-0.622425
-0.548957
-0.469499
-0.388421
-0.308783
-0.2343
-0.169884
-0.124608
-0.0928354
-0.161811
-0.208197
-0.195306
-0.242925
-0.432426
-0.549932
-0.571268
-0.555103
-0.550075
-0.711814
-0.686976
-0.634935
-0.565558
-0.490148
-0.413267
-0.337866
-0.267854
-0.20874
-0.168455
-0.141137
-0.244005
-0.342628
-0.420113
-0.463135
-0.547828
-0.620603
-0.630085
-0.633882
-0.636704
-0.704646
-0.68437
-0.637933
-0.573972
-0.503415
-0.431224
-0.360279
-0.294587
-0.240535
-0.206437
-0.196303
-0.361559
-0.513599
-0.451714
-0.362576
-0.554907
-0.725264
-0.734138
-0.737005
-0.737332
-0.684088
-0.668266
-0.629871
-0.573023
-0.508215
-0.440967
-0.374241
-0.312116
-0.261645
-0.234026
-0.250864
-0.443222
-0.739777
-1.00518
-1.17815
-1.42137
-1.31598
-1.08724
-0.942818
-0.939945
-0.651708
-0.641068
-0.611107
-0.562847
-0.504315
-0.44185
-0.37851
-0.318174
-0.26774
-0.240672
-0.265438
-0.485925
-1.05572
-1.90279
-2.4951
-2.73933
-2.59271
-2.17546
-1.8177
-1.63491
-0.612411
-0.606254
-0.585426
-0.545502
-0.493194
-0.434398
-0.372727
-0.311495
-0.256176
-0.219541
-0.23478
-0.398394
-0.75588
-1.15626
-1.48091
-1.61795
-1.5115
-1.27735
-1.05392
-0.941351
-0.573274
-0.569844
-0.55778
-0.525675
-0.477584
-0.420915
-0.358555
-0.292571
-0.227796
-0.16604
-0.125942
-0.088636
0.00295365
0.240928
0.5335
0.842513
1.1022
1.282
1.39508
1.44241
-0.540681
-0.538643
-0.532423
-0.507721
-0.462764
-0.404898
-0.339395
-0.265928
-0.185158
-0.0970028
0.00946307
0.151729
0.503425
1.04636
1.64064
2.17578
2.57356
2.80596
2.90365
2.93099
-0.511448
-0.510844
-0.509168
-0.492638
-0.45064
-0.39063
-0.320164
-0.240231
-0.148704
-0.0442621
0.0754485
0.200722
0.492623
1.02084
1.57812
2.07355
2.43542
2.64838
2.74867
2.77834
-0.487098
-0.486807
-0.48668
-0.477089
-0.439818
-0.378321
-0.303444
-0.219027
-0.125275
-0.0183792
0.0916452
0.211991
0.38598
0.827621
1.29501
1.69564
2.00217
2.18288
2.26473
2.28758
-0.465821
-0.464602
-0.4643
-0.460355
-0.428362
-0.365557
-0.28761
-0.201679
-0.109481
-0.00580451
0.0997947
0.208201
0.334687
0.615625
0.986
1.2883
1.51553
1.64888
1.70907
1.72477
-0.455387
-0.454861
-0.456404
-0.45308
-0.418158
-0.349554
-0.268295
-0.182929
-0.0937346
0.00376742
0.0979455
0.18699
0.271257
0.460748
0.710868
0.924015
1.08396
1.17716
1.21882
1.22894
-0.441964
-0.445368
-0.449864
-0.442916
-0.399881
-0.323944
-0.240757
-0.159148
-0.0777647
0.00769545
0.0884422
0.15927
0.229888
0.34346
0.512283
0.655323
0.761109
0.822642
0.848869
0.854747
-0.37826
-0.384868
-0.390972
-0.381908
-0.339215
-0.270215
-0.197657
-0.127634
-0.0588415
0.0123212
0.0787414
0.133832
0.186227
0.254947
0.364486
0.459276
0.527455
0.566135
0.581838
0.582723
-0.243745
-0.248738
-0.253174
-0.247785
-0.221647
-0.180821
-0.134559
-0.0858492
-0.0351761
0.0192054
0.0685409
0.107069
0.14248
0.18406
0.253206
0.317094
0.360996
0.386096
0.395415
0.395508
-0.0889878
-0.0912796
-0.0951193
-0.0978214
-0.0935548
-0.0829749
-0.0646256
-0.0399211
-0.00885541
0.0276684
0.0606515
0.0853685
0.106901
0.1321
0.17509
0.216265
0.245703
0.261759
0.267963
0.267201
0.0260488
0.0251106
0.0214996
0.0133583
0.00210894
-0.00513543
-0.00569996
0.0015038
0.0166511
0.0380013
0.0575035
0.0697471
0.0776132
0.0929406
0.123145
0.1514
0.17032
0.179699
0.182665
0.181548
0.0874742
0.0868829
0.0834302
0.0740979
0.0596168
0.0456844
0.0364239
0.0338108
0.0384004
0.0487688
0.0583289
0.0605346
0.0578652
0.0692964
0.0936507
0.113123
0.124485
0.129084
0.130058
0.128988
0.111255
0.110747
0.107949
0.100301
0.0878084
0.0743714
0.0633212
0.0568011
0.0559417
0.0599794
0.0639456
0.06182
0.055582
0.0639727
0.0825863
0.0962208
0.103012
0.105148
0.105351
0.104394
0.115771
0.115339
0.113331
0.108026
0.0990494
0.0885648
0.078923
0.0721123
0.0693147
0.0709297
0.0738685
0.0731757
0.0705556
0.0799762
0.0924672
0.0992544
0.101887
0.102442
0.102223
0.101439
0.112405
0.112041
0.110668
0.107291
0.101448
0.094191
0.0869942
0.0814785
0.079016
0.0811639
0.0867545
0.092242
0.0972564
0.106856
0.114062
0.116035
0.116068
0.115577
0.115362
0.114545
0.106912
0.106612
0.105673
0.103584
0.0999837
0.0952561
0.0903227
0.0864243
0.0850327
0.0884189
0.0987737
0.113997
0.129298
0.137631
0.137624
0.136996
0.137464
0.138358
0.138352
0.137108
0.101607
0.101365
0.100689
0.0992948
0.0970705
0.0939826
0.0905887
0.0878433
0.087253
0.0916495
0.105733
0.12974
0.154332
0.161371
0.155255
0.152484
0.153669
0.15683
0.157738
0.156346
0.0970334
0.0968383
0.0963088
0.0951899
0.0934727
0.0913402
0.0887835
0.0864778
0.0855712
0.0889666
0.10252
0.129216
0.157732
0.161824
0.15282
0.152344
0.15703
0.162179
0.163212
0.161284
0.0930817
0.0929317
0.092529
0.0915489
0.0900404
0.0880068
0.0856701
0.0829957
0.0805262
0.0798709
0.0860256
0.104276
0.125913
0.124425
0.116812
0.120989
0.131359
0.13956
0.139973
0.137524
0.0893655
0.0892476
0.088958
0.088149
0.0867634
0.0847811
0.0819519
0.0785882
0.0736664
0.0665516
0.058169
0.0541243
0.0532377
0.0466526
0.0487142
0.0604082
0.0728832
0.079278
0.0794218
0.0777725
0.0856066
0.0855296
0.0853793
0.0848756
0.0834935
0.0817894
0.0790285
0.0747196
0.0675307
0.0535565
0.0279326
-0.00891711
-0.0462143
-0.0523812
-0.0359677
-0.0171855
-0.00561209
-0.00227549
-0.0023175
-0.00321659
0.0813143
0.0812769
0.0812932
0.0812299
0.0806254
0.0790703
0.076821
0.0728661
0.0649383
0.0468431
0.00724028
-0.0634367
-0.124893
-0.1278
-0.1041
-0.0883365
-0.0845446
-0.0841447
-0.0841182
-0.0845286
0.0762098
0.0761766
0.0762796
0.0763647
0.0764987
0.0765647
0.0759189
0.0739261
0.0681227
0.0516514
0.0142707
-0.0614972
-0.126104
-0.129341
-0.122352
-0.130139
-0.142265
-0.149152
-0.147715
-0.146367
0.069971
0.070037
0.0705926
0.071744
0.0731893
0.075007
0.0766959
0.0778281
0.0772051
0.0669568
0.0440173
-0.00905356
-0.0544281
-0.073078
-0.0910924
-0.124159
-0.153388
-0.166396
-0.166719
-0.165493
0.0608105
0.0609716
0.0618303
0.0639024
0.0667915
0.0707106
0.0759448
0.0817381
0.0871961
0.0904076
0.0854207
0.063014
0.0388858
0.00514857
-0.0410116
-0.0879711
-0.123604
-0.140117
-0.141173
-0.13885
0.0470027
0.0472939
0.0485863
0.0514119
0.0554923
0.0611959
0.0690144
0.0797242
0.0921414
0.106263
0.116852
0.118251
0.109751
0.0633604
0.0105451
-0.029175
-0.0529516
-0.0656352
-0.0689691
-0.0675398
0.0280097
0.0282329
0.0297916
0.0327572
0.0369909
0.0429078
0.0511361
0.0625886
0.0794059
0.0974099
0.112978
0.120046
0.117431
0.071751
0.0327076
0.0152411
0.0112531
0.00138939
-0.00354441
-0.00340236
0.00666745
0.00615148
0.00499183
0.00315658
0.0031881
0.00433075
0.00548873
0.00841102
0.0161854
0.030607
0.040926
0.0538322
0.0550983
0.0349983
0.0255939
0.0167512
0.00962103
0.00479691
0.0110635
0.0117967
0.038153
0.213741
0.418898
0.595798
0.738095
0.851337
0.945637
1.02535
1.06102
1.03788
0.35799
0.484216
0.619488
0.736673
0.835856
0.918301
0.985033
1.03228
1.05608
1.06799
0.586796
0.673083
0.765359
0.847187
0.917644
0.976613
1.02344
1.05761
1.08218
1.1
0.753594
0.814704
0.879423
0.938615
0.990183
1.03393
1.06979
1.09833
1.12164
1.13984
0.883172
0.927967
0.975234
1.02039
1.0603
1.09509
1.12482
1.14949
1.17021
1.18799
0.98985
1.02369
1.06273
1.09919
1.13259
1.16247
1.18854
1.21041
1.22848
1.2458
1.08389
1.11315
1.14779
1.18048
1.21092
1.2385
1.26258
1.28254
1.29821
1.31528
1.17342
1.20299
1.23741
1.2698
1.29971
1.32657
1.34965
1.3683
1.38179
1.39883
1.26935
1.30271
1.33964
1.37346
1.40371
1.43007
1.45216
1.46954
1.48149
1.4989
1.38477
1.42263
1.46144
1.49586
1.52533
1.55019
1.57065
1.58661
1.59813
1.61621
1.52997
1.56862
1.60477
1.63553
1.66129
1.68345
1.70255
1.71813
1.73059
1.7486
1.70507
1.73685
1.76307
1.78553
1.80555
1.82431
1.84206
1.85856
1.87393
1.89201
1.89376
1.91102
1.92612
1.94238
1.95831
1.97286
1.98608
2.00003
2.01758
2.03774
2.07563
2.08512
2.09668
2.1075
2.1168
2.1264
2.1372
2.14858
2.15996
2.17532
2.28281
2.28649
2.27156
2.25675
2.2505
2.25619
2.27468
2.305
2.33718
2.36384
2.58913
2.45428
2.37766
2.33531
2.3179
2.32186
2.34927
2.40569
2.50831
2.73268
0.872516
0.870384
0.865898
0.857267
0.845034
0.832893
0.822645
0.81472
0.809058
0.805744
0.805312
0.807966
0.813002
0.820172
0.829522
0.841034
0.853665
0.864686
0.870791
0.873839
0.796983
0.802828
0.809163
0.813648
0.816107
0.815768
0.813011
0.809171
0.805616
0.803289
0.803056
0.805167
0.808757
0.812989
0.816754
0.818606
0.817647
0.814148
0.808972
0.802346
0.788591
0.790887
0.794286
0.797274
0.799338
0.800818
0.801549
0.801197
0.800122
0.799168
0.799248
0.800579
0.802314
0.803555
0.803684
0.802756
0.801178
0.798819
0.79554
0.792613
0.783121
0.784207
0.786036
0.788405
0.790417
0.791827
0.792822
0.793533
0.793878
0.79402
0.794404
0.795101
0.795603
0.795591
0.795116
0.794219
0.792712
0.790598
0.78849
0.7871
0.777974
0.778637
0.779741
0.781438
0.783207
0.784821
0.786088
0.787059
0.787876
0.788572
0.789176
0.789595
0.789674
0.789412
0.788767
0.787649
0.78617
0.784586
0.783241
0.782454
0.77307
0.77353
0.774313
0.775605
0.777081
0.77858
0.780016
0.781266
0.782328
0.783275
0.784042
0.784448
0.784451
0.784055
0.783255
0.782181
0.780988
0.779801
0.778852
0.778328
0.768335
0.768679
0.769288
0.770352
0.771637
0.772993
0.774401
0.775797
0.77709
0.778244
0.779176
0.779669
0.779665
0.779231
0.778499
0.777613
0.776671
0.775733
0.775019
0.774635
0.763719
0.763986
0.764478
0.765387
0.76655
0.767831
0.769193
0.770628
0.77208
0.773456
0.774591
0.775215
0.775285
0.774962
0.774397
0.773694
0.772926
0.772194
0.771651
0.771357
0.75915
0.75936
0.759769
0.760571
0.761659
0.762892
0.76424
0.765709
0.767271
0.76885
0.770227
0.771056
0.771315
0.771185
0.770808
0.770283
0.769684
0.769118
0.768705
0.768475
0.754554
0.754722
0.755072
0.755804
0.756851
0.758065
0.759436
0.760971
0.762661
0.764456
0.766119
0.767237
0.767756
0.767858
0.767681
0.767334
0.766903
0.766474
0.766167
0.765984
0.749857
0.749989
0.750297
0.750989
0.752024
0.753264
0.754698
0.756348
0.758217
0.760267
0.762277
0.763773
0.764611
0.764971
0.76501
0.76484
0.764564
0.764265
0.764044
0.7639
0.744993
0.745096
0.745373
0.74605
0.747111
0.748421
0.749963
0.751786
0.753914
0.756323
0.758777
0.760704
0.761893
0.76254
0.762812
0.762831
0.762705
0.762524
0.762376
0.762263
0.739896
0.739973
0.740232
0.740913
0.742031
0.743448
0.745137
0.747173
0.749613
0.752456
0.75546
0.757925
0.759558
0.760563
0.761117
0.761355
0.761382
0.761314
0.761234
0.761148
0.734485
0.734536
0.734782
0.735487
0.73669
0.738249
0.740143
0.742467
0.745298
0.748686
0.752365
0.755491
0.757661
0.759085
0.759962
0.760456
0.760666
0.760728
0.760713
0.76065
0.728665
0.72869
0.728931
0.72968
0.731003
0.732756
0.734921
0.737627
0.74098
0.745047
0.74956
0.753504
0.756321
0.758231
0.75947
0.76023
0.760665
0.760861
0.760915
0.760875
0.72234
0.72235
0.722585
0.723377
0.724844
0.726828
0.729328
0.732498
0.736499
0.741443
0.746995
0.751902
0.755496
0.758034
0.759742
0.760829
0.761535
0.761889
0.762014
0.761996
0.715284
0.715264
0.715522
0.716387
0.718016
0.720266
0.723182
0.726934
0.731723
0.737701
0.744521
0.750667
0.755228
0.758503
0.760796
0.762379
0.763413
0.763963
0.764172
0.764172
0.707258
0.707212
0.707488
0.708452
0.7103
0.712927
0.716392
0.720918
0.726765
0.734113
0.7425
0.750064
0.75574
0.75989
0.762874
0.765011
0.766439
0.767236
0.76754
0.767553
0.697875
0.69781
0.698129
0.699232
0.701349
0.704438
0.708587
0.714068
0.721191
0.73018
0.740493
0.749851
0.756925
0.762153
0.765994
0.768795
0.770717
0.771808
0.772209
0.772226
0.686545
0.686461
0.686859
0.688175
0.690689
0.694436
0.699533
0.706314
0.715145
0.726253
0.738911
0.750352
0.75901
0.765466
0.770268
0.773823
0.776303
0.777702
0.7782
0.778217
0.672516
0.672413
0.672943
0.674599
0.677707
0.682389
0.688789
0.697301
0.708325
0.722067
0.737576
0.751496
0.762017
0.769899
0.775798
0.780195
0.783288
0.785006
0.785598
0.785611
0.65483
0.654707
0.655447
0.657627
0.661632
0.667687
0.675927
0.686806
0.700706
0.717746
0.736664
0.753455
0.766104
0.775569
0.782728
0.788068
0.791796
0.793834
0.794515
0.794524
0.632098
0.631965
0.633059
0.636069
0.64148
0.649589
0.660494
0.674629
0.692271
0.713384
0.73632
0.756385
0.771407
0.782667
0.791198
0.797565
0.802002
0.804371
0.805131
0.805128
0.602084
0.601983
0.603723
0.608154
0.615888
0.627213
0.642051
0.660657
0.683115
0.709157
0.736723
0.760431
0.778057
0.791269
0.801301
0.808854
0.814035
0.816712
0.817526
0.8175
0.560682
0.560759
0.563922
0.571294
0.583252
0.599827
0.620462
0.645101
0.673577
0.705417
0.73816
0.765796
0.786171
0.80145
0.813118
0.821951
0.827885
0.830793
0.831621
0.83156
0.500096
0.501343
0.509053
0.522913
0.542615
0.56751
0.596264
0.628601
0.664225
0.702566
0.740853
0.772571
0.795769
0.813168
0.826515
0.836616
0.843208
0.846291
0.847036
0.84693
0.427651
0.42963
0.444254
0.468148
0.498748
0.53341
0.571096
0.611713
0.655082
0.700708
0.745585
0.782571
0.809715
0.830221
0.84597
0.857665
0.865295
0.868799
0.869739
0.869736
0.353102
0.359676
0.381075
0.415077
0.455856
0.500093
0.54669
0.595624
0.646812
0.699833
0.751486
0.793954
0.825232
0.849028
0.867458
0.881184
0.889881
0.893129
0.893967
0.894124
0.292824
0.301353
0.327459
0.368345
0.416936
0.469234
0.523808
0.580487
0.639102
0.699182
0.757266
0.804821
0.839776
0.866284
0.88658
0.901554
0.910755
0.914906
0.916415
0.916664
0.243864
0.252947
0.28251
0.328369
0.382938
0.441695
0.502958
0.566447
0.631804
0.698453
0.762513
0.814689
0.852816
0.881486
0.903324
0.919452
0.929788
0.934642
0.936445
0.93674
0.203042
0.21233
0.244193
0.293822
0.353158
0.417199
0.484128
0.55355
0.624938
0.697565
0.767112
0.823425
0.864294
0.89481
0.917913
0.934941
0.946184
0.951604
0.953629
0.953944
0.16782
0.177182
0.21076
0.263397
0.326542
0.395014
0.466855
0.541519
0.618344
0.696442
0.771012
0.831066
0.87431
0.906333
0.930396
0.948173
0.959887
0.96582
0.967989
0.968331
0.136514
0.145905
0.180771
0.235893
0.302208
0.374456
0.450602
0.529967
0.61176
0.694912
0.774163
0.837658
0.883028
0.916328
0.941149
0.959396
0.971449
0.977734
0.980014
0.980376
0.107829
0.117275
0.153243
0.210461
0.279456
0.354975
0.434933
0.518549
0.604911
0.692807
0.776501
0.843278
0.890648
0.925113
0.9506
0.969183
0.981489
0.987951
0.990226
0.990606
0.0809118
0.0904115
0.127387
0.18642
0.257787
0.336178
0.419528
0.507002
0.597599
0.689981
0.777977
0.847988
0.897342
0.932955
0.959068
0.977972
0.990387
0.996939
0.999206
0.99949
0.0551986
0.0648197
0.102722
0.163285
0.236831
0.317774
0.404171
0.495157
0.589679
0.686327
0.778546
0.851835
0.903263
0.940104
0.966887
0.986119
0.998676
1.0052
1.00746
1.00768
0.0302657
0.0400942
0.0787952
0.140885
0.216332
0.299571
0.388717
0.482899
0.581066
0.681771
0.778167
0.854859
0.908521
0.946738
0.974297
0.993911
1.00661
1.01311
1.01528
1.01551
0.00590481
0.0159722
0.0554662
0.119015
0.196162
0.281454
0.373077
0.47017
0.571701
0.676268
0.77681
0.857063
0.913193
0.952974
0.981447
1.00153
1.01438
1.02082
1.02287
1.02305
-0.0179388
-0.00763325
0.0327083
0.0975406
0.176243
0.263384
0.357224
0.456947
0.56157
0.669781
0.774426
0.858422
0.917286
0.958875
0.988417
1.00902
1.022
1.02832
1.0302
1.03031
-0.0413728
-0.0307315
0.0103504
0.0764236
0.156546
0.245347
0.341165
0.443248
0.550689
0.662307
0.770958
0.858852
0.920762
0.964468
0.995265
1.01644
1.02948
1.0356
1.03725
1.03726
-0.0643425
-0.0534017
-0.0115328
0.0556666
0.137087
0.227369
0.324948
0.429125
0.539093
0.653844
0.766352
0.858251
0.923547
0.969755
1.00206
1.02383
1.03681
1.04256
1.04393
1.04386
-0.0868691
-0.0755982
-0.0329162
0.0353183
0.117905
0.209498
0.308626
0.414648
0.52685
0.644425
0.760573
0.856527
0.92551
0.974681
1.0089
1.03135
1.04402
1.04916
1.05017
1.05001
-0.108752
-0.0972254
-0.0537656
0.0154261
0.0990624
0.191816
0.292275
0.399897
0.514043
0.634121
0.753618
0.853575
0.926482
0.979121
1.01585
1.03928
1.05136
1.05541
1.05587
1.05563
-0.130121
-0.118233
-0.0740409
-0.00397297
0.080601
0.17437
0.275993
0.384963
0.500771
0.623028
0.745507
0.849288
0.926261
0.982838
1.02289
1.04804
1.05948
1.06168
1.06103
1.06065
-0.150799
-0.138583
-0.0936994
-0.0228194
0.0626066
0.157249
0.259864
0.369971
0.487152
0.611222
0.736293
0.843591
0.924634
0.985465
1.02969
1.05794
1.06967
1.06948
1.06629
1.06485
-0.170839
-0.158311
-0.112682
-0.041053
0.0451236
0.140524
0.243976
0.355005
0.473304
0.598851
0.726072
0.836427
0.921411
0.986535
1.03547
1.06851
1.08311
1.08235
1.0751
1.06534
-0.190152
-0.177373
-0.131083
-0.0588253
0.0279412
0.12391
0.227983
0.339649
0.458757
0.585383
0.714274
0.827164
0.916003
0.985439
1.03906
1.07824
1.09911
1.10136
1.0917
1.08324
-0.208684
-0.195679
-0.1489
-0.0760911
0.011074
0.107403
0.211908
0.323888
0.443476
0.570718
0.700735
0.815473
0.907737
0.981435
1.03801
1.08158
1.10544
1.11293
1.07618
1.0228
-0.226146
-0.212453
-0.166019
-0.0927829
-0.00558147
0.0908697
0.195706
0.307844
0.427526
0.554928
0.685416
0.801216
0.895642
0.974206
1.03034
1.06735
1.09224
1.081
1.02412
0.959496
-0.242866
-0.228264
-0.182251
-0.108264
-0.0216849
0.0747909
0.179154
0.291578
0.411055
0.538189
0.668346
0.784264
0.878648
0.964875
1.01445
1.06639
1.03722
0.996256
0.926805
0.858423
-0.228985
-0.210865
-0.161947
-0.0835407
0.00806018
0.108381
0.218144
0.333519
0.456022
0.586469
0.710154
0.812853
0.898912
0.990706
1.03825
0.958681
0.913889
0.85155
0.778806
0.730558
-0.253491
-0.237186
-0.201309