/*--------------------------------*- C++ -*----------------------------------*\
  =========                 |
  \\      /  F ield         | OpenFOAM: The Open Source CFD Toolbox
   \\    /   O peration     | Website:  https://openfoam.org
    \\  /    A nd           | Version:  10
     \\/     M anipulation  |
\*---------------------------------------------------------------------------*/
FoamFile
{
    format      ascii;
    class       volScalarField;
    location    "1.5";
    object      p;
}
// * * * * * * * * * * * * * * * * * * * * * * * * * * * * * * * * * * * * * //

dimensions      [1 -1 -2 0 0 0 0];

internalField   nonuniform List<scalar> 
16128
(
1
1
1
1
1
1
1
1
1
1
1
1
1
1
1
1
1
1
1
1
1
1
1
1
1
3.32248
9.89919
10.6816
10.7459
10.8519
10.9632
11.0854
11.2049
11.312
11.3999
11.4687
11.5283
11.5885
11.6543
11.7309
11.8175
11.8926
11.9555
12.0092
12.0454
12.0612
12.081
12.1027
1
1
1
1
1
1
1
1
1
1
1
1
1
1
1
1
1
1
1
1
1
1
1
1
1
3.26659
9.82996
10.673
10.7402
10.8488
10.9595
11.0805
11.1986
11.3041
11.3911
11.4595
11.5194
11.5798
11.6442
11.7205
11.8073
11.882
11.9423
11.992
12.0271
12.0466
12.0648
12.0914
1
1
1
1
1
1
1
1
1
1
1
1
1
1
1
1
1
1
1
1
1
1
1
1
1
3.12805
9.72965
10.6565
10.7236
10.8376
10.9485
11.069
11.1859
11.2895
11.3757
11.4437
11.5044
11.5656
11.6295
11.7069
11.794
11.866
11.9214
11.9667
12.0016
12.0254
12.0394
12.0704
1
1
1
1
1
1
1
1
1
1
1
1
1
1
1
1
1
1
1
1
1
1
1
1
1
2.91147
9.57418
10.6399
10.7083
10.827
10.9374
11.056
11.1695
11.2693
11.3542
11.4218
11.4833
11.5448
11.6082
11.686
11.7722
11.8413
11.8933
11.9348
11.9658
11.993
11.9984
12.048
1
1
1
1
1
1
1
1
1
1
1
1
1
1
1
1
1
1
1
1
1
1
1
1
1
2.64973
9.36447
10.62
10.6849
10.8059
10.9153
11.0319
11.1418
11.2408
11.3246
11.3932
11.4565
11.5189
11.5826
11.6593
11.7431
11.8088
11.8586
11.8994
11.9308
11.9661
11.9331
12.0016
1
1
1
1
1
1
1
1
1
1
1
1
1
1
1
1
1
1
1
1
1
1
1
1
1
2.33966
9.0736
10.6079
10.6689
10.7882
10.8918
11.0029
11.1066
11.2048
11.2905
11.362
11.4269
11.4892
11.5521
11.6253
11.7044
11.7656
11.813
11.8531
11.8815
11.9161
11.8632
11.947
1
1
1
1
1
1
1
1
1
1
1
1
1
1
1
1
1
1
1
1
1
1
1
1
1
1.99987
8.69255
10.6023
10.6576
10.7693
10.8655
10.9686
11.0652
11.1631
11.2501
11.324
11.3895
11.4509
11.5131
11.5817
11.6548
11.7101
11.754
11.7945
11.822
11.8517
11.8044
11.8706
1
1
1
1
1
1
1
1
1
1
1
1
1
1
1
1
1
1
1
1
1
1
1
1
1
1.65036
8.19111
10.5923
10.6353
10.7402
10.8314
10.9286
11.0191
11.1127
11.2014
11.2792
11.3458
11.4064
11.4658
11.5279
11.5949
11.6457
11.6851
11.7193
11.7364
11.7639
11.7595
11.7604
1
1
1
1
1
1
1
1
1
1
1
1
1
1
1
1
1
1
1
1
1
1
1
1
1
1.32152
7.59133
10.5751
10.6069
10.7082
10.8029
10.8955
10.9779
11.0622
11.1443
11.2189
11.2849
11.344
11.3999
11.4559
11.5179
11.566
11.6019
11.6311
11.6454
11.6662
11.6633
11.653
1
1
1
1
1
1
1
1
1
1
1
1
1
1
1
1
1
1
1
1
1
1
1
1
1
1.02234
6.82519
10.5057
10.5604
10.6471
10.7398
10.827
10.9072
10.9888
11.0686
11.1442
11.2137
11.2755
11.3311
11.3827
11.4367
11.4771
11.5044
11.5235
11.5321
11.5426
11.5454
11.5224
1
1
1
1
1
1
1
1
1
1
1
1
1
1
1
1
1
1
1
1
1
1
1
1
1
1.0002
5.86612
10.3305
10.4909
10.5833
10.6803
10.7648
10.8422
10.92
10.9967
11.0694
11.1349
11.1899
11.2365
11.2769
11.3211
11.3551
11.3775
11.3896
11.3966
11.393
11.3971
11.3675
1
1
1
1
1
1
1
1
1
1
1
1
1
1
1
1
1
1
1
1
1
1
1
1
1
1
4.82765
10.0756
10.4286
10.5325
10.6314
10.7127
10.7844
10.8547
10.9254
10.9926
11.0533
11.1028
11.1424
11.1703
11.2002
11.2229
11.2367
11.2391
11.2403
11.2104
11.2067
11.1822
1
1
1
1
1
1
1
1
1
1
1
1
1
1
1
1
1
1
1
1
1
1
1
1
1
1
3.78313
9.69077
10.3789
10.4776
10.5763
10.6561
10.7254
10.7905
10.8549
10.9149
10.9683
11.0097
11.0404
11.0527
11.0664
11.0751
11.0755
11.0577
11.0289
10.9675
10.9394
10.9513
1
1
1
1
1
1
1
1
1
1
1
1
1
1
1
1
1
1
1
1
1
1
1
1
1
1
2.71336
9.01812
10.3863
10.4447
10.5346
10.6073
10.6696
10.7256
10.7802
10.8313
10.8767
10.9109
10.9328
10.9289
10.9232
10.9108
10.8876
10.85
10.8023
10.7284
10.6345
10.5454
1
1
1
1
1
1
1
1
1
1
1
1
1
1
1
1
1
1
1
1
1
1
1
1
1
1
1.72856
8.30607
10.4435
10.3489
10.4343
10.5162
10.5912
10.6505
10.6978
10.7378
10.7712
10.7962
10.8063
10.787
10.7608
10.7251
10.6741
10.6018
10.4949
10.3313
10.1276
10.0472
1
1
1
1
1
1
1
1
1
1
1
1
1
1
1
1
1
1
1
1
1
1
1
1
1
1
1.06368
7.17523
10.3461
10.282
10.3788
10.4566
10.5167
10.5635
10.5974
10.6247
10.6465
10.6636
10.6616
10.631
10.5835
10.5212
10.4309
10.3064
10.1319
9.92162
9.60565
9.54073
1
1
1
1
1
1
1
1
1
1
1
1
1
1
1
1
1
1
1
1
1
1
1
1
1
1
1.00051
5.6733
9.92847
10.1307
10.2607
10.3431
10.3962
10.4378
10.4675
10.4869
10.4997
10.5068
10.4933
10.4508
10.3811
10.2921
10.1625
9.9935
9.72552
9.34269
8.44561
6.40854
1
1
1
1
1
1
1
1
1
1
1
1
1
1
1
1
1
1
1
1
1
1
1
1
1
1
0.999998
4.24774
9.54588
10.0675
10.1844
10.2743
10.3139
10.3406
10.3524
10.3557
10.3538
10.3459
10.3187
10.2599
10.1635
10.0456
9.87277
9.64074
9.26981
8.64481
7.66857
5.41375
1
1
1
1
1
1
1
1
1
1
1
1
1
1
1
1
1
1
1
1
1
1
1
1
1
1
1
2.75242
8.80613
10.0418
10.1021
10.1738
10.2114
10.233
10.2349
10.2243
10.2054
10.1796
10.1342
10.0586
9.93693
9.7873
9.57456
9.28252
8.83658
8.15911
7.04577
5.12154
1
1
1
1
1
1
1
1
1
1
1
1
1
1
1
1
1
1
1
1
1
1
1
1
1
1
1
1.46025
7.84748
10.2154
10.1089
10.0837
10.0975
10.1085
10.1034
10.0867
10.0552
10.0143
9.95159
9.85991
9.71411
9.5302
9.28074
8.94836
8.45158
7.77194
6.61822
5.10474
1
1
1
1
1
1
1
1
1
1
1
1
1
1
1
1
1
1
1
1
1
1
1
1
1
1
1
1.0234
6.347
9.79553
9.86018
9.91029
9.946
9.96302
9.96055
9.94362
9.90188
9.8488
9.77098
9.6635
9.50097
9.28919
9.01032
8.64999
8.14526
7.45942
6.40093
5.19805
1
1
1
1
1
1
1
1
1
1
1
1
1
1
1
1
1
1
1
1
1
1
1
1
1
1
1
1
4.40846
9.40412
9.79266
9.83412
9.86355
9.86194
9.85018
9.82415
9.76781
9.6977
9.601
9.47496
9.29858
9.06756
8.77028
8.38872
7.89024
7.22506
6.3094
5.32121
1
1
1
1
1
1
1
1
1
1
1
1
1
1
1
1
1
1
1
1
1
1
1
1
1
1
1
0.999996
2.49581
8.59119
9.78635
9.75439
9.77298
9.7637
9.74347
9.70459
9.63568
9.5512
9.4381
9.29622
9.10811
8.86579
8.5608
8.17223
7.68119
7.05972
6.28068
5.44565
1
1
1
1
1
1
1
1
1
1
1
1
1
1
1
1
1
1
1
1
1
1
1
1
1
1
1
0.999999
1.19487
7.25394
9.82562
9.67727
9.65475
9.64816
9.6224
9.57693
9.50286
9.40854
9.28278
9.12757
8.92832
8.67761
8.3716
7.98878
7.5115
6.94332
6.26458
5.55683
1
1
1
1
1
1
1
1
1
1
1
1
1
1
1
1
1
1
1
1
1
1
1
1
1
1
1
1
1.00349
5.28634
9.3013
9.49072
9.53501
9.53143
9.49989
9.44788
9.36893
9.2701
9.14016
8.97678
8.76836
8.51057
8.20771
7.83099
7.37927
6.85607
6.25674
5.65468
1
1
1
1
1
1
1
1
1
1
1
1
1
1
1
1
1
1
1
1
1
1
1
1
1
1
1
1
0.999979
2.93309
8.63565
9.457
9.46821
9.46425
9.41692
9.34919
9.25432
9.14082
8.99973
8.8288
8.61775
8.35855
8.05665
7.68519
7.27109
6.78745
6.25521
5.7283
1
1
1
1
1
1
1
1
1
1
1
1
1
1
1
1
1
1
1
1
1
1
1
1
1
1
1
1
0.999996
1.27651
7.28503
9.54739
9.43009
9.37557
9.3082
9.22871
9.12624
9.00659
8.86204
8.69177
8.47959
8.23327
7.9266
7.57082
7.18711
6.74144
6.27104
5.79021
1
1
1
1
1
1
1
1
1
1
1
1
1
1
1
1
1
1
1
1
1
1
1
1
1
1
1
1
0.999999
1.00677
5.1465
9.05772
9.24942
9.24971
9.18319
9.10219
9.00062
8.88075
8.73206
8.55973
8.34938
8.10867
7.81208
7.47897
7.11549
6.70531
6.28342
5.83343
1
1
1
1
1
1
1
1
1
1
1
1
1
1
1
1
1
1
1
1
1
1
1
1
1
1
1
1
1
0.999964
2.61217
8.43806
9.21836
9.14635
9.06161
8.98079
8.88245
8.76276
8.60997
8.44021
8.2309
7.99893
7.72037
7.41154
7.06522
6.68459
6.29505
5.87876
1
1
1
1
1
1
1
1
1
1
1
1
1
1
1
1
1
1
1
1
1
1
1
1
1
1
1
1
1
0.999992
1.18848
6.77665
9.12948
9.01394
8.95862
8.87543
8.77188
8.6467
8.49553
8.32884
8.12828
7.90096
7.63787
7.34859
7.02078
6.66728
6.29929
5.91617
1
1
1
1
1
1
1
1
1
1
1
1
1
1
1
1
1
1
1
1
1
1
1
1
1
1
1
1
1
0.999999
1.0027
4.07171
8.53835
8.88024
8.87448
8.81496
8.70958
8.57497
8.41874
8.24571
8.04459
7.82068
7.56951
7.29488
6.98626
6.65616
6.30704
5.95379
1
1
1
1
1
1
1
1
1
1
1
1
1
1
1
1
1
1
1
1
1
1
1
1
1
1
1
1
1
1
0.999992
1.57581
7.54667
9.02036
8.85691
8.73673
8.61746
8.48155
8.3303
8.15637
7.95958
7.74161
7.50228
7.24106
6.95176
6.64043
6.31048
5.98224
1
1
1
1
1
1
1
1
1
1
1
1
1
1
1
1
1
1
1
1
1
1
1
1
1
1
1
1
1
1
0.999998
1.02717
5.29096
8.56472
8.66392
8.62231
8.53044
8.40523
8.25794
8.08506
7.88996
7.67572
7.44424
7.19338
6.91973
6.62376
6.31481
6.00642
1
1
1
1
1
1
1
1
1
1
1
1
1
1
1
1
1
1
1
1
1
1
1
1
1
1
1
1
1
1
1
0.999984
2.31382
7.86387
8.71411
8.58105
8.46241
8.3354
8.18981
8.01847
7.82655
7.61673
7.39135
7.14979
6.8891
6.6097
6.3201
6.0265
1
1
1
1
1
1
1
1
1
1
1
1
1
1
1
1
1
1
1
1
1
1
1
1
1
1
1
1
1
1
1
0.999993
1.12222
5.94357
8.53491
8.46779
8.37141
8.25294
8.11165
7.94733
7.76317
7.56032
7.34113
7.10764
6.86011
6.59752
6.32384
6.04526
1
1
1
1
1
1
1
1
1
1
1
1
1
1
1
1
1
1
1
1
1
1
1
1
1
1
1
1
1
1
1
0.999999
1.00105
2.83119
7.83854
8.44136
8.32636
8.19823
8.05269
7.89122
7.71106
7.51247
7.29949
7.07492
6.83843
6.58892
6.32877
6.06547
1
1
1
1
1
1
1
1
1
1
1
1
1
1
1
1
1
1
1
1
1
1
1
1
1
1
1
1
1
1
1
1
1
1.2185
6.09149
8.37361
8.26095
8.13715
7.99078
7.83328
7.65843
7.46638
7.26098
7.04489
6.81744
6.57911
6.33222
6.08265
1
1
1
1
1
1
1
1
1
1
1
1
1
1
1
1
1
1
1
1
1
1
1
1
1
1
1
1
1
1
1
1
1
1.00362
2.95926
7.65243
8.20468
8.08238
7.9479
7.79012
7.61651
7.42976
7.23173
7.02341
6.80406
6.57558
6.34171
6.10453
1
1
1
1
1
1
1
1
1
1
1
1
1
1
1
1
1
1
1
1
1
1
1
1
1
1
1
1
1
1
1
1
1
1.00001
1.24677
5.92038
8.17331
8.05491
7.91106
7.74533
7.57244
7.39236
7.20265
7.00236
6.79143
6.57234
6.35003
6.12569
1
1
1
1
1
1
1
1
1
1
1
1
1
1
1
1
1
1
1
1
1
1
1
1
1
1
1
1
1
1
1
1
1
1
1.00469
2.7153
7.4002
8.01286
7.85614
7.70821
7.543
7.3691
7.18455
6.99019
6.78707
6.57687
6.3632
6.14849
1
1
1
1
1
1
1
1
1
1
1
1
1
1
1
1
1
1
1
1
1
1
1
1
1
1
1
1
1
1
1
1
1
1
1.00001
1.19255
5.51042
7.93939
7.83778
7.67876
7.50981
7.33799
7.15864
6.97227
6.7795
6.58084
6.37665
6.16778
1
1
1
1
1
1
1
1
1
1
1
1
1
1
1
1
1
1
1
1
1
1
1
1
1
1
1
1
1
1
1
1
1
1
1
1.00298
2.35575
7.01387
7.8085
7.63624
7.49191
7.32678
7.15004
6.96633
6.77853
6.58789
6.39233
6.18904
1
1
1
1
1
1
1
1
1
1
1
1
1
1
1
1
1
1
1
1
1
1
1
1
1
1
1
1
1
1
1
1
1
1
1
1.00001
1.12319
4.73813
7.61096
7.6248
7.47407
7.30566
7.13095
6.95153
6.76954
6.58635
6.40024
6.20687
1
1
1
1
1
1
1
1
1
1
1
1
1
1
1
1
1
1
1
1
1
1
1
1
1
1
1
1
1
1
1
1
1
1
1
1
1.00152
1.9032
6.38535
7.64415
7.45034
7.29001
7.12417
6.9532
6.77741
6.59818
6.41667
6.23114
1
1
1
1
1
1
1
1
1
1
1
1
1
1
1
1
1
1
1
1
1
1
1
1
1
1
1
1
1
1
1
1
1
1
1
1
1
1.05724
3.58022
7.15912
7.40431
7.25857
7.11044
6.95016
6.78249
6.60707
6.42647
6.24325
1
1
1
1
1
1
1
1
1
1
1
1
1
1
1
1
1
1
1
1
1
1
1
1
1
1
1
1
1
1
1
1
1
1
1
1
1
1.00057
1.43514
5.4662
7.45406
7.28918
7.13701
6.97162
6.80525
6.63134
6.45132
6.26889
1
1
1
1
1
1
1
1
1
1
1
1
1
1
1
1
1
1
1
1
1
1
1
1
1
1
1
1
1
1
1
1
1
1
1
1
1
1
1.01487
2.49101
6.54744
7.2819
7.08901
6.94418
6.78741
6.62263
6.45153
6.27693
1
1
1
1
1
1
1
1
1
1
1
1
1
1
1
1
1
1
1
1
1
1
1
1
1
1
1
1
1
1
1
1
1
1
1
1
1
1
1.0001
1.14795
4.08026
6.98503
7.11104
6.96591
6.80733
6.64648
6.48147
6.31083
1
1
1
1
1
1
1
1
1
1
1
1
1
1
1
1
1
1
1
1
1
1
1
1
1
1
1
1
1
1
1
1
1
1
1
1
1
1
1
1.00254
1.63072
5.45903
7.13347
7.0004
6.8357
6.6728
6.50755
6.33992
1
1
1
1
1
1
1
1
1
1
1
1
1
1
1
1
1
1
1
1
1
1
1
1
1
1
1
1
1
1
1
1
1
1
1
1
1
1
1
1.00001
1.02972
2.58356
6.32027
6.98791
6.83643
6.66994
6.50938
6.34766
1
1
1
1
1
1
1
1
1
1
1
1
1
1
1
1
1
1
1
1
1
1
1
1
1
1
1
1
1
1
1
1
1
1
1
1
1
1
1
1
1.00027
1.16801
3.87552
6.6421
6.86615
6.69832
6.53411
6.37806
1
1
1
1
1
1
1
1
1
1
1
1
1
1
1
1
1
1
1
1
1
1
1
1
1
1
1
1
1
1
1
1
1
1
1
1
1
1
1
1
1
1.0033
1.55406
5.01729
6.76819
6.73669
6.57875
6.4194
1
1
1
1
1
1
1
1
1
1
1
1
1
1
1
1
1
1
1
1
1
1
1
1
1
1
1
1
1
1
1
1
1
1
1
1
1
1
1
1
1
1.00002
1.02398
2.25541
5.75952
6.72136
6.61561
6.44818
1
1
1
1
1
1
1
1
1
1
1
1
1
1
1
1
1
1
1
1
1
1
1
1
1
1
1
1
1
1
1
1
1
1
1
1
1
1
1
1
1
1
1.00021
1.10854
3.15068
6.20506
6.62873
6.48956
1
1
1
1
1
1
1
1
1
1
1
1
1
1
1
1
1
1
1
1
1
1
1
1
1
1
1
1
1
1
1
1
1
1
1
1
1
1
1
1
1
1
1
1.00181
1.31475
4.11293
6.34633
6.53055
1
1
1
1
1
1
1
1
1
1
1
1
1
1
1
1
1
1
1
1
1
1
1
1
1
1
1
1
1
1
1
1
1
1
1
1
1
1
1
1
1
1
1
1.00001
1.00947
1.69789
4.88382
6.3907
1
1
1
1
1
1
1
1
1
1
1
1
1
1
1
1
1
1
1
1
1
1
1
1
1
1
1
1
1
1
1
1
1
1
1
1
1
1
1
1
1
1
1
1
1.00006
1.03761
2.24632
5.39296
1
1
1
1
1
1
1
1
1
1
1
1
1
1
1
1
1
1
1
1
1
1
1
1
1
1
1
1
1
1
1
1
1
1
1
1
1
1
1
1
1
1
1
1
1
1.00042
1.11048
2.87105
1
1
1
1
1
1
1
1
1
1
1
1
1
1
1
1
1
1
1
1
1
1
1
1
1
1
1
1
1
1
1
1
1
1
1
1
1
1
1
1
1
1
1
1
1
1
1.002
1.2487
1
1
1
1
1
1
1
1
1
1
1
1
1
1
1
1
1
1
1
1
1
1
1
1
1
1
1
1
1
1
1
1
1
1
1
1
1
1
1
1
1
1
1
1
1
1
1.00001
1.00688
1
1
1
1
1
1
1
1
1
1
1
1
1
1
1
1
1
1
1
1
1
1
1
1
1
1
1
1
1
1
1
1
1
1
1
1
1
1
1
1
1
1
1
1
1
1
1
1.00004
1
1
1
1
1
1
1
1
1
1
1
1
1
1
1
1
1
1
1
1
1
1
1
1
1
1
1
1
1
1
1
1
1
1
1
1
1
1
1
1
1
1
1
1
1
1
1
1
1
1
1
1
1
1
1
1
1
1
1
1
1
1
1
1
1
1
1
1
1
1
1
1
1
1
1
1
1
1
1
1
1
1
1
1
1
1
1
1
1
1
1
1
1
1
1
1
1
1
1
1
1
1
1
1
1
1
1
1
1
1
1
1
1
1
1
1
1
1
1
1
1
1
1
1
1
1
1
1
1
1
1
1
1
1
1
1
1
1
1
1
1
1
1
1
1
1
1
1
1
1
1
1
1
1
1
1
1
1
1
1
1
1
1
1
1
1
1
1
1
1
1
1
1
1
1
1
1
1
1
1
1
1
1
1
1
1
1
1
1
1
1
1
1
1
1
1
1
1
1
1
1
1
1
1
1
1
1
1
1
1
1
1
1
1
1
1
1
1
1
1
1
1
1
1
1
1
1
1
1
1
1
1
1
1
1
1
1
1
1
1
1
1
1
1
1
1
1
1
1
1
1
1
1
1
1
1
1
1
1
1
1
1
1
1
1
1
1
1
1
1
1
1
1
1
1
1
1
1
1
1
1
1
1
1
1
1
1
1
1
1
1
1
1
1
1
1
1
1
1
1
1
1
1
1
1
1
1
1
1
1
1
1
1
1
1
1
1
1
1
1
1
1
1
1
1
1
1
1
1
1
1
1
1
1
1
1
1
1
1
1
1
1
1
1
1
1
1
1
1
1
1
1
1
1
1
1
1
1
1
1
1
1
1
1
1
1
1
1
1
1
1
1
1
1
1
1
1
1
1
1
1
1
1
1
1
1
1
1
1
1
1
1
1
1
1
1
1
1
1
1
1
1
1
1
1
1
1
1
1
1
1
1
1
1
1
1
1
1
1
1
1
1
1
1
1
1
1
1
1
1
1
1
1
1
1
1
1
1
1
1
1
1
1
1
1
1
1
1
1
1
1
1
1
1
1
1
1
1
1
1
1
1
1
1
1
1
1
1
1
1
1
1
1
1
1
1
1
1
1
1
1
1
1
1
1
1
1
1
1
1
1
1
1
1
1
1
1
1
1
1
1
1
1
1
1
1
1
1
1
1
1
1
1
1
1
1
1
1
1
1
1
1
1
1
1
1
1
1
1
1
1
1
1
1
1
1
1
1
1
1
1
1
1
1
1
1
1
1
1
1
1
1
1
1
1
1
1
1
1
1
1
1
1
1
1
1
1
1
1
1
1
1
1
1
1
1
1
1
1
1
1
1
1
1
1
1
1
1
1
1
1
1
1
1
1
1
1
1
1
1
1
1
1
1
1
1
1
1
1
1
1
1
1
1
1
1
1
1
1
1
1
1
1
1
1
1
1
1
1
1
1
1
1
1
1
1
1
1
1
1
1
1
1
1
1
1
1
1
1
1
1
1
1
1
1
1
1
1
1
1
1
1
1
1
1
1
1
1
1
1
1
1
1
1
1
1
1
1
1
1
1
1
1
1
1
1
1
1
1
1
1
1
1
1
1
1
1
1
1
1
1
1
1
1
1
1
1
1
1
1
1
1
1
1
1
1
1
1
1
1
1
1
1
1
1
1
1
1
1
1
1
1
1
1
1
1
1
1
1
1
1
1
1
1
1
1
1
1
1
1
1
1
1
1
1
1
1
1
1
1
1
1
1
1
1
1
1
1
1
1
1
1
1
1
1
1
1
1
1
1
1
1
1
1
1
1
1
1
1
1
1
1
1
1
1
1
1
1
1
1
1
1
1
1
1
1
1
1
1
1
1
1
1
1
1
1
1
1
1
1
1
1
1
1
1
1
1
1
1
1
1
1
1
1
1
1
1
1
1
1
1
1
1
1
1
1
1
1
1
1
1
1
1
1
1
1
1
1
1
1
1
1
1
1
1
1
1
1
1
1
1
1
1
1
1
1
1
1
1
1
1
1
1
1
1
1
1
1
1
1
1
1
1
1
1
1
1
1
1
1
1
1
1
1
1
1
1
1
1
1
1
1
1.21503
0.149286
0.0229934
0.0652678
0.0831523
0.078809
0.0937752
0.12538
0.167418
0.218089
0.283384
0.358354
0.432478
0.499296
0.589846
0.717715
0.779216
0.79654
0.846609
0.895058
0.919546
0.968802
1.0151
1.026
1.04048
1.06352
1.07633
1.06866
1.06279
1.07797
1.08769
1.09458
1.10913
1.11448
1.12296
1.1244
1.1384
1.15806
1.17508
1.18801
1.1983
1.20665
1.21177
1.21434
1.21618
1.21818
1.2213
1.22748
1.23875
1.24532
1.24678
1.2465
1.23975
1.23117
1.2295
1.2311
1.23132
1.22829
1.22378
1.21796
1.21124
1.21196
1.21307
1.21482
1.21859
1.21922
1.21694
1.21419
1.21277
1.21138
1.20674
1.20178
1.20226
1.21899
1.23885
1.24358
1.24207
1.2289
1.21048
1.20086
1.19493
1.19235
1.19897
1.20651
1.20831
1.19563
1.17297
1.15918
1.15265
1.15026
1.15884
1.17676
1.18217
1.17654
1.1543
1.13538
1.12452
1.11725
1.12079
1.14542
1.15401
1.15949
1.1629
1.14896
1.2111
1.41326
1.80573
2.40313
3.07842
3.74216
4.31372
4.6968
4.84626
5.03952
5.1088
5.02293
4.88069
4.78924
4.65914
4.57812
4.50583
4.41984
4.37511
4.32839
4.28298
4.24497
4.19967
4.15585
4.09837
4.03829
3.97463
3.93341
3.90641
3.89378
3.88478
3.86961
3.83894
3.79752
3.74974
3.71182
3.67387
3.63697
3.61053
3.58858
3.56934
3.55227
3.53373
3.50295
3.45023
3.38945
3.3353
3.28856
3.25433
3.2236
3.17808
3.11439
3.07268
3.05599
3.045
3.04349
3.05305
3.04305
2.99671
2.91656
2.85447
2.8231
2.80342
2.78881
2.77574
2.76206
2.74979
2.73213
2.70035
2.662
2.63019
2.60023
2.55742
2.51127
2.48885
2.47833
2.47349
2.47972
2.49478
2.49411
2.47712
2.44121
2.37269
2.30735
2.27152
2.25007
2.23861
2.23066
2.13378
0.968878
0.342852
0.266395
0.261505
0.225825
0.176708
0.17195
0.168348
0.181192
0.217192
0.262098
0.296687
0.321403
0.362426
0.440625
0.536569
0.606022
0.654601
0.727765
0.818225
0.895166
0.957231
0.977895
1.00102
1.02963
1.04658
1.05017
1.05398
1.07368
1.08631
1.09074
1.10428
1.11746
1.12845
1.13978
1.15221
1.16433
1.17744
1.186
1.18785
1.19028
1.19815
1.20859
1.22147
1.22885
1.22982
1.23208
1.23682
1.24168
1.23972
1.2322
1.22535
1.22251
1.22451
1.22578
1.22677
1.23145
1.2328
1.22785
1.22237
1.21896
1.21791
1.21943
1.22406
1.22742
1.22506
1.21896
1.20982
1.19964
1.19726
1.2046
1.22341
1.23961
1.24435
1.24071
1.23135
1.2098
1.19216
1.18762
1.19256
1.20555
1.20962
1.20753
1.20093
1.18233
1.15995
1.15341
1.1577
1.17053
1.17854
1.17855
1.17438
1.16042
1.13757
1.1247
1.1248
1.141
1.15325
1.15446
1.15106
1.1379
1.1435
1.21309
1.41029
1.73889
2.05724
2.32711
2.5928
2.87431
3.23263
3.61804
3.96783
4.28408
4.50225
4.68314
4.71926
4.70301
4.65028
4.5956
4.53482
4.45611
4.40179
4.34422
4.2987
4.27031
4.24401
4.19981
4.14282
4.07716
4.0089
3.95436
3.9181
3.89163
3.87077
3.8521
3.81696
3.77203
3.73501
3.70855
3.68384
3.657
3.63106
3.60909
3.58832
3.56244
3.52551
3.47438
3.42125
3.37892
3.34271
3.30827
3.27356
3.23403
3.19081
3.1501
3.10538
3.07251
3.05577
3.04039
3.02298
2.99384
2.9542
2.91792
2.88617
2.84784
2.81122
2.78823
2.77226
2.7569
2.73957
2.71869
2.69467
2.6656
2.62109
2.57363
2.53695
2.51104
2.49992
2.49292
2.49199
2.49542
2.48486
2.46099
2.42886
2.39856
2.37342
2.33885
2.28711
2.2545
2.24389
2.23058
2.89238
1.88772
1.15976
0.711109
0.601378
0.480746
0.335357
0.305557
0.320366
0.314454
0.298669
0.303088
0.319067
0.32441
0.321347
0.324715
0.351852
0.416693
0.499422
0.576878
0.671312
0.750446
0.845553
0.900297
0.938718
0.980623
1.02196
1.06196
1.09154
1.11309
1.11468
1.11252
1.11567
1.11543
1.12248
1.13599
1.13692
1.14216
1.16238
1.18617
1.19907
1.21108
1.22416
1.23641
1.24382
1.24265
1.23792
1.23207
1.22605
1.22068
1.21538
1.21227
1.21521
1.22581
1.23725
1.24747
1.25378
1.25421
1.24879
1.23738
1.22327
1.21716
1.21818
1.21885
1.21979
1.21652
1.20788
1.20048
1.19754
1.20129
1.22142
1.24336
1.24996
1.24768
1.23053
1.20549
1.19171
1.18845
1.19635
1.21664
1.22636
1.2235
1.20362
1.17889
1.16891
1.16525
1.16673
1.18272
1.19597
1.19666
1.18373
1.15441
1.13546
1.13025
1.13199
1.14593
1.16417
1.16735
1.15453
1.12671
1.12654
1.16522
1.333
1.70331
2.05407
2.33252
2.44976
2.41785
2.4266
2.48132
2.62668
2.82086
3.09941
3.41948
3.7759
4.09321
4.3114
4.46984
4.55259
4.59708
4.63114
4.61071
4.55414
4.47158
4.37134
4.29701
4.24586
4.20194
4.16112
4.11541
4.0698
4.02469
3.97541
3.92193
3.8741
3.83179
3.78609
3.75175
3.72403
3.70334
3.68668
3.66579
3.64133
3.61412
3.58247
3.54819
3.51192
3.47227
3.43168
3.38974
3.34836
3.3085
3.26862
3.23077
3.19711
3.16161
3.12399
3.09209
3.0647
3.04381
3.02489
2.998
2.96176
2.92323
2.8882
2.86123
2.84035
2.82089
2.79504
2.76745
2.74329
2.72173
2.69901
2.67533
2.64706
2.61349
2.56541
2.52289
2.51326
2.50897
2.50194
2.49211
2.47783
2.45862
2.43652
2.41237
2.38255
2.34379
2.31398
2.29369
2.27114
2.24378
3.50129
2.56971
1.81572
1.30353
1.05608
0.843603
0.612359
0.54275
0.516162
0.476289
0.431535
0.413573
0.410273
0.40665
0.391689
0.385186
0.394428
0.429229
0.435831
0.44475
0.469089
0.512306
0.587783
0.703838
0.804149
0.865631
0.920824
0.984383
1.03603
1.05698
1.07049
1.08314
1.08478
1.08686
1.09607
1.11025
1.11991
1.13753
1.1717
1.20017
1.2112
1.22153
1.22686
1.22645
1.22454
1.22286
1.21985
1.21884
1.21688
1.21336
1.21114
1.21312
1.21903
1.22641
1.23236
1.23693
1.23958
1.23641
1.22742
1.22065
1.21426
1.21348
1.21603
1.21598
1.21426
1.21092
1.20631
1.20398
1.20725
1.22002
1.2345
1.23714
1.23511
1.22771
1.20877
1.19301
1.1897
1.19789
1.22221
1.22993
1.2227
1.20842
1.18646
1.17122
1.16657
1.17077
1.18711
1.19702
1.1929
1.1836
1.16539
1.14234
1.13004
1.13051
1.14415
1.1669
1.16818
1.15615
1.1421
1.15781
1.28072
1.57314
1.98408
2.36957
2.5246
2.49772
2.46502
2.45453
2.45397
2.46817
2.46608
2.44856
2.46316
2.54073
2.74436
3.07344
3.47654
3.86832
4.18209
4.32917
4.456
4.46188
4.45013
4.41692
4.37867
4.33196
4.26959
4.20974
4.17756
4.14158
4.10096
4.05868
4.00799
3.94367
3.86774
3.79017
3.73425
3.70484
3.68922
3.68457
3.68112
3.66723
3.64564
3.61225
3.57049
3.52861
3.49055
3.45627
3.4196
3.37866
3.33828
3.29974
3.26354
3.23172
3.19845
3.16221
3.13124
3.10377
3.07519
3.04534
3.01189
2.97659
2.9374
2.90891
2.89306
2.87898
2.85622
2.81696
2.779
2.7529
2.7327
2.7152
2.70058
2.68525
2.66685
2.63939
2.58196
2.52311
2.49809
2.48354
2.47311
2.46179
2.45023
2.43837
2.42325
2.40005
2.37659
2.36278
2.34784
2.31856
2.27332
2.22815
3.92762
3.11816
2.43304
1.83809
1.48718
1.22447
0.959068
0.833545
0.774464
0.724843
0.656469
0.589534
0.539105
0.533255
0.519826
0.488699
0.483423
0.484223
0.47736
0.470341
0.478632
0.476745
0.47805
0.499762
0.549977
0.611103
0.693291
0.800207
0.913949
0.965427
1.00086
1.04247
1.04869
1.05399
1.069
1.08592
1.1078
1.13868
1.16573
1.18263
1.19058
1.19792
1.20391
1.20367
1.20195
1.20382
1.21349
1.22368
1.22704
1.2276
1.22357
1.21489
1.2117
1.21187
1.21381
1.21664
1.21697
1.21885
1.22043
1.22137
1.22216
1.22471
1.22743
1.22759
1.22611
1.22501
1.22301
1.22146
1.22267
1.22422
1.2232
1.2204
1.21335
1.20382
1.1992
1.20065
1.2079
1.22441
1.22885
1.22133
1.2091
1.19153
1.18171
1.18007
1.18322
1.19299
1.19505
1.18915
1.17986
1.16376
1.14851
1.14266
1.14368
1.15252
1.16537
1.16627
1.15464
1.16894
1.24322
1.48112
1.87917
2.26657
2.54787
2.57287
2.5537
2.54057
2.52164
2.51919
2.51519
2.49121
2.44841
2.39845
2.35417
2.33449
2.33361
2.38046
2.5204
2.77213
3.16266
3.53217
3.91095
4.0904
4.23131
4.27094
4.30495
4.28742
4.24907
4.23113
4.23289
4.21445
4.16754
4.1146
4.0542
3.98025
3.89199
3.79214
3.72403
3.69851
3.69126
3.68936
3.681
3.66545
3.64138
3.60573
3.55617
3.50996
3.47383
3.44138
3.40878
3.37456
3.34182
3.30993
3.28027
3.25167
3.21824
3.1809
3.14582
3.11299
3.07616
3.03195
2.98648
2.95043
2.93151
2.92125
2.9136
2.8989
2.87094
2.81731
2.76275
2.73805
2.72467
2.71201
2.70094
2.68514
2.66368
2.63254
2.5864
2.54547
2.51386
2.4845
2.46028
2.44195
2.42622
2.41379
2.4051
2.39851
2.39313
2.38538
2.36899
2.34077
2.29095
2.22265
4.29454
3.52127
2.89273
2.33827
1.91185
1.60642
1.34634
1.15728
1.04105
0.965168
0.894589
0.824054
0.746368
0.685228
0.64204
0.596448
0.580273
0.575801
0.568877
0.558048
0.547189
0.531419
0.513194
0.514869
0.518548
0.526759
0.546599
0.588858
0.662492
0.747369
0.812172
0.888663
0.945028
0.978286
1.00676
1.03946
1.0812
1.1303
1.1569
1.1662
1.17214
1.1742
1.17248
1.17289
1.17923
1.19477
1.22297
1.238
1.23875
1.23527
1.22428
1.21074
1.20372
1.20051
1.19767
1.19951
1.20752
1.21674
1.22526
1.2292
1.23062
1.2313
1.23086
1.22873
1.22575
1.22436
1.22297
1.22158
1.22011
1.21744
1.21197
1.2046
1.19808
1.1961
1.19989
1.21162
1.22437
1.22541
1.21947
1.20905
1.19512
1.18809
1.18721
1.19236
1.197
1.19454
1.18822
1.17954
1.16379
1.1496
1.14545
1.14754
1.15977
1.16968
1.16856
1.16997
1.21564
1.39056
1.74504
2.16981
2.42483
2.58788
2.64102
2.62716
2.59759
2.56345
2.53993
2.52904
2.51561
2.48862
2.44902
2.40265
2.36644
2.33637
2.31072
2.29356
2.27625
2.28299
2.34341
2.50232
2.78524
3.16327
3.52359
3.80793
4.00762
4.14898
4.1412
4.17151
4.17416
4.15665
4.1368
4.11686
4.08289
4.02693
3.95435
3.87492
3.79373
3.72653
3.68764
3.66042
3.63975
3.62758
3.61416
3.5868
3.53484
3.49115
3.46234
3.43462
3.40358
3.37199
3.34126
3.31036
3.28117
3.25246
3.2205
3.18164
3.13722
3.09593
3.0576
3.01124
2.96977
2.95102
2.93983
2.93111
2.91822
2.90019
2.87203
2.82239
2.76129
2.7334
2.72324
2.71379
2.69758
2.67382
2.64263
2.61147
2.59146
2.5751
2.55217
2.51516
2.46768
2.42914
2.40553
2.39199
2.38408
2.38306
2.38965
2.37978
2.36283
2.34209
2.31088
2.24624
4.60452
3.87919
3.26722
2.76706
2.33486
1.97654
1.71822
1.52096
1.36392
1.22174
1.12196
1.02553
0.935908
0.863767
0.799162
0.738184
0.723778
0.708301
0.687406
0.67099
0.65264
0.623953
0.57943
0.559355
0.557306
0.556254
0.561099
0.571111
0.577793
0.586732
0.6008
0.631471
0.700388
0.77577
0.849048
0.923624
0.999314
1.08469
1.12503
1.13735
1.15707
1.165
1.15083
1.14654
1.16244
1.1938
1.22545
1.23355
1.23099
1.22718
1.21571
1.19816
1.19433
1.19369
1.19622
1.2057
1.21612
1.221
1.22276
1.22336
1.22378
1.224
1.22256
1.21928
1.21839
1.21757
1.21613
1.21448
1.21284
1.21012
1.20728
1.20547
1.20489
1.2081
1.21713
1.22265
1.22216
1.21738
1.20766
1.19753
1.19313
1.19288
1.19756
1.19787
1.19427
1.18834
1.17844
1.1653
1.15648
1.1544
1.15717
1.16643
1.17393
1.1737
1.20196
1.32353
1.62699
2.0408
2.35085
2.57012
2.66054
2.66831
2.64821
2.5984
2.56678
2.55123
2.54743
2.52766
2.49751
2.46371
2.42956
2.40494
2.38355
2.35865
2.32755
2.28918
2.26017
2.24263
2.23243
2.23005
2.24827
2.32356
2.48468
2.76885
3.09014
3.44087
3.71626
3.92986
3.96485
3.9826
4.00076
4.00798
4.02965
4.02237
3.99419
3.95134
3.88371
3.7951
3.71878
3.6688
3.63373
3.60609
3.58251
3.55085
3.50511
3.47928
3.46198
3.44157
3.41432
3.37978
3.34227
3.30915
3.28065
3.25255
3.2218
3.18334
3.13448
3.08036
3.03472
3.00165
2.98147
2.96725
2.95236
2.93584
2.91622
2.89223
2.86317
2.82969
2.79088
2.74554
2.70421
2.67747
2.65809
2.64019
2.62571
2.61631
2.60714
2.59164
2.57198
2.53849
2.47667
2.41593
2.39492
2.38829
2.38706
2.39178
2.38547
2.37076
2.35193
2.33171
2.31215
2.26784
4.83716
4.16637
3.61543
3.14196
2.70835
2.34384
2.08375
1.84499
1.64529
1.50492
1.37161
1.24017
1.10753
1.02389
0.951309
0.888837
0.868718
0.846952
0.81888
0.790682
0.757769
0.717789
0.66672
0.644059
0.637282
0.625981
0.61909
0.617572
0.612506
0.603083
0.58685
0.578643
0.58398
0.602545
0.643417
0.717321
0.803186
0.88924
0.949978
0.991636
1.03208
1.0791
1.10454
1.13172
1.17503
1.21874
1.2274
1.22551
1.21473
1.20079
1.18713
1.1789
1.17864
1.18427
1.19992
1.21473
1.21991
1.22244
1.22111
1.21855
1.2172
1.21499
1.21093
1.21137
1.21449
1.21618
1.21454
1.2113
1.20783
1.20608
1.20638
1.20985
1.21651
1.22232
1.22344
1.22158
1.21627
1.20761
1.19939
1.19634
1.19661
1.19935
1.19751
1.19344
1.18799
1.17848
1.16705
1.16075
1.16004
1.16515
1.17459
1.17796
1.19112
1.26284
1.50326
1.90915
2.28236
2.52972
2.68172
2.70171
2.67859
2.62914
2.60412
2.58882
2.58524
2.57255
2.54175
2.50045
2.45873
2.43223
2.41547
2.4059
2.38956
2.36179
2.3218
2.279
2.25422
2.23959
2.22629
2.21553
2.20593
2.18812
2.16895
2.18433
2.25483
2.42707
2.7041
3.02903
3.33791
3.61293
3.79837
3.84229
3.89597
3.92831
3.94659
3.92625
3.88562
3.83328
3.7587
3.70416
3.66142
3.62298
3.58378
3.54174
3.50026
3.47298
3.4552
3.43657
3.41333
3.37935
3.33045
3.27638
3.23981
3.21618
3.194
3.16983
3.1373
3.09172
3.03438
3.00056
2.98616
2.97275
2.95628
2.93544
2.9109
2.88524
2.86154
2.84018
2.81243
2.76518
2.70115
2.65647
2.63315
2.61585
2.60371
2.60424
2.60325
2.58648
2.56728
2.54366
2.50474
2.45022
2.40537
2.38317
2.36811
2.3533
2.34071
2.33394
2.33266
2.3229
2.31357
2.28297
5.01502
4.418
3.92149
3.46409
3.02663
2.68832
2.39857
2.15111
1.92916
1.75517
1.59463
1.43557
1.30417
1.2085
1.12776
1.05703
1.01793
0.979746
0.942011
0.91063
0.871158
0.816961
0.756802
0.740534
0.733065
0.720959
0.707435
0.693076
0.674364
0.645511
0.609096
0.597549
0.597585
0.60328
0.612762
0.627126
0.645651
0.670596
0.705661
0.745399
0.794228
0.871983
0.959064
1.0489
1.13387
1.2044
1.22137
1.22444
1.21502
1.18357
1.16397
1.16129
1.16708
1.18346
1.20326
1.20765
1.21003
1.21416
1.21137
1.20454
1.20301
1.20222
1.20628
1.2171
1.22481
1.22474
1.21849
1.20828
1.20407
1.20277
1.20278
1.20723
1.21666
1.22107
1.22106
1.21856
1.21115
1.20343
1.20055
1.19986
1.20001
1.19736
1.19327
1.18764
1.17923
1.17038
1.16592
1.16606
1.17064
1.17754
1.18406
1.22348
1.4008
1.76565
2.17455
2.48361
2.688
2.71354
2.69579
2.66828
2.63899
2.62006
2.61815
2.61581
2.59154
2.55533
2.50643
2.46558
2.43641
2.41885
2.41346
2.4002
2.37617
2.34443
2.30643
2.27148
2.25326
2.24109
2.234
2.21731
2.19292
2.16915
2.14604
2.1281
2.1158
2.10703
2.13046
2.19911
2.37231
2.62206
2.93247
3.2278
3.51389
3.64639
3.72894
3.77234
3.79134
3.78083
3.76833
3.74503
3.71493
3.67078
3.62373
3.57486
3.53263
3.4868
3.45276
3.42718
3.40164
3.37085
3.32475
3.27009
3.22778
3.19924
3.17835
3.15826
3.13608
3.10337
3.04805
3.00189
2.98205
2.96971
2.95494
2.93566
2.91331
2.88931
2.86749
2.84629
2.81927
2.77696
2.71134
2.65013
2.62256
2.60788
2.59887
2.60128
2.59386
2.57523
2.55693
2.54171
2.52494
2.49765
2.44694
2.39014
2.35332
2.33282
2.32214
2.31666
2.32989
2.3401
2.33141
2.29827
5.14908
4.62964
4.16878
3.71315
3.3158
2.98887
2.6855
2.40828
2.19349
1.98525
1.80911
1.64351
1.49774
1.39085
1.29921
1.23475
1.18634
1.1369
1.07544
1.01686
0.961148
0.901666
0.849037
0.83854
0.82713
0.810535
0.798592
0.785226
0.762146
0.718613
0.668862
0.64786
0.639888
0.635779
0.639929
0.644856
0.645848
0.641831
0.632585
0.627624
0.635447
0.66899
0.736627
0.834845
0.959747
1.05779
1.1329
1.1738
1.18899
1.18375
1.15459
1.14874
1.16187
1.18899
1.19689
1.19157
1.18658
1.18334
1.17405
1.17124
1.17551
1.18546
1.20771
1.23098
1.23631
1.23588
1.22649
1.2088
1.19933
1.19662
1.1959
1.2002
1.21102
1.21596
1.21617
1.21433
1.20722
1.20279
1.20208
1.20149
1.19898
1.19491
1.19002
1.1835
1.17535
1.17135
1.17166
1.17408
1.17625
1.19204
1.29645
1.59689
2.03997
2.44799
2.66216
2.68119
2.70335
2.70569
2.69994
2.67807
2.6571
2.64023
2.62184
2.59491
2.56248
2.52479
2.48228
2.45032
2.43745
2.42337
2.40231
2.37954
2.35369
2.32514
2.29208
2.27107
2.25521
2.23717
2.2165
2.19538
2.17332
2.15392
2.14011
2.12133
2.10179
2.0845
2.063
2.04473
2.03676
2.06007
2.13671
2.28805
2.52984
2.82664
3.12131
3.3502
3.53748
3.67013
3.7163
3.723
3.70235
3.66326
3.64091
3.61324
3.56758
3.51904
3.45674
3.39788
3.36815
3.35277
3.32655
3.29151
3.24631
3.20017
3.17305
3.15252
3.12826
3.09663
3.05604
3.01154
2.97393
2.94566
2.92876
2.91836
2.90822
2.89092
2.87102
2.84644
2.81744
2.7824
2.73728
2.68369
2.63666
2.60761
2.58781
2.5687
2.55276
2.54441
2.54983
2.5433
2.52897
2.51075
2.47494
2.41308
2.35506
2.3306
2.32107
2.31507
2.31122
2.30794
2.30382
2.27449
5.27085
4.81176
4.36713
3.93082
3.57615
3.24089
2.92083
2.65111
2.42661
2.2096
2.00587
1.84547
1.7084
1.59007
1.48576
1.40315
1.33401
1.26961
1.20789
1.14388
1.07446
0.991584
0.948255
0.938104
0.922222
0.902317
0.887311
0.867855
0.834881
0.782256
0.741457
0.728854
0.720111
0.711474
0.701458
0.689388
0.675082
0.656916
0.636365
0.628676
0.629118
0.632479
0.64386
0.670843
0.729732
0.794731
0.867573
0.947383
1.01725
1.08411
1.11042
1.13521
1.18264
1.20795
1.20906
1.20317
1.1825
1.15518
1.14174