/*--------------------------------*- C++ -*----------------------------------*\
  =========                 |
  \\      /  F ield         | OpenFOAM: The Open Source CFD Toolbox
   \\    /   O peration     | Website:  https://openfoam.org
    \\  /    A nd           | Version:  10
     \\/     M anipulation  |
\*---------------------------------------------------------------------------*/
FoamFile
{
    format      ascii;
    class       volScalarField;
    location    "1.5";
    object      T;
}
// * * * * * * * * * * * * * * * * * * * * * * * * * * * * * * * * * * * * * //

dimensions      [0 0 0 1 0 0 0];

internalField   nonuniform List<scalar> 
16128
(
1
1
1
1
1
1
1
1
1
1
1
1
1
1
1
1
1
1
1
1
1
1
1
1
1
1.79818
2.68085
2.74875
2.74749
2.75074
2.75614
2.76379
2.77113
2.77555
2.77686
2.77761
2.78144
2.79177
2.80726
2.82334
2.8348
2.8389
2.84046
2.84587
2.85983
2.88272
2.90676
2.9183
1
1
1
1
1
1
1
1
1
1
1
1
1
1
1
1
1
1
1
1
1
1
1
1
1
1.78771
2.67624
2.74819
2.74689
2.75029
2.75574
2.76341
2.77065
2.77489
2.77614
2.7769
2.78087
2.79133
2.80674
2.82272
2.83408
2.83808
2.83956
2.84478
2.85873
2.88202
2.90586
2.91761
1
1
1
1
1
1
1
1
1
1
1
1
1
1
1
1
1
1
1
1
1
1
1
1
1
1.7566
2.66634
2.74598
2.7446
2.74849
2.75434
2.76231
2.76954
2.77358
2.77481
2.77568
2.77994
2.79064
2.80605
2.82197
2.83308
2.83675
2.83812
2.8433
2.85749
2.88142
2.9047
2.91637
1
1
1
1
1
1
1
1
1
1
1
1
1
1
1
1
1
1
1
1
1
1
1
1
1
1.70376
2.64799
2.74227
2.74116
2.7457
2.75222
2.76061
2.76776
2.7716
2.77296
2.77409
2.7787
2.78954
2.80486
2.82062
2.83136
2.83472
2.83619
2.84149
2.85582
2.88048
2.90273
2.91511
1
1
1
1
1
1
1
1
1
1
1
1
1
1
1
1
1
1
1
1
1
1
1
1
1
1.63676
2.62427
2.73751
2.73628
2.74133
2.74853
2.75738
2.76457
2.76874
2.77056
2.77226
2.77728
2.78811
2.80325
2.81868
2.829
2.83215
2.83381
2.83943
2.85427
2.87981
2.89912
2.91261
1
1
1
1
1
1
1
1
1
1
1
1
1
1
1
1
1
1
1
1
1
1
1
1
1
1.55052
2.59249
2.73248
2.73111
2.73654
2.74403
2.75304
2.7603
2.7652
2.76804
2.77062
2.776
2.78654
2.80118
2.816
2.82587
2.82884
2.83064
2.83646
2.85132
2.87703
2.89508
2.90982
1
1
1
1
1
1
1
1
1
1
1
1
1
1
1
1
1
1
1
1
1
1
1
1
1
1.44245
2.54794
2.72556
2.72531
2.73146
2.73927
2.74814
2.75551
2.76141
2.76546
2.76898
2.77455
2.78455
2.79846
2.81248
2.82186
2.82467
2.82647
2.83233
2.84701
2.8726
2.89162
2.90546
1
1
1
1
1
1
1
1
1
1
1
1
1
1
1
1
1
1
1
1
1
1
1
1
1
1.31114
2.48355
2.71455
2.71854
2.72698
2.73497
2.74349
2.75088
2.75746
2.76277
2.76734
2.77305
2.7823
2.7951
2.80805
2.81701
2.8198
2.82152
2.82686
2.84039
2.86581
2.88877
2.89866
1
1
1
1
1
1
1
1
1
1
1
1
1
1
1
1
1
1
1
1
1
1
1
1
1
1.16478
2.40487
2.70445
2.71253
2.72332
2.73199
2.74016
2.74732
2.75411
2.75999
2.76499
2.77055
2.77884
2.79032
2.80217
2.81077
2.81371
2.81543
2.82038
2.83333
2.85827
2.88189
2.89141
1
1
1
1
1
1
1
1
1
1
1
1
1
1
1
1
1
1
1
1
1
1
1
1
1
1.00988
2.31566
2.70033
2.70867
2.71776
2.72651
2.73465
2.74232
2.74979
2.75632
2.76179
2.76731
2.77483
2.78519
2.79611
2.80407
2.80675
2.80819
2.81242
2.82459
2.84882
2.87318
2.88206
1
1
1
1
1
1
1
1
1
1
1
1
1
1
1
1
1
1
1
1
1
1
1
1
1
1.00007
2.20793
2.69721
2.70557
2.71249
2.72114
2.72976
2.73817
2.74622
2.75304
2.75842
2.76328
2.7694
2.77807
2.78761
2.79479
2.79731
2.79863
2.80227
2.814
2.83719
2.86197
2.87061
1
1
1
1
1
1
1
1
1
1
1
1
1
1
1
1
1
1
1
1
1
1
1
1
1
1
2.06628
2.68596
2.7
2.70661
2.7155
2.72485
2.73394
2.74231
2.7492
2.75427
2.75846
2.76345
2.77076
2.77878
2.78481
2.78699
2.78785
2.79053
2.80151
2.82271
2.84733
2.85659
1
1
1
1
1
1
1
1
1
1
1
1
1
1
1
1
1
1
1
1
1
1
1
1
1
1
1.88728
2.65062
2.68893
2.69658
2.70652
2.71691
2.72709
2.73635
2.74373
2.74874
2.75242
2.75645
2.76242
2.76865
2.77349
2.77508
2.77531
2.77635
2.78461
2.8032
2.82631
2.83847
1
1
1
1
1
1
1
1
1
1
1
1
1
1
1
1
1
1
1
1
1
1
1
1
1
1
1.63927
2.5633
2.67633
2.68372
2.69404
2.70495
2.7162
2.72664
2.73503
2.74067
2.74443
2.74807
2.75295
2.75734
2.76077
2.76118
2.76036
2.76016
2.76633
2.78324
2.8012
2.80526
1
1
1
1
1
1
1
1
1
1
1
1
1
1
1
1
1
1
1
1
1
1
1
1
1
1
1.31762
2.44978
2.66833
2.66534
2.67524
2.68737
2.70038
2.71246
2.72223
2.72906
2.73346
2.73717
2.74105
2.74377
2.74579
2.74524
2.74269
2.74005
2.74143
2.74996
2.75943
2.76455
1
1
1
1
1
1
1
1
1
1
1
1
1
1
1
1
1
1
1
1
1
1
1
1
1
1
1.02651
2.33344
2.66436
2.65968
2.66703
2.67514
2.68479
2.69557
2.70549
2.71343
2.71898
2.72334
2.72645
2.72811
2.7287
2.72726
2.72236
2.71526
2.71034
2.71481
2.71959
2.73655
1
1
1
1
1
1
1
1
1
1
1
1
1
1
1
1
1
1
1
1
1
1
1
1
1
1
1.00018
2.17775
2.65294
2.65513
2.6597
2.66439
2.67029
2.67839
2.68736
2.69534
2.70163
2.70636
2.70903
2.7097
2.70883
2.7063
2.69942
2.68879
2.67434
2.66064
2.61699
2.48692
1
1
1
1
1
1
1
1
1
1
1
1
1
1
1
1
1
1
1
1
1
1
1
1
1
1
1
1.96438
2.62994
2.65557
2.65868
2.66229
2.66479
2.66901
2.67437
2.68004
2.68513
2.68895
2.69058
2.68986
2.68711
2.68288
2.67363
2.65849
2.63373
2.59395
2.53345
2.34328
1
1
1
1
1
1
1
1
1
1
1
1
1
1
1
1
1
1
1
1
1
1
1
1
1
1
1
1.63441
2.53058
2.64604
2.65192
2.65641
2.65847
2.66131
2.66448
2.66776
2.67054
2.67224
2.67193
2.66965
2.6645
2.65773
2.64583
2.62644
2.59413
2.54437
2.45721
2.26603
1
1
1
1
1
1
1
1
1
1
1
1
1
1
1
1
1
1
1
1
1
1
1
1
1
1
1
1.19779
2.37872
2.64468
2.64291
2.64522
2.64839
2.65168
2.65431
2.65665
2.65743
2.65721
2.6551
2.65072
2.64273
2.63253
2.61745
2.5949
2.55747
2.50335
2.40077
2.23863
1
1
1
1
1
1
1
1
1
1
1
1
1
1
1
1
1
1
1
1
1
1
1
1
1
1
1
1.00956
2.23297
2.61079
2.61746
2.62479
2.63168
2.63713
2.64111
2.64411
2.64402
2.64298
2.63955
2.63333
2.62298
2.60937
2.59092
2.56548
2.52652
2.46895
2.36913
2.24013
1
1
1
1
1
1
1
1
1
1
1
1
1
1
1
1
1
1
1
1
1
1
1
1
1
1
1
1.00001
1.97099
2.57581
2.60315
2.61071
2.61719
2.62157
2.62619
2.63007
2.6302
2.62897
2.62481
2.61732
2.60532
2.58902
2.5677
2.53926
2.49962
2.44193
2.35328
2.24611
1
1
1
1
1
1
1
1
1
1
1
1
1
1
1
1
1
1
1
1
1
1
1
1
1
1
1
0.999999
1.54768
2.46732
2.59437
2.59611
2.60111
2.60478
2.60904
2.6129
2.61397
2.6131
2.60921
2.60161
2.58901
2.57123
2.5481
2.51764
2.4772
2.42201
2.34564
2.25503
1
1
1
1
1
1
1
1
1
1
1
1
1
1
1
1
1
1
1
1
1
1
1
1
1
1
1
1
1.07863
2.30848
2.59194
2.58406
2.58553
2.58824
2.59074
2.59358
2.59521
2.59487
2.59183
2.58493
2.57262
2.55445
2.53068
2.49963
2.45908
2.40767
2.34064
2.26423
1
1
1
1
1
1
1
1
1
1
1
1
1
1
1
1
1
1
1
1
1
1
1
1
1
1
1
1
1.00136
2.0908
2.55057
2.5648
2.57214
2.57369
2.57382
2.57449
2.57516
2.57518
2.57305
2.5672
2.55578
2.53808
2.51482
2.48387
2.4448
2.39685
2.33768
2.27331
1
1
1
1
1
1
1
1
1
1
1
1
1
1
1
1
1
1
1
1
1
1
1
1
1
1
1
1
0.999995
1.64914
2.45753
2.54976
2.56088
2.56337
2.56155
2.55934
2.55718
2.55564
2.55293
2.54755
2.53735
2.5208
2.4984
2.46812
2.43231
2.3879
2.33559
2.27998
1
1
1
1
1
1
1
1
1
1
1
1
1
1
1
1
1
1
1
1
1
1
1
1
1
1
1
1
0.999999
1.11035
2.28956
2.55085
2.54871
2.54978
2.5475
2.54354
2.53922
2.53608
2.53262
2.52752
2.51801
2.50348
2.48158
2.45328
2.42068
2.38021
2.33465
2.28485
1
1
1
1
1
1
1
1
1
1
1
1
1
1
1
1
1
1
1
1
1
1
1
1
1
1
1
1
1
1.00268
2.05341
2.50916
2.52847
2.53278
2.53027
2.52654
2.52194
2.51786
2.51326
2.50757
2.49828
2.48471
2.46428
2.43858
2.40841
2.37189
2.33203
2.28639
1
1
1
1
1
1
1
1
1
1
1
1
1
1
1
1
1
1
1
1
1
1
1
1
1
1
1
1
1
0.999992
1.55615
2.41081
2.51508
2.51327
2.51103
2.50875
2.50514
2.50072
2.495
2.48883
2.47927
2.46649
2.4479
2.42473
2.39648
2.36331
2.32764
2.28664
1
1
1
1
1
1
1
1
1
1
1
1
1
1
1
1
1
1
1
1
1
1
1
1
1
1
1
1
1
0.999998
1.07533
2.23489
2.49939
2.49197
2.49323
2.49175
2.48841
2.4835
2.47735
2.47084
2.46164
2.44924
2.43216
2.41098
2.38468
2.35444
2.32135
2.28477
1
1
1
1
1
1
1
1
1
1
1
1
1
1
1
1
1
1
1
1
1
1
1
1
1
1
1
1
1
1
1.00106
1.86739
2.43166
2.47119
2.4788
2.47838
2.47485
2.46905
2.46221
2.45491
2.44554
2.43356
2.41779
2.39825
2.37394
2.34615
2.31507
2.28199
1
1
1
1
1
1
1
1
1
1
1
1
1
1
1
1
1
1
1
1
1
1
1
1
1
1
1
1
1
1
0.999998
1.22348
2.28044
2.47327
2.46709
2.46388
2.4593
2.45309
2.44624
2.43845
2.42927
2.41793
2.40358
2.38573
2.36359
2.33775
2.30853
2.27808
1
1
1
1
1
1
1
1
1
1
1
1
1
1
1
1
1
1
1
1
1
1
1
1
1
1
1
1
1
1
1
1.01071
2.04696
2.43036
2.44584
2.44598
2.44351
2.43833
2.43164
2.42355
2.41419
2.40317
2.38986
2.37349
2.3533
2.32922
2.30218
2.27371
1
1
1
1
1
1
1
1
1
1
1
1
1
1
1
1
1
1
1
1
1
1
1
1
1
1
1
1
1
1
1
1.00001
1.45864
2.3114
2.43716
2.43077
2.42732
2.423
2.41696
2.40894
2.39955
2.3887
2.37601
2.36081
2.34231
2.32031
2.29551
2.2687
1
1
1
1
1
1
1
1
1
1
1
1
1
1
1
1
1
1
1
1
1
1
1
1
1
1
1
1
1
1
1
0.999999
1.04833
2.11838
2.41363
2.41118
2.40882
2.40563
2.40047
2.39321
2.38432
2.37384
2.36156
2.34713
2.3303
2.31044
2.28773
2.26286
1
1
1
1
1
1
1
1
1
1
1
1
1
1
1
1
1
1
1
1
1
1
1
1
1
1
1
1
1
1
1
1
1.00041
1.58688
2.30713
2.39883
2.39355
2.38946
2.38413
2.37726
2.36873
2.35858
2.34691
2.33353
2.31792
2.29968
2.27884
2.25612
1
1
1
1
1
1
1
1
1
1
1
1
1
1
1
1
1
1
1
1
1
1
1
1
1
1
1
1
1
1
1
1
1
1.08598
2.12101
2.38336
2.37789
2.37336
2.36746
2.3607
2.35253
2.34294
2.33192
2.31933
2.30468
2.28778
2.26869
2.24801
1
1
1
1
1
1
1
1
1
1
1
1
1
1
1
1
1
1
1
1
1
1
1
1
1
1
1
1
1
1
1
1
1
1.00138
1.60841
2.27525
2.36327
2.35723
2.35222
2.34545
2.33738
2.32819
2.31779
2.30586
2.29199
2.27615
2.25866
2.2398
1
1
1
1
1
1
1
1
1
1
1
1
1
1
1
1
1
1
1
1
1
1
1
1
1
1
1
1
1
1
1
1
1
1
1.09652
2.08784
2.35002
2.34432
2.33795
2.33025
2.32216
2.31358
2.30397
2.29279
2.27969
2.2648
2.24866
2.23151
1
1
1
1
1
1
1
1
1
1
1
1
1
1
1
1
1
1
1
1
1
1
1
1
1
1
1
1
1
1
1
1
1
1
1.00177
1.54431
2.22987
2.32951
2.32093
2.31534
2.30843
2.30065
2.29161
2.281
2.26864
2.25467
2.23957
2.22371
1
1
1
1
1
1
1
1
1
1
1
1
1
1
1
1
1
1
1
1
1
1
1
1
1
1
1
1
1
1
1
1
1
1
1
1.07526
2.02686
2.31326
2.30885
2.30132
2.294
2.28673
2.27843
2.26868
2.25741
2.24471
2.23078
2.21582
1
1
1
1
1
1
1
1
1
1
1
1
1
1
1
1
1
1
1
1
1
1
1
1
1
1
1
1
1
1
1
1
1
1
1
1.00111
1.44952
2.17741
2.2948
2.28476
2.28032
2.2743
2.26663
2.25733
2.24669
2.23499
2.22218
2.20804
1
1
1
1
1
1
1
1
1
1
1
1
1
1
1
1
1
1
1
1
1
1
1
1
1
1
1
1
1
1
1
1
1
1
1
1
1.04794
1.91311
2.26025
2.27541
2.26847
2.26126
2.25352
2.24472
2.23487
2.22416
2.21251
2.19955
1
1
1
1
1
1
1
1
1
1
1
1
1
1
1
1
1
1
1
1
1
1
1
1
1
1
1
1
1
1
1
1
1
1
1
1
1.00054
1.32018
2.09576
2.26276
2.25218
2.24697
2.24063
2.23292
2.22395
2.21391
2.20296
2.19102
1
1
1
1
1
1
1
1
1
1
1
1
1
1
1
1
1
1
1
1
1
1
1
1
1
1
1
1
1
1
1
1
1
1
1
1
1
1.02209
1.70451
2.1819
2.23884
2.2309
2.22549
2.21907
2.21134
2.2021
2.19163
2.1803
1
1
1
1
1
1
1
1
1
1
1
1
1
1
1
1
1
1
1
1
1
1
1
1
1
1
1
1
1
1
1
1
1
1
1
1
1
1.00019
1.16372
1.97771
2.22712
2.21909
2.21323
2.2065
2.19925
2.19062
2.18068
2.16988
1
1
1
1
1
1
1
1
1
1
1
1
1
1
1
1
1
1
1
1
1
1
1
1
1
1
1
1
1
1
1
1
1
1
1
1
1
1
1.00556
1.46786
2.09737
2.20592
2.19389
2.18931
2.18328
2.17579
2.16701
2.1573
1
1
1
1
1
1
1
1
1
1
1
1
1
1
1
1
1
1
1
1
1
1
1
1
1
1
1
1
1
1
1
1
1
1
1
1
1
1
1.00003
1.05692
1.7803
2.15127
2.18935
2.17975
2.17158
2.16402
2.15606
2.14712
1
1
1
1
1
1
1
1
1
1
1
1
1
1
1
1
1
1
1
1
1
1
1
1
1
1
1
1
1
1
1
1
1
1
1
1
1
1
1
1.00087
1.2291
1.95907
2.17534
2.16881
2.16048
2.15257
2.14455
2.13613
1
1
1
1
1
1
1
1
1
1
1
1
1
1
1
1
1
1
1
1
1
1
1
1
1
1
1
1
1
1
1
1
1
1
1
1
1
1
1
1
1.01117
1.48278
2.05706
2.15582
2.14644
2.138
2.13054
2.12288
1
1
1
1
1
1
1
1
1
1
1
1
1
1
1
1
1
1
1
1
1
1
1
1
1
1
1
1
1
1
1
1
1
1
1
1
1
1
1
1
1.00008
1.06422
1.7328
2.09673
2.14043
2.12863
2.11943
2.11187
1
1
1
1
1
1
1
1
1
1
1
1
1
1
1
1
1
1
1
1
1
1
1
1
1
1
1
1
1
1
1
1
1
1
1
1
1
1
1
1
1
1.00113
1.20196
1.89129
2.1156
2.12026
2.11199
2.10348
1
1
1
1
1
1
1
1
1
1
1
1
1
1
1
1
1
1
1
1
1
1
1
1
1
1
1
1
1
1
1
1
1
1
1
1
1
1
1
1
1
1
1.00885
1.40061
1.97487
2.10623
2.10162
2.09302
1
1
1
1
1
1
1
1
1
1
1
1
1
1
1
1
1
1
1
1
1
1
1
1
1
1
1
1
1
1
1
1
1
1
1
1
1
1
1
1
1
1
1.00007
1.04126
1.59132
2.0241
2.09246
2.0838
1
1
1
1
1
1
1
1
1
1
1
1
1
1
1
1
1
1
1
1
1
1
1
1
1
1
1
1
1
1
1
1
1
1
1
1
1
1
1
1
1
1
1
1.0006
1.11789
1.75102
2.04061
2.07907
1
1
1
1
1
1
1
1
1
1
1
1
1
1
1
1
1
1
1
1
1
1
1
1
1
1
1
1
1
1
1
1
1
1
1
1
1
1
1
1
1
1
1
1
1.00336
1.24407
1.85156
2.0464
1
1
1
1
1
1
1
1
1
1
1
1
1
1
1
1
1
1
1
1
1
1
1
1
1
1
1
1
1
1
1
1
1
1
1
1
1
1
1
1
1
1
1
1
1.00002
1.01386
1.39115
1.90741
1
1
1
1
1
1
1
1
1
1
1
1
1
1
1
1
1
1
1
1
1
1
1
1
1
1
1
1
1
1
1
1
1
1
1
1
1
1
1
1
1
1
1
1
1
1.00013
1.04159
1.52413
1
1
1
1
1
1
1
1
1
1
1
1
1
1
1
1
1
1
1
1
1
1
1
1
1
1
1
1
1
1
1
1
1
1
1
1
1
1
1
1
1
1
1
1
1
1
1.00065
1.09273
1
1
1
1
1
1
1
1
1
1
1
1
1
1
1
1
1
1
1
1
1
1
1
1
1
1
1
1
1
1
1
1
1
1
1
1
1
1
1
1
1
1
1
1
1
1
1
1.00238
1
1
1
1
1
1
1
1
1
1
1
1
1
1
1
1
1
1
1
1
1
1
1
1
1
1
1
1
1
1
1
1
1
1
1
1
1
1
1
1
1
1
1
1
1
1
1
1.00001
1
1
1
1
1
1
1
1
1
1
1
1
1
1
1
1
1
1
1
1
1
1
1
1
1
1
1
1
1
1
1
1
1
1
1
1
1
1
1
1
1
1
1
1
1
1
1
1
1
1
1
1
1
1
1
1
1
1
1
1
1
1
1
1
1
1
1
1
1
1
1
1
1
1
1
1
1
1
1
1
1
1
1
1
1
1
1
1
1
1
1
1
1
1
1
1
1
1
1
1
1
1
1
1
1
1
1
1
1
1
1
1
1
1
1
1
1
1
1
1
1
1
1
1
1
1
1
1
1
1
1
1
1
1
1
1
1
1
1
1
1
1
1
1
1
1
1
1
1
1
1
1
1
1
1
1
1
1
1
1
1
1
1
1
1
1
1
1
1
1
1
1
1
1
1
1
1
1
1
1
1
1
1
1
1
1
1
1
1
1
1
1
1
1
1
1
1
1
1
1
1
1
1
1
1
1
1
1
1
1
1
1
1
1
1
1
1
1
1
1
1
1
1
1
1
1
1
1
1
1
1
1
1
1
1
1
1
1
1
1
1
1
1
1
1
1
1
1
1
1
1
1
1
1
1
1
1
1
1
1
1
1
1
1
1
1
1
1
1
1
1
1
1
1
1
1
1
1
1
1
1
1
1
1
1
1
1
1
1
1
1
1
1
1
1
1
1
1
1
1
1
1
1
1
1
1
1
1
1
1
1
1
1
1
1
1
1
1
1
1
1
1
1
1
1
1
1
1
1
1
1
1
1
1
1
1
1
1
1
1
1
1
1
1
1
1
1
1
1
1
1
1
1
1
1
1
1
1
1
1
1
1
1
1
1
1
1
1
1
1
1
1
1
1
1
1
1
1
1
1
1
1
1
1
1
1
1
1
1
1
1
1
1
1
1
1
1
1
1
1
1
1
1
1
1
1
1
1
1
1
1
1
1
1
1
1
1
1
1
1
1
1
1
1
1
1
1
1
1
1
1
1
1
1
1
1
1
1
1
1
1
1
1
1
1
1
1
1
1
1
1
1
1
1
1
1
1
1
1
1
1
1
1
1
1
1
1
1
1
1
1
1
1
1
1
1
1
1
1
1
1
1
1
1
1
1
1
1
1
1
1
1
1
1
1
1
1
1
1
1
1
1
1
1
1
1
1
1
1
1
1
1
1
1
1
1
1
1
1
1
1
1
1
1
1
1
1
1
1
1
1
1
1
1
1
1
1
1
1
1
1
1
1
1
1
1
1
1
1
1
1
1
1
1
1
1
1
1
1
1
1
1
1
1
1
1
1
1
1
1
1
1
1
1
1
1
1
1
1
1
1
1
1
1
1
1
1
1
1
1
1
1
1
1
1
1
1
1
1
1
1
1
1
1
1
1
1
1
1
1
1
1
1
1
1
1
1
1
1
1
1
1
1
1
1
1
1
1
1
1
1
1
1
1
1
1
1
1
1
1
1
1
1
1
1
1
1
1
1
1
1
1
1
1
1
1
1
1
1
1
1
1
1
1
1
1
1
1
1
1
1
1
1
1
1
1
1
1
1
1
1
1
1
1
1
1
1
1
1
1
1
1
1
1
1
1
1
1
1
1
1
1
1
1
1
1
1
1
1
1
1
1
1
1
1
1
1
1
1
1
1
1
1
1
1
1
1
1
1
1
1
1
1
1
1
1
1
1
1
1
1
1
1
1
1
1
1
1
1
1
1
1
1
1
1
1
1
1
1
1
1
1
1
1
1
1
1
1
1
1
1
1
1
1
1
1
1
1
1
1
1
1
1
1
1
1
1
1
1
1
1
1
1
1
1
1
1
1
1
1
1
1
1
1
1
1
1
1
1
1
1
1
1
1
1
1
1
1
1
1
1
1
1
1
1
1
1
1
1
1
1
1
1
1
1
1
1
1
1
1
1
1
1
1
1
1
1
1
1
1
1
1
1
1
1
1
1
1
1
1
1
1
1
1
1
1
1
1
1
1
1
1
1
1
1
1
1
1
1
1
1
1
1
1
1
1
1
1
1
1
1
1
1
1
1
1
1
1
1
1
1
1
1
1
1
1
1
1
1
1
1
1
1.50933
0.698334
0.366643
0.84482
0.912378
0.932935
1.01678
1.00371
0.978056
1.02682
1.15702
1.29802
1.39763
1.44983
1.48373
1.50475
1.51064
1.53529
1.6144
1.65586
1.63835
1.62149
1.62518
1.63834
1.66429
1.68318
1.67859
1.65651
1.64224
1.64502
1.64417
1.64149
1.6432
1.64335
1.64596
1.64575
1.64946
1.65005
1.64798
1.64657
1.64747
1.65185
1.65668
1.65794
1.65691
1.65528
1.6552
1.65735
1.66269
1.66618
1.66713
1.66741
1.6661
1.6647
1.665
1.6667
1.66787
1.66767
1.6671
1.6662
1.66416
1.66434
1.66398
1.66303
1.66275
1.66178
1.6591
1.65617
1.65385
1.65158
1.64857
1.64704
1.6473
1.65341
1.6595
1.65901
1.65487
1.64678
1.6394
1.6374
1.638
1.63962
1.64494
1.64881
1.64885
1.64235
1.63299
1.62953
1.62991
1.63178
1.63872
1.64785
1.64922
1.6454
1.63542
1.62938
1.62878
1.62914
1.63404
1.6476
1.64964
1.64824
1.64272
1.62669
1.64809
1.72457
1.86535
2.04007
2.21522
2.35999
2.47119
2.54152
2.56491
2.5921
2.59432
2.57757
2.54909
2.52909
2.50501
2.4899
2.47614
2.46002
2.45176
2.44415
2.43702
2.43045
2.42232
2.41509
2.40597
2.39565
2.38345
2.3758
2.37155
2.36913
2.36624
2.36086
2.35224
2.34261
2.33251
2.32406
2.31553
2.30817
2.30481
2.30318
2.30218
2.30126
2.2995
2.29472
2.285
2.27354
2.26355
2.25568
2.2511
2.24762
2.24156
2.23211
2.22745
2.22696
2.22679
2.22705
2.22875
2.2242
2.20943
2.18912
2.17473
2.16816
2.16478
2.16315
2.16215
2.16087
2.15971
2.1575
2.15244
2.14623
2.14213
2.13897
2.13287
2.12545
2.1225
2.12134
2.12106
2.12353
2.12737
2.12654
2.12008
2.10795
2.08832
2.07008
2.06023
2.05622
2.05576
2.05581
1.81858
1.4586
0.999301
0.975761
1.01042
1.02725
1.023
0.989846
0.909976
0.908552
0.972817
1.08489
1.16101
1.1851
1.20664
1.25226
1.29661
1.34415
1.40134
1.47052
1.52415
1.54325
1.55495
1.57219
1.60143
1.62464
1.62456
1.6157
1.61063
1.6153
1.61806
1.6168
1.61912
1.62397
1.63087
1.63807
1.64094
1.64003
1.63732
1.63433
1.63321
1.63456
1.64009
1.64569
1.64911
1.64962
1.64882
1.64895
1.64999
1.65142
1.65055
1.64858
1.64867
1.65041
1.65376
1.6558
1.65713
1.65983
1.66095
1.65992
1.65968
1.65947
1.65906
1.65908
1.65936
1.65929
1.6568
1.65233
1.64735
1.64243
1.6409
1.64391
1.65178
1.65619
1.65603
1.65183
1.64395
1.63373
1.62815
1.62753
1.63173
1.64
1.6427
1.64214
1.63952
1.63201
1.62411
1.62274
1.6266
1.63524
1.64017
1.64044
1.63866
1.63254
1.62424
1.621
1.62273
1.634
1.64184
1.64253
1.64005
1.63387
1.63462
1.66465
1.75101
1.87899
1.96812
2.03364
2.08938
2.15183
2.22992
2.30415
2.36426
2.41406
2.44634
2.47328
2.4759
2.47308
2.46459
2.45617
2.44654
2.43301
2.42454
2.41708
2.41289
2.41025
2.40671
2.4001
2.39192
2.38228
2.37154
2.36293
2.35736
2.3526
2.34741
2.34162
2.3327
2.32283
2.31489
2.3089
2.30334
2.29804
2.29442
2.29273
2.29164
2.28968
2.28529
2.27744
2.26842
2.26112
2.25499
2.24943
2.24417
2.23853
2.23301
2.22854
2.22305
2.21938
2.21816
2.21619
2.21251
2.20458
2.19323
2.18314
2.17488
2.16602
2.15845
2.15468
2.15287
2.1513
2.1493
2.14666
2.14363
2.13981
2.13269
2.12495
2.11969
2.11748
2.11772
2.11785
2.11851
2.11989
2.11733
2.11061
2.10103
2.09189
2.08437
2.07445
2.06044
2.05283
2.05149
2.04959
1.95633
1.75527
1.51825
1.30906
1.26747
1.21102
1.12649
1.07426
1.07656
1.05678
1.03974
1.0491
1.07459
1.07859
1.07569
1.07651
1.09788
1.15107
1.21578
1.27605
1.34633
1.39379
1.4351
1.4621
1.48837
1.51412
1.5338
1.55317
1.56975
1.57748
1.57578
1.57049
1.57016
1.57162
1.57978
1.59151
1.5906
1.58864
1.58966
1.59481
1.60192
1.60998
1.61685
1.62051
1.6217
1.62078
1.61907
1.61748
1.61497
1.61194
1.60928
1.60893
1.61236
1.62137
1.63036
1.6361
1.63859
1.63866
1.6365
1.63352
1.63203
1.63285
1.63556
1.63635
1.63636
1.63446
1.62978
1.62584
1.62461
1.62643
1.63511
1.64287
1.64418
1.64218
1.6328
1.61997
1.61272
1.61117
1.61473
1.62397
1.62886
1.62866
1.62258
1.61397
1.61134
1.61119
1.61318
1.62156
1.62776
1.62864
1.62485
1.61411
1.6077
1.6069
1.60905
1.61719
1.62569
1.62742
1.62241
1.61294
1.6142
1.63393
1.70906
1.84995
1.94108
2.01402
2.01809
2.00072
1.9931
1.99734
2.02042
2.05562
2.10788
2.16561
2.2281
2.28158
2.31801
2.34424
2.36422
2.37754
2.38749
2.38583
2.38041
2.37148
2.36022
2.35209
2.3461
2.34048
2.33563
2.33058
2.32602
2.32136
2.31514
2.30675
2.29774
2.28912
2.28003
2.27306
2.26753
2.26364
2.26078
2.25756
2.2545
2.25199
2.24952
2.24695
2.24382
2.23943
2.23408
2.22785
2.22137
2.21481
2.20808
2.20242
2.19866
2.19511
2.19102
2.18785
2.18499
2.18249
2.17918
2.1734
2.16514
2.15583
2.14692
2.1402
2.13606
2.13309
2.12924
2.12552
2.12286
2.12078
2.11855
2.11642
2.11345
2.10883
2.10002
2.09364
2.09415
2.09481
2.09435
2.09269
2.08955
2.08481
2.07932
2.07337
2.06576
2.05551
2.04775
2.04254
2.03678
2.03038
2.02918
1.87892
1.71074
1.55896
1.47877
1.39897
1.2904
1.24039
1.21494
1.17647
1.14086
1.13217
1.13208
1.13
1.1177
1.10868
1.11518
1.14012
1.14371
1.15058
1.17193
1.2049
1.25552
1.32302
1.37497
1.40176
1.42497
1.45631
1.48874
1.49964
1.50213
1.50238
1.50294
1.50634
1.51608
1.52727
1.53053
1.53324
1.54036
1.55016
1.55835
1.56669
1.56872
1.56727
1.56467
1.56424
1.56512
1.56742
1.56766
1.56625
1.56491
1.56576
1.57022
1.57807
1.58494
1.58879
1.58978
1.58834
1.58518
1.58486
1.5862
1.59068
1.59537
1.59621
1.59588
1.59465
1.59296
1.59249
1.5945
1.60103
1.60781
1.60866
1.60697
1.60248
1.59351
1.58595
1.58394
1.58634
1.59505
1.59837
1.59588
1.59147
1.58534
1.58212
1.58208
1.58569
1.5945
1.59973
1.59868
1.59577
1.59004
1.5831
1.58044
1.58188
1.58957
1.59952
1.59962
1.59317
1.59227
1.60103
1.65693
1.76833
1.88735
1.98611
1.99718
1.98138
1.9619
1.94882
1.94156
1.93713
1.92818
1.91441
1.91241
1.92704
1.97045
2.03646
2.10995
2.17545
2.22973
2.25876
2.28078
2.28702
2.2929
2.29259
2.29012
2.28499
2.2774
2.26978
2.26611
2.26224
2.25854
2.25452
2.2484
2.23951
2.22802
2.21551
2.20627
2.20123
2.19894
2.19913
2.19968
2.19866
2.19655
2.19313
2.18922
2.1856
2.18232
2.17919
2.17503
2.16946
2.16333
2.1569
2.15078
2.1462
2.14218
2.13811
2.13524
2.13287
2.12989
2.12602
2.12069
2.11436
2.10654
2.10023
2.09661
2.09384
2.08995
2.08333
2.07757
2.07466
2.07321
2.07244
2.07245
2.07238
2.07137
2.06793
2.05701
2.04591
2.0424
2.04064
2.03957
2.0381
2.03642
2.03451
2.03156
2.02629
2.02067
2.01741
2.01385
2.00653
1.99494
1.98393
2.07578
1.95479
1.83103
1.70085
1.61403
1.53364
1.42977
1.37307
1.34605
1.32223
1.28737
1.24852
1.21393
1.20724
1.19662
1.17553
1.17209
1.17249
1.16714
1.15952
1.16374
1.1627
1.16423
1.18239
1.21679
1.25196
1.29437
1.34754
1.40276
1.42539
1.43787
1.4503
1.454
1.45891
1.46924
1.47924
1.48808
1.49561
1.50108
1.50649
1.51151
1.51745
1.52102
1.52032
1.5186
1.51924
1.52466
1.53087
1.53305
1.53339
1.53191
1.52986
1.53072
1.53348
1.53691
1.54015
1.54159
1.54296
1.54434
1.54685
1.55084
1.55583
1.55922
1.55998
1.56005
1.56012
1.56004
1.56042
1.56207
1.56403
1.56423
1.56363
1.5611
1.55721
1.55489
1.55468
1.55566
1.56029
1.56136
1.55803
1.55398
1.54956
1.54842
1.54945
1.55295
1.55907
1.56108
1.56025
1.5584
1.55415
1.55078
1.5506
1.55266
1.55813
1.56341
1.56349
1.56075
1.56767
1.60175
1.69438
1.81733
1.91787
1.9701
1.9628
1.95087
1.94117
1.93021
1.92396
1.91787
1.90631
1.89099
1.87643
1.8646
1.85805
1.85565
1.86661
1.89917
1.95364
2.03092
2.09625
2.15634
2.18358
2.20654
2.21716
2.22604
2.22451
2.22
2.2191
2.22124
2.2196
2.21391
2.20666
2.19788
2.18806
2.17652
2.16201
2.15142
2.14758
2.14793
2.14951
2.14984
2.14887
2.14611
2.14162
2.13565
2.13049
2.12662
2.12291
2.11873
2.11377
2.10848
2.10277
2.09736
2.09279
2.08821
2.08358
2.07944
2.07546
2.07043
2.06365
2.0563
2.05049
2.04772
2.04645
2.04571
2.04371
2.0393
2.03009
2.02149
2.0191
2.01845
2.01817
2.01849
2.01785
2.01534
2.01036
2.00201
1.99471
1.98915
1.9838
1.97959
1.97668
1.97408
1.97192
1.97044
1.96948
1.96876
1.96737
1.96355
1.95671
1.9447
1.9292
2.11737
2.00639
1.90363
1.80136
1.7105
1.63167
1.55417
1.49341
1.45086
1.42027
1.39124
1.36099
1.32272
1.28856
1.26316
1.23689
1.22838
1.22606
1.22119
1.21285
1.20435
1.19394
1.18232
1.18289
1.18493
1.18969
1.20225
1.22764
1.27082
1.3158
1.34611
1.37844
1.40153
1.41507
1.42699
1.44047
1.45647
1.47247
1.47977
1.48269
1.48567
1.4881
1.48817
1.48843
1.49024
1.49611
1.50783
1.51437
1.51499
1.51434
1.51111
1.50721
1.50644
1.5067
1.50667
1.50867
1.5137
1.51833
1.52237
1.52577
1.52871
1.53154
1.53249
1.53227
1.53178
1.5318
1.5319
1.53223
1.53261
1.53239
1.53095
1.52868
1.5265
1.52568
1.52655
1.52964
1.53278
1.53245
1.52908
1.52489
1.52083
1.51973
1.52016
1.52371
1.52728
1.52765
1.52731
1.52619
1.52235
1.51918
1.51923
1.52178
1.52845
1.53265
1.53289
1.53624
1.55734
1.62675
1.74269
1.86119
1.91067
1.94356
1.94637
1.94026
1.92751
1.91578
1.90745
1.90178
1.89573
1.88683
1.87605
1.86482
1.85633
1.8492
1.84367
1.84027
1.83694
1.83848
1.8528
1.88961
1.94971
2.02156
2.08136
2.12528
2.15623
2.17624
2.17388
2.17705
2.18021
2.17848
2.17631
2.17468
2.1716
2.16497
2.15575
2.14502
2.13359
2.12477
2.12038
2.11769
2.11591
2.11498
2.11335
2.10916
2.10106
2.09468
2.09068
2.08659
2.08145
2.07567
2.06961
2.06334
2.05741
2.0521
2.04706
2.04164
2.03538
2.02939
2.02363
2.01606
2.00965
2.0078
2.00708
2.00665
2.00526
2.00273
1.99829
1.9899
1.97971
1.97642
1.97605
1.97565
1.97365
1.96961
1.96369
1.95788
1.95465
1.95214
1.94806
1.94058
1.93067
1.92327
1.91899
1.91638
1.91486
1.91499
1.91703
1.91509
1.91149
1.90689
1.89983
1.88669
2.15272
2.05327
1.95954
1.87519
1.7922
1.71275
1.64971
1.59791
1.55212
1.50716
1.47297
1.43495
1.39675
1.36524
1.33668
1.30823
1.30171
1.29349
1.28106
1.27094
1.26048
1.24465
1.21972
1.20604
1.20371
1.20177
1.20412
1.21004
1.21433
1.22032
1.22813
1.24568
1.28418
1.32187
1.35464
1.3859
1.41632
1.45004
1.46438
1.46802
1.47444
1.47711
1.47201
1.4704
1.47581
1.48668
1.49856
1.50202
1.50138
1.50086
1.49815
1.49332
1.49277
1.493
1.49465
1.49929
1.50485
1.50812
1.50979
1.51098
1.51235
1.51404
1.51461
1.51425
1.51447
1.51451
1.51446
1.51448
1.51442
1.51369
1.51268
1.51203
1.51175
1.51267
1.51522
1.51628
1.51551
1.51247
1.508
1.50433
1.50304
1.50314
1.50552
1.50642
1.50637
1.50573
1.50377
1.50069
1.49938
1.49999
1.50281
1.50766
1.51148
1.51374
1.52668
1.57658
1.68415
1.80376
1.87414
1.92353
1.93715
1.93469
1.92614
1.91366
1.90439
1.89823
1.89557
1.8885
1.87991
1.87219
1.86494
1.8595
1.85499
1.85033
1.84443
1.83643
1.83021
1.82604
1.82257
1.81979
1.82245
1.83836
1.87462
1.93512
1.9954
2.05495
2.09839
2.12936
2.133
2.13524
2.13852
2.14294
2.15062
2.15098
2.14921
2.14561
2.13789
2.12646
2.11592
2.10919
2.10447
2.10039
2.09621
2.09024
2.08135
2.07612
2.07293
2.06933
2.06417
2.057
2.04868
2.04123
2.03523
2.03006
2.02509
2.01919
2.01176
2.00337
1.99622
1.99113
1.98858
1.9873
1.98589
1.98391
1.98093
1.97681
1.97174
1.96621
1.96001
1.95246
1.94563
1.94126
1.93756
1.93352
1.93009
1.92782
1.92566
1.92239
1.91846
1.91151
1.89818
1.88541
1.8819
1.88103
1.88098
1.88228
1.881
1.87782
1.87363
1.86935
1.86529
1.85742
2.17867
2.0901
2.01035
1.93488
1.85779
1.78535
1.73055
1.67519
1.62429
1.58703
1.54767
1.50391
1.45621
1.4253
1.39691
1.37111
1.36312
1.3536
1.3403
1.32672
1.31085
1.29093
1.26429
1.25101
1.24657
1.23958
1.23483
1.23366
1.23052
1.22466
1.21386
1.20791
1.21127
1.22268
1.24614
1.28588
1.32839
1.36802
1.3935
1.40947
1.42461
1.44184
1.45174
1.46263
1.47839
1.49141
1.49429
1.49366
1.49021
1.48671
1.48362
1.48178
1.48195
1.48434
1.49067
1.49758
1.50132
1.50344
1.50356
1.50321
1.50338
1.50388
1.5041
1.50543
1.50701
1.50748
1.50701
1.50629
1.50525
1.50444
1.50442
1.50521
1.50695
1.50843
1.50852
1.50736
1.50472
1.50059
1.49672
1.4952
1.49512
1.49603
1.49561
1.49481
1.49388
1.4916
1.48873
1.48788
1.48863
1.49237
1.4971
1.49982
1.50654
1.53745
1.62774
1.75394
1.85012
1.90674
1.93505
1.93419
1.9267
1.91368
1.90552
1.90108
1.90016
1.89558
1.88599
1.87578
1.86666
1.86147
1.85837
1.85674
1.85375
1.84871
1.84117
1.8322
1.82646
1.82213
1.81726
1.81227
1.80685
1.7991
1.79092
1.79346
1.80891
1.84852
1.90975
1.97433
2.02983
2.07733
2.1072
2.11561
2.12478
2.13336
2.14086
2.14031
2.13704
2.13034
2.11944
2.11132
2.10477
2.09838
2.09117
2.08266
2.07341
2.06676
2.06279
2.05928
2.05479
2.04763
2.03703
2.02551
2.01796
2.01374
2.0104
2.00684
2.00199
1.99499
1.98575
1.98082
1.97921
1.9776
1.97532
1.97202
1.9677
1.96275
1.95819
1.95452
1.95007
1.94197
1.93008
1.92181
1.91747
1.9133
1.90939
1.90854
1.90724
1.90252
1.89817
1.89325
1.88505
1.87319
1.86346
1.85899
1.85621
1.85328
1.85071
1.8493
1.84907
1.84714
1.84552
1.84085
2.1985
2.12212
2.05321
1.98377
1.91031
1.84933
1.79292
1.74097
1.69046
1.64876
1.6057
1.55818
1.51746
1.48715
1.4602
1.43472
1.42012
1.4045
1.38838
1.37561
1.35921
1.33513
1.30617
1.29742
1.29329
1.2868
1.27958
1.27177
1.26135
1.24496
1.22381
1.21568
1.21547
1.21821
1.22305
1.23091
1.24128
1.25497
1.27395
1.2944
1.31756
1.35278
1.39091
1.42959
1.46307
1.48605
1.48983
1.49074
1.48803
1.47889
1.4736
1.47322
1.47592
1.48218
1.48963
1.49279
1.49551
1.49857
1.49819
1.49597
1.49574
1.49649
1.49972
1.50475
1.50726
1.50713
1.50483
1.50112
1.4994
1.49881
1.49874
1.49992
1.50246
1.50331
1.50303
1.50162
1.49843
1.49468
1.4925
1.49168
1.49137
1.49014
1.48878
1.48734
1.48529
1.48324
1.48258
1.48349
1.48668
1.49072
1.49446
1.51166
1.58132
1.70294
1.81546
1.89005
1.9337
1.93486
1.92896
1.9192
1.90885
1.90324
1.90261
1.90086
1.89349
1.88446
1.87327
1.8646
1.85889
1.8558
1.85516
1.85299
1.84893
1.84325
1.83567
1.82822
1.8234
1.819
1.81472
1.80727
1.79789
1.78895
1.7805
1.77362
1.76853
1.76446
1.7703
1.78866
1.83319
1.89181
1.95786
2.01568
2.06674
2.09072
2.10704
2.11841
2.12323
2.12181
2.1199
2.11588
2.11068
2.10303
2.09387
2.08326
2.07364
2.06439
2.05756
2.05239
2.04729
2.04115
2.03219
2.02153
2.01286
2.00695
2.0033
2.00042
1.99738
1.99248
1.98339
1.97606
1.97339
1.97168
1.96925
1.96581
1.96133
1.95621
1.95169
1.94778
1.94332
1.93639
1.92483
1.91317
1.90729
1.90334
1.89979
1.89884
1.89556
1.89014
1.88574
1.88227
1.87854
1.87255
1.86128
1.84855
1.84055
1.83669
1.83512
1.83433
1.83811
1.84097
1.83948
1.83464
2.21338
2.14873
2.08676
2.02002
1.95718
1.90202
1.84695
1.79226
1.74761
1.70065
1.65707
1.61338
1.57378
1.54304
1.51423
1.49325
1.47746
1.46054
1.43803
1.4161
1.39393
1.36881
1.34539
1.34072
1.33552
1.32767
1.32188
1.3152
1.30347
1.28123
1.2545
1.24221
1.23732
1.23389
1.23573
1.23765
1.23762
1.23456
1.22846
1.2252
1.22929
1.24808
1.28432
1.33304
1.39041
1.43026
1.4576
1.47078
1.47776
1.47688
1.46853
1.4675
1.47289
1.48296
1.48575
1.48477
1.48553
1.48662
1.48426
1.48287
1.48434
1.48853
1.49807
1.50732
1.50934
1.50914
1.50536
1.49805
1.4941
1.49294
1.49256
1.49388
1.49717
1.49822
1.49797
1.49681
1.49385
1.49138
1.49029
1.4894
1.48789
1.4862
1.48464
1.48292
1.48091
1.48032
1.4809
1.48283
1.48512
1.49276
1.5351
1.644
1.77611
1.87749
1.92503
1.92504
1.92738
1.92501
1.92243
1.91593
1.90811
1.90106
1.89481
1.88758
1.88006
1.87254
1.86428
1.85807
1.8559
1.85355
1.85021
1.84677
1.84248
1.83711
1.83015
1.825
1.8202
1.81379
1.80571
1.79676
1.78768
1.78005
1.77443
1.76782
1.76155
1.75639
1.75057
1.74637
1.74667
1.75405
1.77681
1.81828
1.87738
1.94216
2.00043
2.04414
2.07867
2.10116
2.10824
2.10778
2.10383
2.09674
2.09108
2.08439
2.07491
2.06542
2.05396
2.04319
2.03732
2.03416
2.02945
2.02334
2.01495
2.0057
2.00013
1.99659
1.993
1.98819
1.98149
1.9738
1.96737
1.96269
1.9597
1.95742
1.95485
1.9508
1.94637
1.94156
1.93661
1.9312
1.92422
1.91469
1.9044
1.89699
1.89149
1.88589
1.88075
1.87754
1.87797
1.876
1.87264
1.8684
1.86024
1.8468
1.83447
1.8296
1.82801
1.82726
1.82727
1.82744
1.82731
1.82298
2.22658
2.17116
2.11312
2.05151
1.99824
1.94435
1.88875
1.8387
1.79472
1.74871
1.70221
1.66403
1.63019
1.5987
1.56901
1.54474
1.52386
1.50304
1.48248
1.46087
1.43572
1.40327
1.38535
1.38131
1.37461
1.36595
1.35932
1.35039
1.33491
1.3098
1.289
1.28203
1.27716
1.27221
1.26635
1.25918
1.25077
1.24021
1.22848
1.22269
1.22271
1.22432
1.23047
1.24516
1.27781
1.31232
1.3472
1.3814
1.41012
1.43757
1.45028
1.46118
1.4788
1.48796
1.48859
1.48731
1.48224
1.47505
1.47055
1.47163
1.47551
1.4834
1.49703
1.50486
1.5059
1.50574
1.50165
1.49421
1.49052
1.48924
1.48867
1.48978
1.49267
1.4931
1.4923
1.49038
1.4883
1.4874
1.48672
1.48596
1.48481
1.48346
1.48202
1.48089
1.48042
1.47967
1.48001
1.48257
1.50331
1.57789
1.71373
1.84973
1.90975
1.92471
1.93049
1.93089
1.92821
1.92198
1.91387
1.90529
1.89759