/*--------------------------------*- C++ -*----------------------------------*\
  =========                 |
  \\      /  F ield         | OpenFOAM: The Open Source CFD Toolbox
   \\    /   O peration     | Website:  https://openfoam.org
    \\  /    A nd           | Version:  10
     \\/     M anipulation  |
\*---------------------------------------------------------------------------*/
FoamFile
{
    format      ascii;
    class       volVectorField;
    location    "1.5";
    object      U;
}
// * * * * * * * * * * * * * * * * * * * * * * * * * * * * * * * * * * * * * //

dimensions      [0 1 -1 0 0 0 0];

internalField   nonuniform List<vector> 
16128
(
(3 -6.01435e-15 0)
(3 6.97665e-15 0)
(3 2.29033e-14 0)
(3 4.05441e-14 0)
(3 1.6307e-14 0)
(3 -6.52628e-14 0)
(3 -6.4177e-14 0)
(3 -2.51518e-14 0)
(3 -1.93092e-14 0)
(3 -2.30921e-16 0)
(3 1.5368e-14 0)
(3 -5.27561e-14 0)
(3 -6.66649e-14 0)
(3 -5.25454e-14 0)
(3 -9.53012e-14 0)
(3 -8.04505e-14 0)
(3 -3.01341e-14 0)
(3 -1.55096e-14 0)
(3 -5.6426e-14 0)
(3 -4.92787e-14 0)
(3 -1.99258e-14 0)
(3 -1.63344e-14 0)
(3 2.00495e-15 0)
(3 -2.20979e-14 0)
(3 -1.27224e-14 0)
(1.97637 0.00680235 0)
(0.797408 0.00867783 0)
(0.703695 0.0157606 0)
(0.673519 0.0136921 0)
(0.64319 0.0124934 0)
(0.614499 0.0121581 0)
(0.583893 0.0133642 0)
(0.550165 0.0156969 0)
(0.514074 0.0171611 0)
(0.479126 0.0164449 0)
(0.447929 0.0151407 0)
(0.418966 0.0145011 0)
(0.39043 0.014074 0)
(0.362049 0.0136767 0)
(0.332728 0.0142866 0)
(0.300184 0.0153668 0)
(0.265025 0.0163638 0)
(0.228422 0.0172566 0)
(0.190881 0.018377 0)
(0.151435 0.0192108 0)
(0.112966 0.0208379 0)
(0.0692609 0.0226332 0)
(0.0240643 0.0231118 0)
(3 -1.02718e-14 0)
(3 -2.3539e-16 0)
(3 4.33255e-14 0)
(3 6.36137e-14 0)
(3 5.96e-14 0)
(3 -1.99141e-14 0)
(3 -3.83698e-14 0)
(3 -1.92593e-14 0)
(3 1.54683e-14 0)
(3 -3.69497e-16 0)
(3 2.1054e-14 0)
(3 -4.39526e-14 0)
(3 -8.39085e-14 0)
(3 -1.15491e-13 0)
(3 -9.47907e-14 0)
(3 -1.61563e-14 0)
(3 9.79118e-16 0)
(3 -6.41218e-15 0)
(3 8.66089e-15 0)
(3 1.19744e-14 0)
(3 1.00786e-14 0)
(3 -5.62742e-14 0)
(3 -8.17164e-14 0)
(3 -9.49163e-14 0)
(3 -2.71947e-14 0)
(1.99079 0.0335214 0)
(0.791422 0.0388231 0)
(0.693679 0.0449421 0)
(0.665711 0.0390609 0)
(0.636204 0.0362509 0)
(0.607148 0.0359405 0)
(0.575326 0.0396792 0)
(0.540466 0.046119 0)
(0.503973 0.0494602 0)
(0.470011 0.0470717 0)
(0.440198 0.0438277 0)
(0.412119 0.0427073 0)
(0.383842 0.0419164 0)
(0.355232 0.040988 0)
(0.325458 0.0427675 0)
(0.292596 0.0458459 0)
(0.257775 0.0486462 0)
(0.222437 0.0514186 0)
(0.186562 0.0551896 0)
(0.148937 0.0582016 0)
(0.111297 0.063477 0)
(0.0677501 0.06912 0)
(0.024009 0.0697795 0)
(3 -5.49673e-15 0)
(3 -1.4777e-14 0)
(3 4.64605e-15 0)
(3 2.21493e-14 0)
(3 7.60176e-14 0)
(3 9.52817e-14 0)
(3 9.28552e-15 0)
(3 -1.09538e-14 0)
(3 3.16663e-14 0)
(3 -2.37076e-14 0)
(3 -6.08561e-14 0)
(3 -6.69413e-15 0)
(3 4.70832e-15 0)
(3 4.76503e-15 0)
(3 1.87566e-14 0)
(3 7.65495e-14 0)
(3 6.43492e-14 0)
(3 4.58157e-14 0)
(3 7.79458e-14 0)
(3 6.78591e-14 0)
(3 2.74444e-14 0)
(3 1.52259e-15 0)
(3 -2.99859e-14 0)
(3 -3.84793e-15 0)
(3 -7.67529e-15 0)
(2.04847 0.0640553 0)
(0.800047 0.0718958 0)
(0.696591 0.0738226 0)
(0.669832 0.0647702 0)
(0.639325 0.0613122 0)
(0.608511 0.0622055 0)
(0.574339 0.0691604 0)
(0.53718 0.0790313 0)
(0.499161 0.0825511 0)
(0.465612 0.0774299 0)
(0.436822 0.072168 0)
(0.409549 0.0709717 0)
(0.381542 0.0703857 0)
(0.352366 0.0693635 0)
(0.321189 0.0723244 0)
(0.286836 0.0772555 0)
(0.251102 0.0814694 0)
(0.215832 0.0854831 0)
(0.180341 0.0907948 0)
(0.143651 0.0952204 0)
(0.106785 0.104313 0)
(0.0641812 0.113738 0)
(0.0234064 0.114524 0)
(3 -5.379e-15 0)
(3 -2.8756e-14 0)
(3 -4.05357e-14 0)
(3 1.6062e-16 0)
(3 2.57529e-14 0)
(3 2.41196e-14 0)
(3 4.3825e-14 0)
(3 4.86205e-14 0)
(3 1.65884e-14 0)
(3 8.61375e-15 0)
(3 -9.11048e-15 0)
(3 -7.35377e-15 0)
(3 4.54396e-14 0)
(3 7.6243e-14 0)
(3 6.54195e-14 0)
(3 4.14227e-14 0)
(3 4.39298e-14 0)
(3 7.04631e-14 0)
(3 5.37395e-14 0)
(3 5.01949e-14 0)
(3 5.85248e-14 0)
(3 9.84397e-14 0)
(3 1.43633e-13 0)
(3 1.28998e-13 0)
(3 1.06874e-13 0)
(2.1455 0.0874523 0)
(0.818106 0.102318 0)
(0.706313 0.0999426 0)
(0.679866 0.0892825 0)
(0.647879 0.0865977 0)
(0.615047 0.0898695 0)
(0.578744 0.100621 0)
(0.539706 0.113068 0)
(0.50095 0.115146 0)
(0.468702 0.106758 0)
(0.441179 0.0996809 0)
(0.414779 0.0988495 0)
(0.386933 0.0991956 0)
(0.35678 0.0989646 0)
(0.323722 0.103808 0)
(0.287353 0.111035 0)
(0.249854 0.11667 0)
(0.213366 0.121417 0)
(0.176508 0.127218 0)
(0.139256 0.131824 0)
(0.102476 0.144225 0)
(0.0596602 0.156136 0)
(0.0258892 0.157701 0)
(3 2.8752e-16 0)
(3 9.9435e-16 0)
(3 3.59779e-14 0)
(3 6.34203e-14 0)
(3 3.52955e-14 0)
(3 1.81361e-14 0)
(3 3.44627e-14 0)
(3 6.8081e-15 0)
(3 -4.982e-14 0)
(3 -2.72036e-14 0)
(3 1.28915e-14 0)
(3 1.51085e-14 0)
(3 4.00859e-14 0)
(3 4.92854e-14 0)
(3 8.02659e-14 0)
(3 1.83308e-14 0)
(3 2.68254e-14 0)
(3 4.8971e-14 0)
(3 1.22753e-14 0)
(3 -2.44394e-15 0)
(3 2.80465e-14 0)
(3 1.13041e-13 0)
(3 1.2403e-13 0)
(3 1.47363e-13 0)
(3 1.62917e-13 0)
(2.26483 0.106383 0)
(0.836947 0.132393 0)
(0.709437 0.126676 0)
(0.682362 0.115361 0)
(0.649105 0.114242 0)
(0.614869 0.120225 0)
(0.578023 0.134039 0)
(0.539993 0.146734 0)
(0.504894 0.145533 0)
(0.477681 0.133765 0)
(0.452375 0.125486 0)
(0.426735 0.125774 0)
(0.398422 0.128132 0)
(0.366409 0.1298 0)
(0.331092 0.13717 0)
(0.292651 0.146958 0)
(0.253267 0.154122 0)
(0.215011 0.159595 0)
(0.175687 0.165829 0)
(0.135346 0.16984 0)
(0.0965985 0.184357 0)
(0.0538161 0.194377 0)
(0.0385665 0.198067 0)
(3 5.8639e-15 0)
(3 5.85943e-14 0)
(3 9.11961e-14 0)
(3 9.61983e-14 0)
(3 7.72244e-14 0)
(3 6.62752e-14 0)
(3 3.13997e-14 0)
(3 -6.31476e-14 0)
(3 -1.16278e-13 0)
(3 -1.16933e-13 0)
(3 -1.0647e-13 0)
(3 -7.98216e-14 0)
(3 -4.5393e-14 0)
(3 -2.87455e-14 0)
(3 -1.24632e-14 0)
(3 -4.69455e-14 0)
(3 -4.04019e-14 0)
(3 -2.86625e-15 0)
(3 -3.34955e-14 0)
(3 9.15598e-15 0)
(3 -1.37638e-15 0)
(3 2.41043e-14 0)
(3 7.57915e-14 0)
(3 1.09255e-13 0)
(3 1.05637e-13 0)
(2.41186 0.121796 0)
(0.862516 0.164205 0)
(0.7133 0.152783 0)
(0.684676 0.14161 0)
(0.649987 0.142487 0)
(0.615231 0.15124 0)
(0.580594 0.166883 0)
(0.547128 0.176815 0)
(0.518832 0.170503 0)
(0.494845 0.156843 0)
(0.46906 0.149962 0)
(0.442083 0.153355 0)
(0.411581 0.159185 0)
(0.376724 0.16331 0)
(0.339207 0.173022 0)
(0.299299 0.185061 0)
(0.258773 0.193606 0)
(0.219376 0.199807 0)
(0.178466 0.206725 0)
(0.136427 0.210367 0)
(0.0972042 0.225795 0)
(0.0539118 0.230395 0)
(0.040441 0.239134 0)
(3 -6.82593e-15 0)
(3 -1.75726e-14 0)
(3 -2.31693e-14 0)
(3 -3.27887e-14 0)
(3 2.65779e-14 0)
(3 4.48229e-14 0)
(3 7.35355e-14 0)
(3 4.58713e-14 0)
(3 -7.89902e-15 0)
(3 -7.63077e-14 0)
(3 -8.94915e-14 0)
(3 -5.49343e-14 0)
(3 -5.07981e-14 0)
(3 -8.77549e-14 0)
(3 -1.00125e-13 0)
(3 -1.07698e-13 0)
(3 -1.15714e-13 0)
(3 -1.27286e-13 0)
(3 -8.07327e-14 0)
(3 6.88498e-16 0)
(3 -1.12266e-14 0)
(3 -2.0887e-14 0)
(3 1.86688e-14 0)
(3 5.14994e-14 0)
(3 2.46246e-14 0)
(2.58427 0.129081 0)
(0.901161 0.196677 0)
(0.72094 0.179486 0)
(0.691468 0.169496 0)
(0.656858 0.171428 0)
(0.624269 0.181761 0)
(0.593683 0.195983 0)
(0.565171 0.199873 0)
(0.540408 0.190947 0)
(0.515175 0.179669 0)
(0.486576 0.176678 0)
(0.456551 0.184036 0)
(0.42324 0.19337 0)
(0.386017 0.199348 0)
(0.347382 0.210561 0)
(0.307272 0.224269 0)
(0.266718 0.233912 0)
(0.227047 0.240611 0)
(0.18566 0.248147 0)
(0.14263 0.252105 0)
(0.102465 0.268072 0)
(0.0573676 0.270301 0)
(0.0383356 0.28113 0)
(3 6.34466e-15 0)
(3 1.32174e-14 0)
(3 -1.4133e-15 0)
(3 -2.14788e-14 0)
(3 -2.74674e-14 0)
(3 -2.28827e-14 0)
(3 8.53349e-15 0)
(3 1.30969e-13 0)
(3 1.13037e-13 0)
(3 8.26841e-15 0)
(3 -8.68983e-15 0)
(3 -4.10697e-15 0)
(3 -3.96167e-14 0)
(3 -6.41738e-14 0)
(3 -8.54756e-14 0)
(3 -3.60344e-14 0)
(3 -2.87337e-14 0)
(3 -6.26765e-14 0)
(3 -3.33517e-14 0)
(3 -2.88458e-14 0)
(3 7.87297e-15 0)
(3 4.5678e-14 0)
(3 4.9983e-14 0)
(3 1.1349e-13 0)
(3 5.70601e-14 0)
(2.76841 0.124141 0)
(0.958523 0.225864 0)
(0.735928 0.204093 0)
(0.709232 0.194477 0)
(0.676401 0.197396 0)
(0.645657 0.207317 0)
(0.616223 0.218353 0)
(0.587996 0.220237 0)
(0.561131 0.213404 0)
(0.532525 0.205973 0)
(0.500752 0.207421 0)
(0.467431 0.218596 0)
(0.431363 0.230621 0)
(0.392746 0.237307 0)
(0.354846 0.248893 0)
(0.316535 0.263643 0)
(0.277156 0.274243 0)
(0.237531 0.28162 0)
(0.195667 0.28993 0)
(0.152962 0.294531 0)
(0.112084 0.310756 0)
(0.0650626 0.317839 0)
(0.0193311 0.320711 0)
(3 9.74097e-15 0)
(3 4.031e-14 0)
(3 -7.16722e-16 0)
(3 -7.21787e-15 0)
(3 -1.73675e-14 0)
(3 -1.78118e-14 0)
(3 -6.67205e-15 0)
(3 2.72932e-15 0)
(3 3.07842e-14 0)
(3 6.09044e-14 0)
(3 6.63757e-14 0)
(3 3.97517e-14 0)
(3 -4.11911e-14 0)
(3 -2.81023e-14 0)
(3 -6.37668e-14 0)
(3 -6.60426e-14 0)
(3 -5.11357e-14 0)
(3 1.48129e-14 0)
(3 2.03523e-14 0)
(3 3.59148e-14 0)
(3 8.14557e-14 0)
(3 1.22844e-13 0)
(3 1.3025e-13 0)
(3 1.03157e-13 0)
(3 6.49425e-14 0)
(2.93223 0.0731659 0)
(1.02798 0.254742 0)
(0.754742 0.221857 0)
(0.72996 0.215827 0)
(0.698216 0.22229 0)
(0.667269 0.233295 0)
(0.636217 0.244116 0)
(0.604408 0.247267 0)
(0.571846 0.242664 0)
(0.537844 0.237593 0)
(0.503113 0.24169 0)
(0.47028 0.255245 0)
(0.437269 0.268455 0)
(0.402683 0.274477 0)
(0.368373 0.285111 0)
(0.332598 0.300647 0)
(0.293818 0.313239 0)
(0.253054 0.322954 0)
(0.208995 0.333156 0)
(0.163641 0.338781 0)
(0.118887 0.354473 0)
(0.0722628 0.371255 0)
(0.00996903 0.367773 0)
(3 1.34363e-14 0)
(3 -2.07162e-14 0)
(3 -3.23506e-14 0)
(3 -2.93697e-14 0)
(3 -2.43114e-14 0)
(3 -1.69282e-14 0)
(3 -2.69056e-14 0)
(3 -2.4377e-14 0)
(3 1.46948e-14 0)
(3 6.43557e-14 0)
(3 6.61328e-14 0)
(3 3.13981e-14 0)
(3 -1.19572e-14 0)
(3 -2.11459e-14 0)
(3 -6.67868e-14 0)
(3 -7.2703e-14 0)
(3 -3.36101e-14 0)
(3 9.68537e-15 0)
(3 4.1097e-14 0)
(3 7.67144e-14 0)
(3 9.04611e-14 0)
(3 7.87762e-14 0)
(3 2.17955e-14 0)
(3 -6.84609e-14 0)
(3 -2.79266e-14 0)
(3.01366 0.00882012 0)
(1.11974 0.267529 0)
(0.764394 0.243247 0)
(0.731869 0.24449 0)
(0.700311 0.253435 0)
(0.668444 0.26494 0)
(0.637208 0.274697 0)
(0.606318 0.277468 0)
(0.576075 0.273303 0)
(0.545143 0.268891 0)
(0.513488 0.273597 0)
(0.48367 0.287602 0)
(0.45327 0.301334 0)
(0.420294 0.308116 0)
(0.385949 0.320061 0)
(0.349165 0.338665 0)
(0.307693 0.355109 0)
(0.263902 0.368195 0)
(0.216915 0.380636 0)
(0.170055 0.387369 0)
(0.122554 0.402228 0)
(0.0760708 0.425707 0)
(0.00565782 0.419654 0)
(3 -5.46818e-15 0)
(3 -4.62633e-14 0)
(3 -1.25933e-14 0)
(3 -9.50733e-15 0)
(3 -3.48539e-14 0)
(3 -2.59513e-14 0)
(3 -4.52642e-14 0)
(3 -5.52827e-14 0)
(3 -5.21954e-14 0)
(3 -4.48053e-14 0)
(3 -5.10049e-14 0)
(3 -1.00416e-13 0)
(3 -8.80359e-14 0)
(3 -1.15651e-13 0)
(3 -9.01829e-14 0)
(3 -3.68679e-14 0)
(3 2.95728e-14 0)
(3 7.87105e-14 0)
(3 6.22375e-14 0)
(3 3.49228e-14 0)
(3 5.21927e-15 0)
(3 3.06382e-14 0)
(3 2.35551e-14 0)
(3 2.85674e-14 0)
(3 -4.91002e-14 0)
(3.00061 4.4035e-05 0)
(1.26262 0.297979 0)
(0.761475 0.2717 0)
(0.717463 0.266805 0)
(0.689266 0.278008 0)
(0.660364 0.290909 0)
(0.632283 0.300639 0)
(0.604575 0.303731 0)
(0.577003 0.300709 0)
(0.54788 0.297645 0)
(0.517434 0.303751 0)
(0.488337 0.319492 0)
(0.458147 0.335598 0)
(0.424876 0.344859 0)
(0.39024 0.358704 0)
(0.354487 0.380056 0)
(0.314845 0.399628 0)
(0.273168 0.414835 0)
(0.228739 0.428937 0)
(0.1826 0.436892 0)
(0.13367 0.452859 0)
(0.085744 0.48204 0)
(0.0098961 0.477378 0)
(3 -1.11667e-14 0)
(3 -1.03998e-14 0)
(3 -2.91866e-15 0)
(3 -3.84733e-14 0)
(3 -2.48967e-14 0)
(3 4.59774e-15 0)
(3 -1.25484e-15 0)
(3 -4.84069e-14 0)
(3 -7.26475e-14 0)
(3 -1.11276e-13 0)
(3 -1.23543e-13 0)
(3 -1.20251e-13 0)
(3 -9.14768e-14 0)
(3 -1.11012e-13 0)
(3 -1.18644e-13 0)
(3 -4.25357e-14 0)
(3 -1.27186e-14 0)
(3 -2.69973e-14 0)
(3 -5.39196e-14 0)
(3 -4.00066e-14 0)
(3 4.03089e-15 0)
(3 2.80252e-14 0)
(3 4.82312e-14 0)
(3 4.13103e-14 0)
(3 -2.90835e-14 0)
(3 -8.01108e-08 0)
(1.4896 0.331203 0)
(0.776391 0.311142 0)
(0.709401 0.294943 0)
(0.680295 0.304073 0)
(0.6539 0.316589 0)
(0.628563 0.325949 0)
(0.603029 0.329385 0)
(0.576645 0.327855 0)
(0.548184 0.326084 0)
(0.518405 0.333031 0)
(0.490348 0.350053 0)
(0.461561 0.368551 0)
(0.429327 0.380429 0)
(0.395937 0.396065 0)
(0.363202 0.419734 0)
(0.326891 0.442435 0)
(0.287249 0.45975 0)
(0.245077 0.477025 0)
(0.197714 0.489247 0)
(0.145925 0.51098 0)
(0.0935014 0.545617 0)
(0.0154252 0.543274 0)
(3 4.62397e-15 0)
(3 -7.65416e-15 0)
(3 -1.06495e-14 0)
(3 -2.38105e-14 0)
(3 -3.79212e-14 0)
(3 -7.02194e-14 0)
(3 -6.59931e-14 0)
(3 -2.7768e-14 0)
(3 -2.01125e-15 0)
(3 1.12801e-14 0)
(3 3.40284e-14 0)
(3 1.06663e-14 0)
(3 -4.61354e-14 0)
(3 -6.11818e-14 0)
(3 -4.9818e-14 0)
(3 -2.45507e-14 0)
(3 -1.25779e-14 0)
(3 -6.03841e-14 0)
(3 -1.14158e-13 0)
(3 -1.34493e-13 0)
(3 -9.63783e-14 0)
(3 -9.56717e-14 0)
(3 -9.59869e-14 0)
(3 -1.62687e-13 0)
(3 -1.35283e-13 0)
(3 -2.00593e-08 0)
(1.80986 0.36857 0)
(0.807776 0.36585 0)
(0.722203 0.332818 0)
(0.694933 0.334247 0)
(0.669475 0.343294 0)
(0.6439 0.351426 0)
(0.617347 0.355931 0)
(0.589701 0.356565 0)
(0.560308 0.356054 0)
(0.529842 0.363116 0)
(0.501616 0.380698 0)
(0.473532 0.401334 0)
(0.441723 0.41573 0)
(0.409624 0.432944 0)
(0.37912 0.458376 0)
(0.345951 0.484565 0)
(0.307479 0.504945 0)
(0.267651 0.526972 0)
(0.220787 0.544429 0)
(0.169084 0.575951 0)
(0.107546 0.614506 0)
(0.0417796 0.617353 0)
(3 3.98234e-16 0)
(3 -2.14277e-14 0)
(3 -4.3319e-14 0)
(3 -1.77078e-14 0)
(3 -4.72553e-14 0)
(3 -9.06801e-14 0)
(3 -2.16461e-14 0)
(3 -1.76753e-14 0)
(3 -1.44525e-14 0)
(3 1.03399e-13 0)
(3 1.07505e-13 0)
(3 1.17149e-13 0)
(3 1.04599e-13 0)
(3 1.08595e-13 0)
(3 1.22488e-13 0)
(3 1.95764e-15 0)
(3 -6.35124e-14 0)
(3 -8.08984e-14 0)
(3 -5.64449e-14 0)
(3 -3.97943e-14 0)
(3 -6.18356e-14 0)
(3 -1.27167e-13 0)
(3 -1.06261e-13 0)
(3 -1.54125e-13 0)
(3 -1.70596e-13 0)
(3 -2.30079e-09 0)
(2.26724 0.374597 0)
(0.87999 0.407554 0)
(0.776658 0.352197 0)
(0.749637 0.353657 0)
(0.716983 0.364788 0)
(0.684479 0.375922 0)
(0.652715 0.382304 0)
(0.62177 0.384628 0)
(0.590072 0.385472 0)
(0.557407 0.39254 0)
(0.52725 0.410538 0)
(0.49863 0.433434 0)
(0.466124 0.450526 0)
(0.434485 0.46926 0)
(0.404806 0.496344 0)
(0.373938 0.526464 0)
(0.337218 0.550571 0)
(0.298708 0.579191 0)
(0.247418 0.606838 0)
(0.189243 0.654799 0)
(0.117925 0.700248 0)
(0.0650112 0.716305 0)
(3 5.51687e-16 0)
(3 2.99344e-14 0)
(3 1.84942e-14 0)
(3 4.48947e-14 0)
(3 4.43278e-14 0)
(3 7.0346e-14 0)
(3 7.82879e-14 0)
(3 4.08364e-14 0)
(3 4.48556e-15 0)
(3 3.08141e-15 0)
(3 -2.70719e-16 0)
(3 6.29383e-15 0)
(3 7.66996e-14 0)
(3 1.62331e-13 0)
(3 1.34717e-13 0)
(3 3.94316e-14 0)
(3 -3.52934e-14 0)
(3 -5.9253e-15 0)
(3 -4.98441e-16 0)
(3 5.14555e-14 0)
(3 5.18582e-14 0)
(3 -6.29968e-14 0)
(3 -1.14468e-13 0)
(3 -1.01287e-13 0)
(3 -1.32749e-13 0)
(3 -8.79601e-11 0)
(2.82768 0.216353 0)
(1.02706 0.42469 0)
(0.831646 0.369696 0)
(0.811345 0.38414 0)
(0.772082 0.396338 0)
(0.734838 0.405484 0)
(0.699925 0.41095 0)
(0.6669 0.414375 0)
(0.633698 0.417006 0)
(0.599179 0.423904 0)
(0.566645 0.441394 0)
(0.536843 0.465529 0)
(0.503845 0.485082 0)
(0.471921 0.505092 0)
(0.441693 0.53318 0)
(0.412782 0.567222 0)
(0.377231 0.597211 0)
(0.340281 0.635814 0)
(0.292708 0.676457 0)
(0.244261 0.740699 0)
(0.168971 0.796499 0)
(0.112661 0.8288 0)
(3 2.32518e-15 0)
(3 1.09721e-14 0)
(3 1.74353e-14 0)
(3 9.25883e-15 0)
(3 7.86447e-14 0)
(3 9.34325e-14 0)
(3 5.31207e-14 0)
(3 1.36221e-14 0)
(3 -5.917e-14 0)
(3 -8.99312e-14 0)
(3 -5.50192e-14 0)
(3 -5.37435e-14 0)
(3 3.81559e-15 0)
(3 4.64528e-14 0)
(3 1.22181e-13 0)
(3 2.00149e-13 0)
(3 1.00595e-13 0)
(3 1.23274e-14 0)
(3 -3.37064e-14 0)
(3 -4.59203e-14 0)
(3 -6.00673e-14 0)
(3 -2.58537e-14 0)
(3 -2.37935e-14 0)
(3 3.29004e-14 0)
(3 4.63409e-14 0)
(3 -7.02945e-13 0)
(3.0499 0.0210705 0)
(1.18508 0.403623 0)
(0.839651 0.397527 0)
(0.821329 0.42759 0)
(0.7869 0.43634 0)
(0.759646 0.438885 0)
(0.734252 0.440084 0)
(0.707395 0.442728 0)
(0.678237 0.447327 0)
(0.645505 0.455546 0)
(0.612436 0.473325 0)
(0.581603 0.499468 0)
(0.549114 0.522174 0)
(0.517273 0.543908 0)
(0.486534 0.572313 0)
(0.4603 0.60988 0)
(0.427973 0.645267 0)
(0.39889 0.690962 0)
(0.356538 0.739174 0)
(0.315351 0.832298 0)
(0.213631 0.95084 0)
(0.164878 1.05046 0)
(3 -1.4877e-14 0)
(3 -4.80206e-14 0)
(3 -6.34118e-14 0)
(3 -2.63022e-14 0)
(3 -1.83895e-14 0)
(3 -1.36932e-14 0)
(3 -1.24449e-14 0)
(3 -2.71017e-14 0)
(3 -1.49436e-14 0)
(3 -2.8876e-14 0)
(3 -3.24206e-14 0)
(3 3.82027e-14 0)
(3 9.95914e-14 0)
(3 1.24159e-13 0)
(3 1.59747e-13 0)
(3 1.03987e-13 0)
(3 9.10727e-14 0)
(3 1.74714e-14 0)
(3 1.98705e-14 0)
(3 -1.24292e-13 0)
(3 -1.38333e-13 0)
(3 -8.8922e-14 0)
(3 -1.42153e-14 0)
(3 9.77558e-14 0)
(3 1.29973e-13 0)
(3 1.00347e-13 0)
(3.0025 9.7788e-05 0)
(1.36891 0.408535 0)
(0.816981 0.417023 0)
(0.79707 0.445568 0)
(0.774239 0.455334 0)
(0.754682 0.459 0)
(0.736981 0.464315 0)
(0.718519 0.470567 0)
(0.698369 0.478597 0)
(0.67448 0.489419 0)
(0.647614 0.507424 0)
(0.622525 0.534065 0)
(0.595579 0.558525 0)
(0.5682 0.581432 0)
(0.54006 0.609103 0)
(0.518402 0.649009 0)
(0.490368 0.688403 0)
(0.469467 0.742115 0)
(0.433094 0.811497 0)
(0.415219 0.941834 0)
(0.405209 1.09956 0)
(0.554094 1.35147 0)
(3 -6.33255e-15 0)
(3 -4.12257e-15 0)
(3 -2.56092e-14 0)
(3 -1.84671e-14 0)
(3 -3.3244e-14 0)
(3 -2.58345e-14 0)
(3 -1.51525e-14 0)
(3 -2.74202e-14 0)
(3 4.13912e-14 0)
(3 4.59598e-14 0)
(3 6.83182e-14 0)
(3 9.74395e-14 0)
(3 4.84148e-14 0)
(3 2.57078e-14 0)
(3 2.14417e-14 0)
(3 -3.89426e-14 0)
(3 -2.12773e-14 0)
(3 4.98182e-14 0)
(3 3.39778e-14 0)
(3 -3.35117e-14 0)
(3 -4.69298e-14 0)
(3 -4.78812e-14 0)
(3 -2.78609e-14 0)
(3 1.06615e-14 0)
(3 5.13144e-14 0)
(3 9.25623e-14 0)
(3.00001 -4.17029e-07 0)
(1.71041 0.444396 0)
(0.831166 0.455882 0)
(0.774827 0.456132 0)
(0.770426 0.467595 0)
(0.757266 0.476382 0)
(0.74258 0.483939 0)
(0.726023 0.491193 0)
(0.709864 0.501262 0)
(0.692933 0.515335 0)
(0.673152 0.53475 0)
(0.655747 0.56244 0)
(0.636503 0.590258 0)
(0.61651 0.617638 0)
(0.593883 0.646672 0)
(0.579298 0.688516 0)
(0.559117 0.731994 0)
(0.54818 0.791859 0)
(0.535971 0.874918 0)
(0.548876 1.00699 0)
(0.637761 1.15911 0)
(0.952686 1.35385 0)
(3 1.42777e-14 0)
(3 3.66763e-14 0)
(3 4.98449e-14 0)
(3 2.60056e-14 0)
(3 5.42442e-14 0)
(3 4.738e-14 0)
(3 -1.25866e-14 0)
(3 -1.14734e-14 0)
(3 5.63545e-14 0)
(3 8.41045e-14 0)
(3 7.33831e-14 0)
(3 7.61696e-14 0)
(3 4.31086e-14 0)
(3 1.67419e-14 0)
(3 -2.16063e-14 0)
(3 -2.17926e-15 0)
(3 -3.69181e-14 0)
(3 -3.93664e-14 0)
(3 -4.2942e-14 0)
(3 9.09969e-15 0)
(3 2.90696e-14 0)
(3 5.38159e-15 0)
(3 -1.55526e-14 0)
(3 2.3042e-15 0)
(3 -1.00735e-15 0)
(3 -8.3131e-16 0)
(3 -1.70433e-07 0)
(2.30066 0.43997 0)
(0.92191 0.526351 0)
(0.812922 0.466532 0)
(0.800788 0.474551 0)
(0.783008 0.489997 0)
(0.763757 0.504909 0)
(0.743002 0.514378 0)
(0.724809 0.523937 0)
(0.710077 0.538489 0)
(0.694643 0.557884 0)
(0.68319 0.585359 0)
(0.670719 0.615166 0)
(0.660529 0.646318 0)
(0.646077 0.677135 0)
(0.64029 0.719808 0)
(0.631665 0.767596 0)
(0.633185 0.83057 0)
(0.64406 0.915374 0)
(0.690478 1.02817 0)
(0.839164 1.16314 0)
(1.16036 1.2878 0)
(3 -1.13314e-14 0)
(3 1.42826e-14 0)
(3 3.11361e-14 0)
(3 4.11659e-14 0)
(3 7.11345e-14 0)
(3 7.86186e-14 0)
(3 4.25376e-14 0)
(3 6.22884e-14 0)
(3 7.24047e-14 0)
(3 4.58487e-14 0)
(3 -1.70044e-14 0)
(3 3.97408e-14 0)
(3 4.35753e-14 0)
(3 3.86399e-14 0)
(3 5.92182e-14 0)
(3 -1.38962e-14 0)
(3 -5.1507e-14 0)
(3 -6.29515e-14 0)
(3 -4.73598e-14 0)
(3 -5.02449e-14 0)
(3 -6.49286e-14 0)
(3 -6.22032e-14 0)
(3 -2.41202e-14 0)
(3 -6.64479e-15 0)
(3 -1.69146e-14 0)
(3 -1.47581e-14 0)
(3 -2.4473e-08 0)
(2.9923 0.155956 0)
(1.14242 0.53139 0)
(0.885195 0.486219 0)
(0.854695 0.499432 0)
(0.82731 0.515016 0)
(0.800775 0.529274 0)
(0.774543 0.539069 0)
(0.751287 0.546167 0)
(0.734006 0.559653 0)
(0.718567 0.577987 0)
(0.709188 0.604388 0)
(0.700765 0.634926 0)
(0.698034 0.669044 0)
(0.692059 0.703325 0)
(0.695314 0.746855 0)
(0.699586 0.797505 0)
(0.716979 0.860209 0)
(0.745334 0.940575 0)
(0.821209 1.03672 0)
(0.988555 1.14092 0)
(1.25884 1.21637 0)
(3 -5.32545e-15 0)
(3 1.52014e-14 0)
(3 -2.35677e-15 0)
(3 4.25582e-15 0)
(3 -1.14072e-14 0)
(3 1.65896e-14 0)
(3 5.4481e-14 0)
(3 1.31439e-13 0)
(3 9.33772e-14 0)
(3 6.79671e-14 0)
(3 5.88929e-14 0)
(3 -9.89682e-15 0)
(3 -5.17694e-14 0)
(3 -6.97478e-14 0)
(3 -5.50459e-14 0)
(3 -2.52503e-14 0)
(3 4.68718e-14 0)
(3 6.51545e-14 0)
(3 -1.21668e-14 0)
(3 -1.45451e-13 0)
(3 -1.12098e-13 0)
(3 -6.26653e-14 0)
(3 -2.34175e-14 0)
(3 2.56263e-14 0)
(3 6.88936e-14 0)
(3 9.77018e-14 0)
(3 -1.41264e-09 0)
(3.03459 0.0060284 0)
(1.33697 0.498872 0)
(0.898125 0.539118 0)
(0.857336 0.53557 0)
(0.83427 0.547098 0)
(0.815112 0.560557 0)
(0.794525 0.571353 0)
(0.773955 0.575039 0)
(0.757622 0.584694 0)
(0.743524 0.599363 0)
(0.736123 0.622406 0)
(0.730579 0.650981 0)
(0.7325 0.68497 0)
(0.733746 0.720957 0)
(0.744417 0.763815 0)
(0.759816 0.814612 0)
(0.791066 0.875012 0)
(0.835687 0.94936 0)
(0.92938 1.03144 0)
(1.09242 1.10607 0)
(1.31412 1.15322 0)
(3 2.65528e-14 0)
(3 6.18335e-15 0)
(3 -2.11054e-15 0)
(3 -6.75813e-15 0)
(3 -3.46242e-14 0)
(3 -1.78673e-14 0)
(3 1.44192e-14 0)
(3 1.24761e-14 0)
(3 3.98261e-14 0)
(3 1.07491e-13 0)
(3 1.02134e-13 0)
(3 3.44789e-14 0)
(3 -9.75185e-15 0)
(3 -2.71916e-14 0)
(3 -6.08368e-14 0)
(3 -9.47805e-14 0)
(3 -5.48746e-14 0)
(3 -7.59875e-14 0)
(3 -9.66105e-14 0)
(3 -1.16645e-13 0)
(3 -1.27364e-13 0)
(3 -1.99683e-14 0)
(3 9.02197e-14 0)
(3 1.09763e-13 0)
(3 1.08843e-13 0)
(3 7.74336e-14 0)
(3 -1.87917e-11 0)
(3.00058 -2.67103e-06 0)
(1.7306 0.510489 0)
(0.903803 0.571928 0)
(0.858071 0.555583 0)
(0.846895 0.567363 0)
(0.833488 0.580965 0)
(0.819547 0.593327 0)
(0.80285 0.597169 0)
(0.787995 0.605176 0)
(0.774761 0.61783 0)
(0.767547 0.639008 0)
(0.763295 0.66588 0)
(0.766989 0.698662 0)
(0.772822 0.734808 0)
(0.78844 0.776155 0)
(0.81207 0.824374 0)
(0.852788 0.879578 0)
(0.911168 0.946657 0)
(1.01276 1.01594 0)
(1.16157 1.06975 0)
(1.34677 1.09842 0)
(3 1.7944e-14 0)
(3 -3.589e-15 0)
(3 3.58191e-14 0)
(3 4.22552e-14 0)
(3 5.0426e-14 0)
(3 1.65335e-14 0)
(3 1.27801e-14 0)
(3 6.24219e-16 0)
(3 2.20508e-14 0)
(3 5.11131e-14 0)
(3 4.42893e-14 0)
(3 3.77771e-14 0)
(3 4.96748e-14 0)
(3 1.41687e-14 0)
(3 -7.67664e-14 0)
(3 -1.13829e-13 0)
(3 -1.60555e-13 0)
(3 -1.05112e-13 0)
(3 -8.34912e-14 0)
(3 2.06299e-14 0)
(3 -2.40069e-15 0)
(3 1.23347e-14 0)
(3 2.19805e-14 0)
(3 2.85457e-14 0)
(3 -1.3708e-14 0)
(3 -5.31773e-14 0)
(3 -2.02252e-13 0)
(3 -1.56831e-06 0)
(2.47528 0.427708 0)
(1.00705 0.618142 0)
(0.90047 0.561818 0)
(0.885414 0.575314 0)
(0.866981 0.59285 0)
(0.852962 0.609918 0)
(0.837276 0.617833 0)
(0.823631 0.625346 0)
(0.811724 0.635975 0)
(0.804138 0.655307 0)
(0.800176 0.6805 0)
(0.803707 0.711406 0)
(0.81172 0.745563 0)
(0.829515 0.783654 0)
(0.857431 0.827372 0)
(0.903168 0.875903 0)
(0.969434 0.933287 0)
(1.07223 0.992106 0)
(1.20591 1.0341 0)
(1.3637 1.05296 0)
(3 -5.33913e-15 0)
(3 1.12682e-14 0)
(3 4.17065e-14 0)
(3 2.74969e-14 0)
(3 1.86221e-14 0)
(3 -7.83999e-14 0)
(3 -9.99019e-14 0)
(3 -9.27708e-14 0)
(3 -3.89154e-14 0)
(3 -2.58353e-14 0)
(3 -4.72787e-14 0)
(3 -4.70129e-14 0)
(3 -8.65043e-15 0)
(3 4.5903e-14 0)
(3 5.57485e-14 0)
(3 1.98515e-14 0)
(3 -1.51699e-14 0)
(3 -3.44035e-15 0)
(3 2.90356e-14 0)
(3 1.80272e-14 0)
(3 -1.71857e-14 0)
(3 -4.22712e-14 0)
(3 -1.15244e-13 0)
(3 -1.07787e-13 0)
(3 -1.00301e-13 0)
(3 -4.8403e-14 0)
(3 -4.91443e-14 0)
(3 -5.9607e-07 0)
(3.08379 0.0700003 0)
(1.28154 0.598704 0)
(0.959515 0.587287 0)
(0.934651 0.607984 0)
(0.909337 0.616315 0)
(0.890508 0.627947 0)
(0.874578 0.635377 0)
(0.860754 0.643521 0)
(0.84912 0.654615 0)
(0.841451 0.673585 0)
(0.838539 0.697399 0)
(0.842298 0.725905 0)
(0.851727 0.757322 0)
(0.870276 0.791827 0)
(0.900096 0.829812 0)
(0.947384 0.8706 0)
(1.01488 0.916417 0)
(1.11323 0.964866 0)
(1.23003 0.997574 0)
(1.37074 1.01171 0)
(3 -2.27718e-15 0)
(3 3.45988e-15 0)
(3 -9.69457e-15 0)
(3 -2.06761e-14 0)
(3 -5.22032e-14 0)
(3 -7.41486e-14 0)
(3 -4.48915e-14 0)
(3 -3.00625e-14 0)
(3 -4.08539e-14 0)
(3 -7.33163e-14 0)
(3 -5.49782e-14 0)
(3 -3.86222e-14 0)
(3 -5.04459e-14 0)
(3 -1.29711e-14 0)
(3 2.53577e-14 0)
(3 4.73171e-14 0)
(3 8.18288e-14 0)
(3 4.2671e-14 0)
(3 -2.47211e-15 0)
(3 -4.74298e-14 0)
(3 -9.16599e-14 0)
(3 -1.54797e-13 0)
(3 -1.63668e-13 0)
(3 -1.54709e-13 0)
(3 -7.10421e-14 0)
(3 -1.56187e-14 0)
(3 4.35234e-14 0)
(3 -6.92764e-08 0)
(3.01207 0.000481008 0)
(1.56093 0.576374 0)
(0.954408 0.644199 0)
(0.93279 0.641268 0)
(0.918971 0.644963 0)
(0.907338 0.651359 0)
(0.896728 0.65809 0)
(0.887282 0.666 0)
(0.879997 0.675095 0)
(0.876298 0.691191 0)
(0.876964 0.71304 0)
(0.882655 0.739677 0)
(0.893361 0.76829 0)
(0.911751 0.799025 0)
(0.942488 0.831835 0)
(0.989349 0.86538 0)
(1.05451 0.902817 0)
(1.14494 0.940658 0)
(1.24972 0.966054 0)
(1.37585 0.978659 0)
(3 -1.04208e-14 0)
(3 -2.51696e-14 0)
(3 -5.06042e-14 0)
(3 -4.41691e-14 0)
(3 -1.43113e-14 0)
(3 -9.9977e-15 0)
(3 3.0697e-14 0)
(3 3.21983e-14 0)
(3 -9.4406e-15 0)
(3 -6.33931e-14 0)
(3 -1.85767e-14 0)
(3 2.97783e-14 0)
(3 1.23333e-14 0)
(3 -4.55455e-15 0)
(3 8.89419e-15 0)
(3 9.47597e-14 0)
(3 1.11987e-13 0)
(3 8.21595e-14 0)
(3 2.79926e-14 0)
(3 -8.35899e-14 0)
(3 -1.15652e-13 0)
(3 -1.42728e-13 0)
(3 -1.35389e-13 0)
(3 -1.33035e-13 0)
(3 -1.40625e-13 0)
(3 -1.21931e-13 0)
(3 -4.17801e-14 0)
(3 -2.4746e-09 0)
(3.00008 -3.07983e-06 0)
(2.30243 0.508726 0)
(1.03834 0.684664 0)
(0.95238 0.644772 0)
(0.943211 0.65602 0)
(0.930505 0.66605 0)
(0.921583 0.673372 0)
(0.915336 0.681125 0)
(0.911462 0.689882 0)
(0.911154 0.70565 0)
(0.915015 0.727111 0)
(0.923451 0.752729 0)
(0.934962 0.779552 0)
(0.954281 0.806728 0)
(0.985799 0.83337 0)
(1.03009 0.859998 0)
(1.09046 0.89061 0)
(1.16954 0.917508 0)
(1.26325 0.936591 0)
(1.37252 0.948101 0)
(3 -2.47277e-15 0)
(3 6.68892e-15 0)
(3 3.8192e-15 0)
(3 -2.6669e-14 0)
(3 -1.53602e-14 0)
(3 -3.77579e-15 0)
(3 -7.76757e-15 0)
(3 -3.28559e-14 0)
(3 -1.41719e-14 0)
(3 1.61553e-14 0)
(3 -5.27456e-15 0)
(3 -6.35624e-15 0)
(3 -1.58107e-14 0)
(3 -7.03007e-15 0)
(3 1.41292e-14 0)
(3 5.15719e-14 0)
(3 4.63344e-14 0)
(3 3.33832e-14 0)
(3 -6.23572e-15 0)
(3 -6.44002e-14 0)
(3 -1.01274e-13 0)
(3 -1.40345e-13 0)
(3 -1.43564e-13 0)
(3 -1.10881e-13 0)
(3 -8.3952e-14 0)
(3 -1.02487e-13 0)
(3 -6.93691e-14 0)
(3 -6.29301e-12 0)
(3.00001 -2.40935e-06 0)
(3.0718 0.103204 0)
(1.31451 0.668912 0)
(1.01045 0.662972 0)
(0.987803 0.672322 0)
(0.968573 0.681312 0)
(0.955927 0.687449 0)
(0.94843 0.693957 0)
(0.944706 0.702252 0)
(0.945715 0.717712 0)
(0.950963 0.739342 0)
(0.962218 0.766169 0)
(0.974745 0.790714 0)
(0.996155 0.814945 0)
(1.02865 0.837298 0)
(1.07125 0.859358 0)
(1.12733 0.882892 0)
(1.19665 0.901715 0)
(1.28114 0.916896 0)
(1.37543 0.926606 0)
(3 2.19833e-14 0)
(3 5.11197e-14 0)
(3 1.9227e-14 0)
(3 -1.04789e-14 0)
(3 -3.61545e-14 0)
(3 -2.32561e-14 0)
(3 -2.36658e-15 0)
(3 -8.28956e-15 0)
(3 2.90473e-15 0)
(3 2.21719e-14 0)
(3 6.66756e-15 0)
(3 2.44732e-14 0)
(3 2.30222e-14 0)
(3 4.23742e-15 0)
(3 -3.31945e-14 0)
(3 -2.13384e-14 0)
(3 -5.7528e-14 0)
(3 -4.25838e-14 0)
(3 -4.24286e-14 0)
(3 1.64751e-14 0)
(3 3.26353e-14 0)
(3 -2.49761e-14 0)
(3 -1.37993e-13 0)
(3 -1.44784e-13 0)
(3 -8.69976e-14 0)
(3 4.43083e-16 0)
(3 5.55376e-14 0)
(3 2.02071e-14 0)
(3 -4.14318e-07 0)
(3.01762 0.0010097 0)
(1.64021 0.638918 0)
(1.01372 0.717289 0)
(0.993384 0.705249 0)
(0.988329 0.712463 0)
(0.984982 0.716189 0)
(0.980857 0.718062 0)
(0.978333 0.721125 0)
(0.980089 0.733023 0)
(0.986237 0.751657 0)
(0.999162 0.77617 0)
(1.01378 0.79919 0)
(1.03626 0.818199 0)
(1.06874 0.837724 0)
(1.11016 0.855579 0)
(1.16146 0.872079 0)
(1.22274 0.885545 0)
(1.29744 0.897761 0)
(1.37893 0.904636 0)
(3 -4.7334e-15 0)
(3 -1.19085e-14 0)
(3 -3.8564e-14 0)
(3 -3.57226e-14 0)
(3 -2.48173e-14 0)
(3 -3.2576e-15 0)
(3 4.5907e-15 0)
(3 3.7832e-14 0)
(3 1.7781e-14 0)
(3 2.56468e-14 0)
(3 1.83787e-14 0)
(3 -4.5689e-14 0)
(3 -1.58563e-14 0)
(3 -2.84404e-14 0)
(3 4.07245e-15 0)
(3 -6.53851e-14 0)
(3 -8.52436e-14 0)
(3 -7.42652e-14 0)
(3 1.68923e-15 0)
(3 3.11939e-14 0)
(3 7.78753e-15 0)
(3 3.07563e-14 0)
(3 -3.21399e-14 0)
(3 -5.38636e-14 0)
(3 -5.31769e-14 0)
(3 4.20406e-14 0)
(3 -5.61454e-15 0)
(3 8.76137e-14 0)
(3 -2.68348e-08 0)
(3.00015 -1.38138e-06 0)
(2.47752 0.469664 0)
(1.12444 0.735158 0)
(1.02369 0.711017 0)
(1.0216 0.715497 0)
(1.02213 0.723868 0)
(1.01978 0.73016 0)
(1.01767 0.733656 0)
(1.01805 0.744326 0)
(1.02238 0.761894 0)
(1.03424 0.787149 0)
(1.04984 0.80805 0)
(1.07338 0.82561 0)
(1.10537 0.842147 0)
(1.14606 0.856629 0)
(1.19359 0.868731 0)
(1.24961 0.879004 0)
(1.31608 0.888236 0)
(1.38831 0.891691 0)
(3 -9.8453e-15 0)
(3 -2.03716e-14 0)
(3 -1.06927e-14 0)
(3 -6.27743e-15 0)
(3 -1.11858e-14 0)
(3 4.80385e-14 0)
(3 5.03884e-14 0)
(3 2.80677e-14 0)
(3 -3.63757e-15 0)
(3 -4.68933e-15 0)
(3 8.06053e-15 0)
(3 -6.98399e-14 0)
(3 -9.06942e-14 0)
(3 -6.99498e-14 0)
(3 -4.73709e-14 0)
(3 -6.65593e-14 0)
(3 -1.0278e-13 0)
(3 -1.09339e-13 0)
(3 -4.90306e-14 0)
(3 4.49477e-14 0)
(3 4.0762e-14 0)
(3 4.35512e-14 0)
(3 5.12863e-14 0)
(3 3.90742e-14 0)
(3 -4.4774e-15 0)
(3 -4.44201e-14 0)
(3 -5.35944e-14 0)
(3 -5.99597e-15 0)
(3 -9.66595e-11 0)
(3.00001 -4.44965e-06 0)
(3.07317 0.0617572 0)
(1.41773 0.701327 0)
(1.07421 0.738165 0)
(1.06368 0.737133 0)
(1.05085 0.745122 0)
(1.04435 0.750267 0)
(1.04365 0.753764 0)
(1.04642 0.761556 0)
(1.05299 0.775696 0)
(1.06546 0.796169 0)
(1.08296 0.812371 0)
(1.10714 0.827368 0)
(1.13818 0.840485 0)
(1.17672 0.85192 0)
(1.22071 0.861268 0)
(1.27279 0.86936 0)
(1.33209 0.876119 0)
(1.39838 0.877867 0)
(3 -8.60354e-15 0)
(3 -1.88448e-14 0)
(3 8.06848e-15 0)
(3 1.1724e-14 0)
(3 -1.10711e-15 0)
(3 1.5101e-14 0)
(3 3.50935e-14 0)
(3 1.46998e-14 0)
(3 1.78711e-14 0)
(3 -2.08472e-14 0)
(3 -3.061e-14 0)
(3 -6.15347e-14 0)
(3 -6.92836e-14 0)
(3 -5.90202e-14 0)
(3 -4.31511e-14 0)
(3 1.7522e-14 0)
(3 2.35468e-14 0)
(3 2.62697e-14 0)
(3 -1.47346e-14 0)
(3 -3.23879e-14 0)
(3 8.23044e-16 0)
(3 -1.55854e-14 0)
(3 4.58477e-14 0)
(3 9.83068e-14 0)
(3 6.33948e-14 0)
(3 -1.55792e-14 0)
(3 -1.08423e-13 0)
(3 -1.20788e-13 0)
(3 -2.11617e-13 0)
(3 -8.44501e-07 0)
(3.00792 0.000568599 0)
(1.94931 0.664154 0)
(1.10101 0.788593 0)