/*--------------------------------*- C++ -*----------------------------------*\
  =========                 |
  \\      /  F ield         | OpenFOAM: The Open Source CFD Toolbox
   \\    /   O peration     | Website:  https://openfoam.org
    \\  /    A nd           | Version:  10
     \\/     M anipulation  |
\*---------------------------------------------------------------------------*/
FoamFile
{
    format      ascii;
    class       volScalarField;
    location    "60";
    object      p;
}
// * * * * * * * * * * * * * * * * * * * * * * * * * * * * * * * * * * * * * //

dimensions      [0 2 -2 0 0 0 0];

internalField   nonuniform List<scalar> 
8800
(
0.786572
0.738785
0.700097
0.671103
0.650242
0.635415
0.624826
0.617355
0.612549
0.610511
0.611801
0.616009
0.622668
0.631993
0.644779
0.662518
0.687298
0.721241
0.763793
0.822495
0.617819
0.625498
0.632975
0.636284
0.634783
0.629708
0.623226
0.617157
0.612446
0.60962
0.609362
0.611889
0.616394
0.622351
0.629128
0.635414
0.639058
0.638324
0.632906
0.624218
0.59622
0.60238
0.606508
0.609454
0.611506
0.612114
0.611014
0.608919
0.606919
0.606033
0.607019
0.60942
0.612234
0.614425
0.615039
0.613845
0.611507
0.608116
0.603559
0.599798
0.590407
0.593057
0.59581
0.598215
0.599852
0.601017
0.601766
0.601894
0.601615
0.601589
0.602368
0.603559
0.604414
0.60449
0.603889
0.602803
0.600991
0.598423
0.596021
0.594518
0.585022
0.586446
0.588226
0.59026
0.592046
0.593392
0.594388
0.595197
0.59583
0.596421
0.597102
0.597621
0.597738
0.597463
0.596774
0.595532
0.593841
0.591996
0.59069
0.589858
0.57994
0.58086
0.582102
0.58367
0.585304
0.586834
0.588127
0.589207
0.590192
0.591115
0.591838
0.592193
0.59217
0.591745
0.590874
0.589681
0.588359
0.587103
0.586282
0.58573
0.575026
0.575696
0.576659
0.577962
0.579373
0.580836
0.582283
0.58362
0.584842
0.585983
0.586842
0.587241
0.587179
0.586686
0.585892
0.584953
0.583946
0.583027
0.582444
0.582038
0.570235
0.570751
0.571535
0.572666
0.573945
0.575324
0.576778
0.578266
0.579719
0.581093
0.582143
0.582649
0.582649
0.582283
0.581694
0.580978
0.580212
0.579533
0.579101
0.578783
0.565493
0.565904
0.56656
0.567567
0.568774
0.570106
0.57156
0.573132
0.574781
0.57642
0.577715
0.578413
0.578606
0.578459
0.578091
0.577586
0.577024
0.576537
0.576216
0.575958
0.560716
0.56105
0.561617
0.562545
0.563703
0.56502
0.56651
0.56818
0.570016
0.571945
0.573557
0.574549
0.575018
0.575122
0.574983
0.574701
0.574333
0.574006
0.573769
0.573552
0.555814
0.556091
0.556597
0.557478
0.558619
0.55996
0.561522
0.563332
0.565397
0.56766
0.569673
0.571043
0.571843
0.572234
0.572347
0.572289
0.572113
0.571926
0.571757
0.571569
0.5507
0.550933
0.551399
0.552265
0.553427
0.554835
0.556513
0.558516
0.560874
0.563552
0.566056
0.567881
0.569068
0.56979
0.570181
0.570354
0.570371
0.570313
0.570199
0.570033
0.545282
0.545479
0.545926
0.546805
0.54803
0.54955
0.551399
0.553662
0.556394
0.559593
0.562691
0.565056
0.566697
0.567794
0.5685
0.568918
0.569145
0.569207
0.56914
0.568987
0.539458
0.539628
0.540072
0.540993
0.542323
0.544006
0.546092
0.548695
0.551901
0.555746
0.559565
0.562575
0.564748
0.566278
0.56734
0.568055
0.568488
0.568666
0.568639
0.568495
0.533113
0.533258
0.533715
0.534709
0.536189
0.538094
0.540494
0.543532
0.547336
0.551973
0.556666
0.560448
0.563251
0.56529
0.566757
0.567792
0.568462
0.568762
0.568773
0.568633
0.526108
0.526228
0.526712
0.52781
0.529492
0.531689
0.534493
0.538082
0.542629
0.548237
0.553985
0.558688
0.562239
0.564878
0.566823
0.56823
0.569161
0.569586
0.569631
0.569491
0.518262
0.518361
0.518888
0.520126
0.522068
0.524636
0.527954
0.532239
0.537707
0.544501
0.551521
0.557324
0.561757
0.565101
0.567619
0.569457
0.570683
0.571239
0.571315
0.571172
0.509351
0.509452
0.510033
0.511427
0.513701
0.516752
0.520724
0.525881
0.532492
0.540734
0.549284
0.556392
0.561864
0.566037
0.569234
0.571577
0.573133
0.573828
0.573934
0.573784
0.499064
0.499146
0.499818
0.501437
0.504144
0.507814
0.512613
0.518869
0.526901
0.536912
0.547291
0.555936
0.562632
0.56778
0.571753
0.574691
0.576622
0.577464
0.577596
0.577435
0.487032
0.487099
0.48787
0.489802
0.493066
0.497531
0.503389
0.511036
0.520836
0.533001
0.545561
0.556009
0.564127
0.570411
0.575286
0.578917
0.581256
0.582246
0.582399
0.582224
0.472703
0.472759
0.473673
0.47602
0.480021
0.485532
0.492772
0.502203
0.514219
0.529003
0.54414
0.556681
0.566423
0.574015
0.579935
0.584341
0.587117
0.588251
0.588415
0.588223
0.455318
0.455362
0.456489
0.459418
0.464429
0.471356
0.480437
0.49219
0.506994
0.524952
0.5431
0.558029
0.569612
0.578671
0.585757
0.591026
0.594248
0.595506
0.59567
0.595457
0.43372
0.433763
0.435236
0.439046
0.445512
0.454432
0.466036
0.480858
0.499179
0.520947
0.542558
0.560151
0.573768
0.584452
0.592789
0.598988
0.602629
0.603972
0.604118
0.603884
0.40618
0.406242
0.408302
0.413531
0.422251
0.434099
0.449258
0.468154
0.490866
0.517136
0.542652
0.56315
0.578952
0.591373
0.601061
0.608168
0.612148
0.613511
0.613618
0.613362
0.369671
0.369831
0.373097
0.38094
0.393466
0.409784
0.43001
0.454259
0.482347
0.513805
0.543599
0.567162
0.585231
0.599439
0.610507
0.618411
0.622578
0.623868
0.623912
0.623639
0.3184
0.319375
0.325865
0.339077
0.358215
0.381444
0.408655
0.439665
0.474092
0.511317
0.545624
0.57231
0.592647
0.608587
0.620958
0.629442
0.633573
0.634686
0.634655
0.634371
0.243467
0.250717
0.265727
0.288987
0.317988
0.350475
0.386228
0.42503
0.466493
0.509975
0.549129
0.579177
0.601964
0.619808
0.63345
0.64234
0.646301
0.647222
0.647145
0.646898
0.162908
0.180072
0.204398
0.238362
0.277603
0.319481
0.363845
0.410631
0.459535
0.509976
0.554901
0.589144
0.614968
0.635114
0.65028
0.659356
0.66283
0.663477
0.663419
0.663263
0.0957725
0.115991
0.148019
0.191073
0.239363
0.290091
0.34281
0.397439
0.453648
0.510851
0.561281
0.599453
0.628112
0.650236
0.66631
0.675209
0.678335
0.67891
0.678907
0.678799
0.0407929
0.0626647
0.100199
0.149682
0.205127
0.263319
0.323432
0.385255
0.448325
0.511977
0.567654
0.609521
0.640755
0.66459
0.68158
0.690605
0.69366
0.694294
0.694327
0.694246
-0.00497166
0.0180784
0.0593957
0.113982
0.175177
0.239531
0.305997
0.374226
0.443598
0.513296
0.573951
0.619326
0.653017
0.678547
0.696522
0.705982
0.709276
0.709801
0.709857
0.709804
-0.043789
-0.0200737
0.0241054
0.0827357
0.148766
0.218368
0.290361
0.364289
0.439399
0.514726
0.580095
0.628834
0.664911
0.692118
0.711129
0.721243
0.724722
0.72529
0.725356
0.725332
-0.0776823
-0.0535319
-0.00708761
0.0548768
0.124995
0.19916
0.276048
0.355117
0.435511
0.516118
0.58597
0.637934
0.676304
0.70516
0.725155
0.735893
0.739689
0.740344
0.740433
0.740429
-0.108145
-0.0836125
-0.0353233
0.0294904
0.103132
0.181297
0.26258
0.346346
0.43165
0.517245
0.591379
0.646433
0.686979
0.717344
0.73833
0.749639
0.753756
0.754563
0.754656
0.75466
-0.136141
-0.111264
-0.0613972
0.00587236
0.0826152
0.164327
0.249563
0.337633
0.427527
0.517876
0.59615
0.654181
0.696795
0.728554
0.750427
0.762256
0.766643
0.76758
0.76766
0.767655
-0.162471
-0.137202
-0.0858802
-0.0164967
0.0630126
0.147887
0.236695
0.328725
0.422932
0.517848
0.60017
0.661106
0.705702
0.738768
0.761364
0.773574
0.778162
0.779178
0.77925
0.779229
-0.187511
-0.161839
-0.109286
-0.0379534
0.0440124
0.131724
0.223771
0.319451
0.417714
0.51704
0.603365
0.667209
0.713734
0.747995
0.771163
0.783659
0.788339
0.789395
0.789447
0.789402
-0.211683
-0.185497
-0.131915
-0.0587445
0.0254064
0.115663
0.210651
0.309689
0.411761
0.515355
0.605691
0.672502
0.720971
0.756369
0.780042
0.792611
0.797316
0.798368
0.798387
0.798319
-0.235123
-0.208513
-0.153822
-0.0790393
0.00706434
0.0996019
0.197247
0.299369
0.405007
0.512733
0.607118
0.677016
0.727524
0.764039
0.788075
0.800627
0.805268
0.806276
0.806282
0.806193
-0.257966
-0.23086
-0.175145
-0.0989311
-0.0110773
0.0834966
0.183527
0.288455
0.397414
0.509118
0.607599
0.680779
0.733502
0.771189
0.795499
0.80789
0.812362
0.813287
0.81325
0.813139
-0.280344
-0.252685
-0.195979
-0.118454
-0.0290512
0.0673373
0.1695
0.27696
0.388976
0.504473
0.607084
0.683791
0.739015
0.777984
0.80247
0.814536
0.818703
0.819485
0.819398
0.819266
-0.302286
-0.273982
-0.21636
-0.137614
-0.0468316
0.0511471
0.155201
0.264919
0.37971
0.498769
0.605511
0.686017
0.744123
0.784605
0.809206
0.820699
0.824367
0.824934
0.824798
0.824656
-0.323639
-0.294726
-0.236226
-0.156393
-0.0643934
0.034985
0.140684
0.252396
0.369668
0.492022
0.602808
0.687387
0.748825
0.791233
0.816006
0.826634
0.829487
0.829712
0.829522
0.829384
-0.344386
-0.314892
-0.255567
-0.174748
-0.0816843
0.0189045
0.126034
0.239465
0.358922
0.484251
0.598923
0.687779
0.753049
0.797985
0.823287
0.832866
0.834386
0.833918
0.833631
0.83355
-0.364595
-0.334447
-0.274361
-0.192655
-0.0986456
0.00298428
0.111334
0.226226
0.347559
0.475513
0.593805
0.687042
0.756622
0.804804
0.831434
0.840286
0.839955
0.837964
0.837286
0.837495
-0.384099
-0.353374
-0.292555
-0.210054
-0.115222
-0.0126958
0.0966756
0.212784
0.335689
0.465899
0.587439
0.684997
0.759271
0.811359
0.840459
0.849911
0.848165
0.84376
0.841225
0.840878
-0.402992
-0.371662
-0.31017
-0.226977
-0.131448
-0.028178
0.0820041
0.199084
0.323248
0.455338
0.579691
0.681368
0.760697
0.817141
0.849741
0.862052
0.861445
0.854814
0.846877
0.832928
-0.421203
-0.389297
-0.327318
-0.243625
-0.147601
-0.0437869
0.0669133
0.184659
0.309716
0.443212
0.569935
0.675398
0.760367
0.821465
0.857622
0.874619
0.875743
0.863013
0.843064
0.831677
-0.438559
-0.406419
-0.343811
-0.259799
-0.163333
-0.0591841
0.0516258
0.169824
0.29539
0.429768
0.558219
0.666589
0.757418
0.823151
0.859947
0.876782
0.880418
0.856789
0.789193
0.7589
-0.454395
-0.424279
-0.359325
-0.275016
-0.177853
-0.0738716
0.036456
0.154809
0.280483
0.415125
0.544459
0.654611
0.750373
0.821489
0.851656
0.863217
0.851406
0.796695
0.727578
0.685078
-0.509673
-0.440031
-0.373381
-0.290409
-0.192787
-0.0893132
0.0213353
0.139328
0.264624
0.398816
0.528029
0.638777
0.735276
0.812904
0.816665
0.818298
0.7673
0.69616
0.619215
0.576406
-0.471136
-0.455155
-0.394372
-0.310363
-0.214891
-0.111471
-0.00185951
0.115466
0.239748
0.372493
0.499763
0.608895
0.697657
0.780284
0.76567
0.650639
0.544351
0.470432
0.396627
0.426737
-0.501849
-0.472609
-0.410924
-0.327747
-0.232285
-0.128992
-0.0191235
0.0975506
0.220745
0.351664
0.476109
0.581002
0.660111
0.704167
0.654592
0.504087
0.375206
0.28313
0.18404
0.23372
-0.525494
-0.49332
-0.430429
-0.347107
-0.251528
-0.148343
-0.0385691
0.077257
0.199031
0.327518
0.448178
0.546824
0.617024
0.626403
0.518594
0.344651
0.191113
0.0716863
-0.059765
-0.0271258
-0.548618
-0.514918
-0.450849
-0.366604
-0.270949
-0.167922
-0.0586826
0.0561629
0.176317
0.301989
0.417902
0.508653
0.563548
0.541187
0.38158
0.184484
-0.00637613
-0.174658
-0.363346
-0.381984
-0.571145
-0.536994
-0.472034
-0.387014
-0.291221
-0.188422
-0.0798446
0.0338956
0.152171
0.274624
0.385077
0.467859
0.503062
0.44442
0.251209
0.0401349
-0.177463
-0.366928
-0.608951
-0.906261
-0.59396
-0.559801
-0.494301
-0.408795
-0.312819
-0.210196
-0.10221
0.0103876
0.126673
0.245639
0.350331
0.424542
0.438557
0.328835
0.137776
-0.0725816
-0.277176
-0.449694
-0.519247
-0.598213
-0.618017
-0.58379
-0.517991
-0.432258
-0.336235
-0.233882
-0.126583
-0.0153021
0.0986735
0.213622
0.312134
0.375229
0.364221
0.220847
0.036979
-0.154345
-0.317517
-0.410664
-0.434842
-0.450743
-0.64362
-0.609264
-0.543274
-0.457478
-0.361596
-0.259687
-0.153317
-0.0436578
0.0675885
0.177868
0.26972
0.318612
0.289907
0.120583
-0.0543483
-0.220601
-0.347428
-0.386654
-0.399547
-0.400872
-0.670968
-0.636394
-0.57021
-0.484448
-0.38885
-0.287614
-0.182429
-0.0747274
0.0333543
0.138387
0.222678
0.257154
0.208782
0.0279725
-0.137888
-0.286711
-0.363093
-0.380277
-0.381617
-0.381428
-0.700118
-0.665243
-0.598822
-0.513164
-0.418008
-0.317648
-0.21392
-0.108523
-0.00401637
0.0952604
0.171089
0.193788
0.109294
-0.0566378
-0.214171
-0.336796
-0.373614
-0.371986
-0.371093
-0.370488
-0.730782
-0.695623
-0.629001
-0.543533
-0.448981
-0.349732
-0.247755
-0.145016
-0.0444869
0.048595
0.115834
0.121643
0.0185902
-0.135335
-0.274771
-0.350371
-0.360958
-0.363856
-0.364627
-0.364361
-0.762403
-0.727089
-0.660488
-0.57532
-0.481575
-0.383701
-0.283779
-0.184071
-0.0878783
-0.00125262
0.0573657
0.0482308
-0.0629472
-0.202304
-0.319221
-0.351019
-0.359208
-0.360636
-0.360471
-0.360216
-0.794506
-0.759078
-0.692826
-0.608124
-0.51544
-0.41923
-0.321707
-0.225398
-0.133914
-0.0535858
-0.00530514
-0.0210756
-0.137739
-0.257435
-0.350596
-0.366188
-0.358419
-0.35754
-0.357488
-0.357272
-0.826189
-0.790852
-0.725122
-0.641342
-0.550022
-0.455836
-0.361084
-0.268519
-0.182125
-0.10782
-0.0692749
-0.0845421
-0.202719
-0.301721
-0.353873
-0.363699
-0.359674
-0.357322
-0.356298
-0.355932
-0.85586
-0.821223
-0.756394
-0.674039
-0.584538
-0.492808
-0.401244
-0.312757
-0.231702
-0.163421
-0.128046
-0.154944
-0.253415
-0.34176
-0.349206
-0.361313
-0.360864
-0.356885
-0.355303
-0.354591
-0.881903
-0.848353
-0.785499
-0.704998
-0.617934
-0.529193
-0.441309
-0.357254
-0.281549
-0.219571
-0.184044
-0.221907
-0.293389
-0.355546
-0.391536
-0.374575
-0.364405
-0.360654
-0.359423
-0.358591
-0.902167
-0.870341
-0.810359
-0.732782
-0.648897
-0.563813
-0.480164
-0.400952
-0.330606
-0.275049
-0.242165
-0.278513
-0.318049
-0.351786
-0.395812
-0.384482
-0.380713
-0.382324
-0.38198
-0.38084
-0.914372
-0.885257
-0.829013
-0.755483
-0.675887
-0.595294
-0.51654
-0.442584
-0.377816
-0.328576
-0.298548
-0.333973
-0.338766
-0.308686
-0.326755
-0.384656
-0.418975
-0.428282
-0.426864
-0.427134
-0.915833
-0.890789
-0.839471
-0.771235
-0.697148
-0.622167
-0.548987
-0.480756
-0.421874
-0.378907
-0.347787
-0.400781
-0.441116
-0.398564
-0.417861
-0.451214
-0.460202
-0.458159
-0.456918
-0.457719
-0.904366
-0.884188
-0.839515
-0.778377
-0.711126
-0.64282
-0.576045
-0.513861
-0.461053
-0.424156
-0.396775
-0.47223
-0.621837
-0.804724
-0.726448
-0.586393
-0.508676
-0.479991
-0.470918
-0.468125
-0.877871
-0.862668
-0.827297
-0.775613
-0.716758
-0.656138
-0.596298
-0.540204
-0.492968
-0.461335
-0.434673
-0.486906
-0.596799
-0.833132
-0.755294
-0.545004
-0.439652
-0.408218
-0.397816
-0.393375
-0.838813
-0.828989
-0.803521
-0.763065
-0.713959
-0.661765
-0.608863
-0.558448
-0.515034
-0.486535
-0.459799
-0.372242
-0.190343
-0.0611365
-0.0920224
-0.167732
-0.235999
-0.261951
-0.26499
-0.263115
-0.793839
-0.788262
-0.773009
-0.743475
-0.704658
-0.66045
-0.614061
-0.567773
-0.526176
-0.494879
-0.46146
-0.292438
0.0129687
0.41702
0.361208
0.080105
-0.128715
-0.22596
-0.26172
-0.271607
-0.752741
-0.749366
-0.741976
-0.722315
-0.691853
-0.654445
-0.613117
-0.56964
-0.526824
-0.492752
-0.471205
-0.434646
-0.518423
-0.695296
-0.935897
-1.16611
-1.17662
-1.0405
-0.891092
-0.867388
-0.722535
-0.720369
-0.716557
-0.70434
-0.680117
-0.64724
-0.608551
-0.565247
-0.519624
-0.479062
-0.459107
-0.590253
-1.08959
-1.89347
-2.51932
-2.59439
-2.36451
-2.02912
-1.76051
-1.65399
-0.699536
-0.698687
-0.697404
-0.691252
-0.672371
-0.641725
-0.60276
-0.556919
-0.50569
-0.44586
-0.399083
-0.396601
-0.590665
-0.75658
-0.835614
-0.765078
-0.539624
-0.325889
-0.188499
-0.133374
-0.68621
-0.685865
-0.685224
-0.682388
-0.668559
-0.638811
-0.597277
-0.547302
-0.4865
-0.414336
-0.338773
-0.250471
-0.132739
0.129209
0.451413
0.8126
1.12079
1.30069
1.37667
1.39771
-0.677572
-0.677221
-0.676289
-0.675145
-0.66703
-0.63893
-0.59439
-0.538258
-0.470874
-0.38708
-0.279792
-0.168471
0.0679337
0.526507
1.02352
1.48456
1.82121
1.98651
2.04996
2.06365
-0.674254
-0.673933
-0.673208
-0.67305
-0.669029
-0.643283
-0.594546
-0.533012
-0.45821
-0.360766
-0.2456
-0.122739
0.112168
0.564023
1.04032
1.46369
1.75871
1.9061
1.95539
1.96422
-0.673542
-0.674263
-0.676344
-0.679339
-0.677616
-0.650233
-0.598468
-0.533227
-0.451619
-0.351606
-0.236619
-0.115041
0.0623191
0.441676
0.815393
1.14289
1.3684
1.47676
1.51145
1.51746
-0.668987
-0.669893
-0.671201
-0.672309
-0.670599
-0.648788
-0.604792
-0.53916
-0.453707
-0.351246
-0.242826
-0.134636
-0.00140982
0.278599
0.550203
0.764804
0.907193
0.973745
0.999144
1.00558
-0.681125
-0.678583
-0.664505
-0.637179
-0.623131
-0.63495
-0.617438
-0.552201
-0.462222
-0.358746
-0.259267
-0.166245
-0.0622301
0.131843
0.31404
0.447008
0.530525
0.573112
0.595527
0.604084
-0.736231
-0.730908
-0.717749
-0.698521
-0.690464
-0.697445
-0.661842
-0.576029
-0.472602
-0.365768
-0.277271
-0.206618
-0.13291
0.0212213
0.159962
0.254726
0.317155
0.352423
0.372035
0.378624
-0.85238
-0.863371
-0.894528
-0.923781
-0.918125
-0.873688
-0.750212
-0.608968
-0.479632
-0.370176
-0.289664
-0.234149
-0.17848
-0.0589896
0.0524143
0.138188
0.198442
0.233684
0.249989
0.254153
-0.960239
-0.982792
-1.02552
-1.05431
-1.04489
-0.97469
-0.799712
-0.619153
-0.47456
-0.364109
-0.289307
-0.244883
-0.205206
-0.0998358
-0.00465429
0.0662648
0.121234
0.153616
0.167143
0.169059
-0.907028
-0.929515
-0.965536
-0.993467
-0.98499
-0.903143
-0.733332
-0.57162
-0.439586
-0.339673
-0.273075
-0.233812
-0.195312
-0.114568
-0.0406508
0.0147012
0.0564144
0.0799837
0.0890261
0.0904453
-0.648018
-0.667533
-0.701501
-0.733557
-0.73554
-0.673138
-0.565504
-0.460121
-0.370801
-0.296387
-0.24079
-0.200491
-0.158655
-0.106383
-0.0577333
-0.0172681
0.0143981
0.0328145
0.0402757
0.0400658
-0.302567
-0.313116
-0.334355
-0.362411
-0.383347
-0.378549
-0.357506
-0.323327
-0.284856
-0.242411
-0.201926
-0.163157
-0.126703
-0.094497
-0.06444
-0.0371597
-0.0156931
-0.00273456
0.00164125
0.000878946
-0.0421683
-0.0468183
-0.0608909
-0.0874265
-0.12417
-0.162121
-0.188709
-0.202843
-0.2022
-0.187508
-0.163107
-0.13545
-0.111752
-0.094787
-0.0744401
-0.0549667
-0.0393459
-0.0306464
-0.0282503
-0.029828
0.0819911
0.079604
0.069602
0.0458932
0.00672949
-0.0408851
-0.0848515
-0.11867
-0.138061
-0.141755
-0.131309
-0.115421
-0.105053
-0.0995535
-0.0880315
-0.0757544
-0.0658183
-0.061536
-0.0615053
-0.063265
0.11222
0.110576
0.103215
0.0847915
0.0529447
0.0120833
-0.0302759
-0.0676159
-0.09464
-0.108209
-0.107635
-0.101411
-0.0995532
-0.102795
-0.100809
-0.0983786
-0.0971701
-0.0997862
-0.101496
-0.102556
0.100614
0.0994471
0.0943071
0.0813495
0.0584917
0.0278128
-0.00682013
-0.0403493
-0.0684636
-0.0870242
-0.0921441
-0.089708
-0.0914339
-0.100921
-0.109278
-0.11653
-0.124092
-0.130853
-0.133883
-0.134385
0.0762346
0.075447
0.0719865
0.0632269
0.0474218
0.0252376
-0.00162427
-0.0297848
-0.0560486
-0.0765664
-0.085238
-0.0835478
-0.0835518
-0.0997153
-0.117371
-0.130236
-0.140638
-0.147678
-0.150097
-0.15049
0.0511857
0.0506764
0.0483575
0.042457
0.0315606
0.0156006
-0.00491616
-0.028317
-0.0528332
-0.075891
-0.0911755
-0.0948981
-0.0958949
-0.114673
-0.131182
-0.142861
-0.150742
-0.154967
-0.156327
-0.156832
0.0298884
0.0295035
0.0279331
0.0238919
0.0162502
0.0045593
-0.0114042
-0.0312451
-0.0547379
-0.0822566
-0.110451
-0.13392
-0.146424
-0.15649
-0.160461
-0.161518
-0.162583
-0.162982
-0.163413
-0.164057
0.0136902
0.0133973
0.012265
0.00945066
0.00397352
-0.0047595
-0.0174038
-0.0344825
-0.0573275
-0.0894335
-0.133812
-0.187316
-0.216912
-0.210249
-0.19391
-0.183387
-0.178643
-0.177548
-0.177405
-0.177706
0.00268022
0.0024657
0.00164874
-0.0003181
-0.0041993
-0.0107392
-0.0207181
-0.0352053
-0.0564658
-0.0905023
-0.144244
-0.216682
-0.253188
-0.23081
-0.205313
-0.19267
-0.188776
-0.188329
-0.18781
-0.187534
-0.00354425
-0.00370553
-0.00428083
-0.00560945
-0.00826313
-0.0129491
-0.0205223
-0.0322027
-0.0503349
-0.0808735
-0.131127
-0.196809
-0.220442
-0.198046
-0.180399
-0.176228
-0.178265
-0.17992
-0.179271
-0.178555
-0.00565818
-0.00577274
-0.00613739
-0.00689201
-0.00853558
-0.0115796
-0.0167186
-0.0249446
-0.0380404
-0.0601455
-0.0953609
-0.135698
-0.142321
-0.132833
-0.127774
-0.133208
-0.140073
-0.14285
-0.142423
-0.141412
-0.00455119
-0.0045992
-0.00474662
-0.00508308
-0.00583791
-0.00736912
-0.0101061
-0.0146175
-0.0217968
-0.0336457
-0.0497722
-0.0637304
-0.0625287
-0.0591635
-0.0653401
-0.0747729
-0.0813387
-0.0834208
-0.0830443
-0.0826119
-0.00134983
-0.00132354
-0.00133843
-0.00125959
-0.00106966
-0.000982098
-0.00120013
-0.00178837
-0.00280248
-0.00418024
-0.00501171
-0.00258573
-0.00741309
-0.0086827
-0.0121322
-0.017555
-0.0177929
-0.015327
-0.0152474
-0.0154243
-0.135493
0.0310824
0.225432
0.395057
0.530447
0.636895
0.724827
0.799729
0.833943
0.810685
0.166206
0.286622
0.416141
0.528009
0.622215
0.700102
0.763163
0.807961
0.830388
0.842514
0.384369
0.466943
0.55546
0.633579
0.700738
0.756924
0.80162
0.834295
0.857941
0.875957
0.544724
0.60384
0.665229
0.722162
0.771653
0.813693
0.848241
0.875819
0.898564
0.916885
0.669843
0.712826
0.758675
0.802359
0.840963
0.874692
0.903575
0.927628
0.947984
0.965833
0.773963
0.806764
0.844801
0.88027
0.912839
0.942045
0.967575
0.989043
1.00688
1.02423
0.866387
0.895037
0.928957
0.96105
0.990964
1.01811
1.04184
1.06154
1.07704
1.09412
0.954901
0.984078
1.01806
1.05007
1.07966
1.10623
1.12908
1.14756
1.16092
1.17796
1.05017
1.08336
1.11999
1.15355
1.18358
1.20976
1.2317
1.24898
1.26084
1.27824
1.16514
1.20296
1.24159
1.27583
1.30516
1.3299
1.35027
1.36616
1.37762
1.39569
1.31006
1.3486
1.38473
1.41542
1.44109
1.46318
1.48223
1.49776
1.51018
1.52818
1.48513
1.51675
1.54292
1.56537
1.58534
1.60406
1.62177
1.63825
1.6536
1.67167
1.67374
1.69094
1.70597
1.7222
1.7381
1.75264
1.76584
1.77977
1.7973
1.81746
1.85545
1.86499
1.87653
1.88734
1.89662
1.9062
1.91699
1.92835
1.93971
1.95507
2.06269
2.06635
2.0514
2.03659
2.03032
2.03599
2.05447
2.08478
2.11696
2.14361
2.36901
2.23414
2.1575
2.11512
2.0977
2.10166
2.12906
2.18547
2.28809
2.51246
0.67717
0.675042
0.670558
0.661935
0.649712
0.637585
0.627359
0.619469
0.61386
0.610617
0.610275
0.613026
0.618139
0.625368
0.634761
0.646303
0.658955
0.669991
0.676103
0.679158
0.60162
0.607467
0.613801
0.618294
0.620766
0.620443
0.617709
0.613905
0.610403
0.608154
0.608021
0.610231
0.613904
0.618199
0.62201
0.623896
0.622962
0.619481
0.614319
0.607698
0.593189
0.595486
0.59889
0.601887
0.603963
0.605462
0.606221
0.60591
0.604893
0.604023
0.604212
0.605652
0.607477
0.60879
0.608974
0.608087
0.606539
0.604205
0.600942
0.598022
0.58767
0.588756
0.59059
0.592969
0.594994
0.596424
0.597448
0.598206
0.598618
0.598853
0.599361
0.600182
0.60079
0.600863
0.600456
0.59961
0.598143
0.59606
0.593975
0.592593
0.582456
0.583119
0.584227
0.585933
0.587716
0.58935
0.59065
0.591673
0.592566
0.593372
0.594119
0.594686
0.594891
0.594732
0.59417
0.593118
0.591693
0.590151
0.588835
0.588055
0.577467
0.577927
0.578713
0.580012
0.581501
0.58302
0.584489
0.585795
0.586942
0.588015
0.58895
0.589536
0.589694
0.589428
0.588736
0.587751
0.586629
0.585498
0.584585
0.584068
0.572621
0.572966
0.573577
0.574646
0.575941
0.577317
0.57876
0.580213
0.581599
0.582898
0.584031
0.584743
0.584934
0.584668
0.584076
0.583304
0.582457
0.581593
0.580923
0.580545
0.567865
0.568133
0.568626
0.569535
0.570706
0.572005
0.573404
0.5749
0.576454
0.577994
0.579368
0.58026
0.580578
0.580469
0.580084
0.579531
0.578887
0.578252
0.577762
0.577473
0.563117
0.56333
0.56374
0.564539
0.565629
0.566879
0.568269
0.569812
0.571498
0.573276
0.574937
0.576091
0.576648
0.57678
0.576625
0.576291
0.575855
0.575411
0.575061
0.574835
0.558289
0.55846
0.558811
0.559537
0.560581
0.56181
0.563227
0.564854
0.566697
0.568729
0.570734
0.572244
0.573123
0.573541
0.573638
0.573533
0.573308
0.573036
0.572802
0.572623
0.553292
0.553431
0.55374
0.554421
0.555448
0.556701
0.558185
0.559938
0.561991
0.564334
0.566757
0.568711
0.569977
0.570727
0.571109
0.571248
0.571233
0.571128
0.570992
0.570848
0.548038
0.54815
0.548431
0.549093
0.550137
0.55146
0.553054
0.554986
0.557316
0.560053
0.562993
0.565481
0.567203
0.568337
0.569042
0.569446
0.569645
0.569711
0.569661
0.569544
0.542431
0.542519
0.542785
0.543451
0.54455
0.545983
0.547742
0.549923
0.552607
0.555843
0.559418
0.562545
0.564807
0.566386
0.567454
0.56817
0.568612
0.568833
0.568859
0.568763
0.536362
0.53643
0.536689
0.537382
0.538573
0.540165
0.542153
0.544661
0.547799
0.551656
0.556006
0.559903
0.562806
0.564908
0.566393
0.567454
0.568162
0.568555
0.568653
0.568574
0.529704
0.529751
0.530012
0.530756
0.532079
0.533885
0.536175
0.539101
0.542814
0.547441
0.552734
0.557557
0.561222
0.56394
0.565916
0.567363
0.56838
0.568957
0.569127
0.569062
0.522301
0.522331
0.522597
0.523414
0.524914
0.526999
0.529677
0.533135
0.537567
0.54314
0.549579
0.555515
0.560086
0.56353
0.566088
0.567995
0.56936
0.570136
0.570376
0.570322
0.513961
0.513978
0.514246
0.51516
0.516894
0.519325
0.522501
0.526634
0.531963
0.538701
0.54653
0.553795
0.55944
0.563738
0.566981
0.569442
0.571203
0.572196
0.572507
0.57246
0.504376
0.504362
0.504691
0.505746
0.507764
0.51065
0.514461
0.519444
0.525894
0.534069
0.54358
0.552425
0.559336
0.564641
0.568688
0.571797
0.574013
0.575245
0.575629
0.575586
0.493256
0.493218
0.493592
0.494841
0.497231
0.500705
0.505325
0.511386
0.519241
0.529186
0.540727
0.551445
0.559837
0.56632
0.57131
0.57516
0.577904
0.579393
0.579847
0.579805
0.480123
0.480058
0.48051
0.482013
0.484888
0.489128
0.494796
0.502239
0.511869
0.523996
0.537975
0.550896
0.561005
0.568847
0.57494
0.579644
0.582976
0.584732
0.58525
0.585203
0.464327
0.464233
0.46481
0.466664
0.470191
0.475456
0.482515
0.491767
0.503658
0.51848
0.535368
0.550848
0.562922
0.572309
0.579656
0.585325
0.589298
0.591323
0.59189
0.591832
0.444935
0.444813
0.445592
0.447961
0.452404
0.459094
0.468051
0.479712
0.494517
0.512667
0.532993
0.551394
0.565676
0.576783
0.585508
0.592257
0.5969
0.599168
0.599761
0.599684
0.42053
0.420392
0.421503
0.424672
0.430501
0.439277
0.450927
0.465867
0.484431
0.506649
0.530977
0.552651
0.569347
0.582336
0.592536
0.600448
0.605734
0.608187
0.608772
0.608669
0.388812
0.388695
0.390418
0.394968
0.403096
0.415115
0.430713
0.450151
0.473527
0.500637
0.529521
0.554765
0.574024
0.588994
0.600762
0.609831
0.615654
0.61819
0.618721
0.618584
0.345635
0.34568
0.348743
0.356172
0.368561
0.385872
0.407314
0.432813
0.462181
0.494995
0.528908
0.557915
0.579806
0.596783
0.6101
0.620249
0.626393
0.628846
0.629272
0.629101
0.283246
0.284444
0.29193
0.305782
0.32595
0.351674
0.381341
0.41456
0.451023
0.490203
0.529428
0.562254
0.586737
0.605646
0.620388
0.63133
0.637516
0.639649
0.639907
0.639713
0.209256
0.211009
0.225336
0.249117
0.280192
0.315854
0.354499
0.395946
0.440006
0.486193
0.531573
0.569121
0.596958
0.618317
0.634772
0.646514
0.65258
0.654466
0.654688
0.654588
0.132907
0.139074
0.160231
0.194232
0.235695
0.280998
0.328581
0.378312
0.430069
0.483396
0.535111
0.577531
0.608812
0.632733
0.651092
0.663406
0.668963
0.670387
0.670539
0.670508
0.0704535
0.0789194
0.104638
0.145641
0.195242
0.248777
0.304427
0.361912
0.421009
0.481199
0.538989
0.586012
0.620494
0.646675
0.666325
0.678982
0.684454
0.68571
0.685886
0.685912
0.0196597
0.0287212
0.0579821
0.104215
0.159961
0.220131
0.2826
0.346932
0.412734
0.479365
0.542923
0.594317
0.631791
0.66007
0.681114
0.694288
0.699623
0.701111
0.701381
0.701449
-0.0228507
-0.0135076
0.0181992
0.0684244
0.129214
0.194891
0.263148
0.333478
0.405321
0.477893
0.546876
0.602429
0.642773
0.673115
0.695521
0.709347
0.715105
0.716839
0.717131
0.717216
-0.0594387
-0.0499845
-0.0164394
0.0369863
0.101948
0.172324
0.245628
0.321266
0.398573
0.476638
0.550733
0.610255
0.653368
0.685697
0.709433
0.724206
0.730437
0.732332
0.732659
0.732738
-0.0917739
-0.0822833
-0.047327
0.00880225
0.0772578
0.151683
0.229449
0.309869
0.392195
0.475387
0.554329
0.617645
0.663407
0.697625
0.722674
0.738225
0.745032
0.747104
0.74745
0.747518
-0.121136
-0.111606
-0.0754912
-0.0170288
0.0544229
0.132396
0.214134
0.298894
0.385851
0.473869
0.557441
0.624405
0.672701
0.708688
0.734948
0.751259
0.758581
0.76079
0.761141
0.761173
-0.1484
-0.138823
-0.101691
-0.0412187
0.0329039
0.114017
0.199305
0.288012
0.379267
0.471856
0.559906
0.630418
0.681148
0.718803
0.74613
0.763046
0.770801
0.773136
0.773493
0.773507
-0.17413
-0.164492
-0.126406
-0.0642364
0.0122925
0.0962037
0.184689
0.276999
0.37225
0.46919
0.561601
0.635624
0.688734
0.727974
0.756238
0.773629
0.781605
0.784049
0.78441
0.784399
-0.198827
-0.189033
-0.150093
-0.0863543
-0.00768563
0.0787226
0.170096
0.265696
0.364667
0.465749
0.56244
0.639998
0.695502
0.736259
0.765383
0.783122
0.791174
0.793614
0.793981
0.793944
-0.222739
-0.212727
-0.173043
-0.107778
-0.0272117
0.0614221
0.1554
0.254003
0.356421
0.46145
0.562368
0.643529
0.701511
0.743804
0.773666
0.791598
0.799641
0.802045
0.802378
0.802317
-0.245976
-0.235758
-0.195296
-0.128659
-0.0464027
0.044229
0.140538
0.241864
0.347464
0.456231
0.561327
0.646216
0.706827
0.750741
0.781293
0.799303
0.807219
0.809526
0.809806
0.80972
-0.268708
-0.258193
-0.216982
-0.149077
-0.0653103
0.0270994
0.125489
0.22927
0.337784
0.450066
0.559262
0.648037
0.711521
0.757226
0.788453
0.806384
0.814052
0.816187
0.816396
0.816286
-0.290894
-0.280108
-0.238173
-0.169074
-0.0839435
0.0100408
0.11028
0.216247
0.327395
0.442938
0.556128
0.64894
0.715629
0.76339
0.795327
0.813015
0.82023
0.822095
0.8222
0.822063
-0.312599
-0.301511
-0.258804
-0.188638
-0.102288
-0.0069187
0.0949454
0.202849
0.316346
0.434867
0.551882
0.648855
0.719129
0.769344
0.802155
0.819418
0.825874
0.827299
0.82728
0.827127
-0.333655
-0.322334
-0.278872
-0.207732
-0.120302
-0.0237127
0.0795479
0.189142
0.304705
0.425902
0.546495
0.647699
0.721945
0.775139
0.809216
0.825991
0.831296
0.831943
0.831707
0.831553
-0.354202
-0.34254
-0.298368
-0.226342
-0.137957
-0.0403051
0.0641761
0.175204
0.292554
0.416118
0.539974
0.645366
0.723927
0.780708
0.816731
0.833331
0.83716
0.836365
0.835566
0.835413
-0.374079
-0.362106
-0.317264
-0.244423
-0.155176
-0.0566138
0.0489085
0.161153
0.280001
0.405576
0.532354
0.641747
0.724874
0.78583
0.824667
0.842084
0.844792
0.841791
0.839346
0.838449
-0.393347
-0.381074
-0.335507
-0.261927
-0.171925
-0.0725712
0.0338273
0.147066
0.267156
0.39441
0.523701
0.636738
0.724546
0.790113
0.832511
0.852346
0.855739
0.851259
0.844781
0.836474
-0.411925
-0.399404
-0.353191
-0.279009
-0.18841
-0.0884448
0.0186055
0.132555
0.253582
0.382134
0.513499
0.629798
0.722469
0.793222
0.839618
0.863441
0.870345
0.866012
0.855559
0.85039
-0.429765
-0.41702
-0.3703
-0.295641
-0.204639
-0.104229
0.00325487
0.117599
0.239231
0.368625
0.501544
0.620532
0.717846
0.794361
0.844001