/*--------------------------------*- C++ -*----------------------------------*\
  =========                 |
  \\      /  F ield         | OpenFOAM: The Open Source CFD Toolbox
   \\    /   O peration     | Website:  https://openfoam.org
    \\  /    A nd           | Version:  10
     \\/     M anipulation  |
\*---------------------------------------------------------------------------*/
FoamFile
{
    format      ascii;
    class       surfaceScalarField;
    location    "60";
    object      phi;
}
// * * * * * * * * * * * * * * * * * * * * * * * * * * * * * * * * * * * * * //

dimensions      [0 3 -1 0 0 0 0];

internalField   nonuniform List<scalar> 
17370
(
-0.0916065
0.0960094
0.284608
-0.0775947
0.0594201
0.36495
-0.0430426
0.0316233
0.427587
-0.02232
0.016268
0.505304
-0.0116754
0.0088019
0.602276
-0.00659096
0.00510615
0.720542
-0.00386927
0.00298888
0.863787
-0.00221575
0.00163734
1.03603
-0.00110557
0.000684301
1.24292
-0.000272805
-0.000121346
1.49159
0.000509958
-0.000923946
1.4916
0.0013286
-0.00183354
1.2432
0.00238412
-0.00312688
1.03638
0.00398361
-0.00520169
0.864125
0.00667529
-0.00887668
0.721259
0.01174
-0.0163178
0.603792
0.0223546
-0.0316413
0.508726
0.0430426
-0.0594092
0.432535
0.0775879
-0.0960032
0.365191
0.091621
0.19739
-0.127091
0.0880231
0.0390683
-0.364356
0.35403
-0.071475
0.0818006
-0.446654
0.454255
-0.0791696
0.0715688
-0.521011
0.52911
-0.0637158
0.0556169
-0.612991
0.620761
-0.0482296
0.0404602
-0.727165
0.733685
-0.0338485
0.0273281
-0.867581
0.872434
-0.0221242
0.0172715
-1.03857
1.04191
-0.0135722
0.0102314
-1.24472
1.24713
-0.00767891
0.00527077
-1.49284
1.49486
-0.00330427
0.00128718
-1.49269
1.49452
0.000534203
-0.00235622
-1.24411
1.24602
0.00433112
-0.00624348
-1.03761
1.04009
0.00857964
-0.011059
-0.866186
0.869813
0.0143168
-0.0179438
-0.724594
0.729746
0.0227276
-0.0278795
-0.609064
0.615632
0.034351
-0.0409192
-0.515123
0.522457
0.0486381
-0.055973
-0.43988
0.447657
0.0639943
-0.0717713
-0.374706
0.377355
0.0792647
-0.0819137
-0.256896
0.224433
0.0715634
-0.039101
-0.0688119
0.0592009
0.00961108
-0.0521036
0.058929
-0.374839
0.368013
-0.0580806
0.0542378
-0.453947
0.45779
-0.0487504
0.0441907
-0.527619
0.532179
-0.0396409
0.0357453
-0.620805
0.6247
-0.0315324
0.0275365
-0.734663
0.738659
-0.0231778
0.019288
-0.873959
0.877849
-0.0152395
0.011779
-1.04337
1.04683
-0.00825552
0.00521922
-1.24865
1.25169
-0.00200779
-0.000976615
-1.49695
1.49993
0.00393898
-0.0070895
-1.49742
1.50057
0.0100361
-0.0134377
-1.25006
1.25346
0.016774
-0.0206801
-1.04565
1.04955
0.0244438
-0.0286771
-0.877132
0.881366
0.0325722
-0.0366867
-0.738978
0.743092
0.0405015
-0.0449719
-0.625965
0.630436
0.0494649
-0.054887
-0.535012
0.540434
0.058654
-0.0594125
-0.458071
0.45883
0.0524622
-0.0320696
-0.336757
0.316364
0.00967503
-0.0686581
0.058983
-0.0534127
0.0493023
0.00411043
-0.033236
0.0436562
-0.358569
0.348149
-0.0473292
0.0467405
-0.459585
0.460173
-0.0438106
0.0405972
-0.536138
0.539351
-0.0369197
0.0335646
-0.628403
0.631758
-0.02993
0.0266873
-0.742043
0.745286
-0.0232314
0.0200303
-0.881346
0.884547
-0.0164326
0.0130764
-1.05025
1.05361
-0.00937222
0.00596294
-1.25495
1.25836
-0.00216739
-0.00145266
-1.50328
1.5069
0.00504103
-0.00874451
-1.50406
1.50777
0.012028
-0.0155604
-1.25702
1.26055
0.018741
-0.0221364
-1.05325
1.05665
0.0251579
-0.0284343
-0.884971
0.888248
0.0315321
-0.0350249
-0.746772
0.750265
0.0382606
-0.0418142
-0.634552
0.638106
0.0449202
-0.0477292
-0.544573
0.547382
0.0481924
-0.0443448
-0.456941
0.453093
0.0337103
-0.0163875
-0.29704
0.279717
0.00418106
-0.053131
0.0489499
-0.0461343
0.0435802
0.00255409
-0.0230369
0.0333809
-0.337562
0.327218
-0.0391096
0.0400551
-0.459927
0.458981
-0.0388009
0.0364708
-0.542011
0.544341
-0.0338268
0.0312787
-0.63473
0.637278
-0.0282994
0.0254483
-0.748375
0.751226
-0.0222062
0.0191878
-0.887606
0.890625
-0.0158313
0.012692
-1.05679
1.05993
-0.00912931
0.00572411
-1.26176
1.26516
-0.00180892
-0.0019917
-1.51063
1.51444
0.00575153
-0.00954313
-1.51154
1.51534
0.0127824
-0.0161203
-1.26401
1.26734
0.0190294
-0.0221209
-1.05985
1.06294
0.0249013
-0.0279011
-0.891439
0.894439
0.0305531
-0.0333364
-0.75344
0.756223
0.035721
-0.0381998
-0.641053
0.643532
0.0403883
-0.0414558
-0.549211
0.550279
0.0403157
-0.0343027
-0.447961
0.441948
0.0236461
-0.0103854
-0.264518
0.251257
0.00264169
-0.045703
0.0430613
-0.0414637
0.0396652
0.00179847
-0.016931
0.0262084
-0.317357
0.30808
-0.0327964
0.0349108
-0.457426
0.455311
-0.0344711
0.0327682
-0.546375
0.548078
-0.0305361
0.0284039
-0.639595
0.641728
-0.0259609
0.0235768
-0.753832
0.756216
-0.0207549
0.0180015
-0.893487
0.89624
-0.0148095
0.0117679
-1.06298
1.06602
-0.00829559
0.00497401
-1.26849
1.27181
-0.00112909
-0.0026215
-1.5182
1.52195
0.00631962
-0.0100086
-1.51907
1.52276
0.0131193
-0.0163062
-1.27061
1.2738
0.0190553
-0.0219083
-1.06597
1.06882
0.0243541
-0.0268621
-0.897218
0.899726
0.0289894
-0.0311807
-0.758658
0.760849
0.0331046
-0.0351234
-0.645752
0.647771
0.0366198
-0.0368049
-0.550851
0.551036
0.0343914
-0.0273875
-0.435343
0.42834
0.0176914
-0.00748806
-0.239667
0.229464
0.00190566
-0.0408481
0.0389424
-0.0381177
0.0367684
0.00134933
-0.0129292
0.0209179
-0.299449
0.29146
-0.0276745
0.030588
-0.452765
0.449851
-0.0307874
0.0296565
-0.549522
0.550653
-0.0276509
0.0257179
-0.643792
0.645725
-0.023498
0.0213486
-0.758466
0.760616
-0.0188312
0.0163541
-0.898797
0.901274
-0.0134247
0.0105609
-1.06892
1.07179
-0.0072228
0.00399966
-1.27505
1.27827
-0.000261237
-0.00337213
-1.52562
1.52926
0.00694028
-0.0104833
-1.52637
1.52991
0.0134439
-0.0164265
-1.27691
1.27989
0.0189246
-0.0214291
-1.07153
1.07404
0.023521
-0.0256438
-0.902032
0.904154
0.0274676
-0.0293662
-0.762884
0.764783
0.031035
-0.0327851
-0.649631
0.651381
0.0336138
-0.033059
-0.550852
0.550298
0.0297181
-0.0223922
-0.421116
0.413791
0.013866
-0.0057894
-0.220425
0.212348
0.00148001
-0.0372768
0.0357968
-0.0355901
0.0345515
0.00103854
-0.0101018
0.0168636
-0.284109
0.277347
-0.0233684
0.0267433
-0.446686
0.443311
-0.0275191
0.0268201
-0.551561
0.55226
-0.0250475
0.0232577
-0.647627
0.649416
-0.0211876
0.0191737
-0.762697
0.764711
-0.0168035
0.014477
-0.903611
0.905938
-0.0117399
0.00905606
-1.07449
1.07718
-0.00589877
0.00281786
-1.28138
1.28446
0.000778557
-0.00427496
-1.53279
1.53629
0.00769
-0.011045
-1.53335
1.53671
0.0138006
-0.0165177
-1.28275
1.28547
0.0187506
-0.0209629
-1.07642
1.07864
0.0228127
-0.0246945
-0.906171
0.908053
0.0263059
-0.0279784
-0.766563
0.768236
0.0294412
-0.0308617
-0.652982
0.654402
0.0311845
-0.029904
-0.549394
0.548114
0.0259406
-0.0186866
-0.406475
0.399221
0.0112499
-0.00466478
-0.205088
0.198503
0.00119757
-0.034475
0.0332774
-0.0336394
0.0328307
0.000808656
-0.00800648
0.0136934
-0.271151
0.265464
-0.0197206
0.0233
-0.439823
0.436244
-0.0245585
0.0241084
-0.552866
0.553316
-0.0226095
0.0209307
-0.651201
0.65288
-0.0189582
0.0170349
-0.766678
0.768602
-0.0147668
0.0125367
-0.908152
0.910382
-0.00990945
0.00734088
-1.07973
1.0823
-0.00433111
0.00139251
-1.28742
1.29036
0.0020378
-0.00536766
-1.53968
1.54301
0.00859931
-0.0117348
-1.53994
1.54307
0.0142745
-0.0167483
-1.28807
1.29054
0.0187656
-0.0207484
-1.08078
1.08276
0.0223911
-0.0240573
-0.909848
0.911514
0.0254852
-0.026968
-0.769809
0.771292
0.0282401
-0.0292843
-0.655611
0.656655
0.0292364
-0.0272887
-0.546504
0.544556
0.0229228
-0.0159346
-0.392096
0.385108
0.00940978
-0.00388654
-0.1925
0.186977
0.00100202
-0.0321909
0.0311889
-0.0321197
0.0314884
0.000631286
-0.00639337
0.0111618
-0.260263
0.255495
-0.016604
0.0201906
-0.432659
0.429072
-0.0217783
0.0215563
-0.553687
0.553909
-0.0202927
0.0186768
-0.654576
0.656192
-0.0167621
0.0148905
-0.770496
0.772367
-0.0126849
0.0105182
-0.912506
0.914673
-0.00796725
0.00547625
-1.08475
1.08724
-0.00256525
-0.000255323
-1.29318
1.296
0.00353785
-0.00669883
-1.54622
1.54938
0.009738
-0.0126561
-1.54608
1.549
0.0149979
-0.0172571
-1.29292
1.29518
0.0190773
-0.0208424
-1.0847
1.08646
0.0222904
-0.0237588
-0.913107
0.914575
0.025023
-0.0263356
-0.772686
0.773999
0.0274638
-0.0280934
-0.657479
0.658109
0.027677
-0.02517
-0.542346
0.539839
0.0205599
-0.0139067
-0.378299
0.371646
0.00810503
-0.00334251
-0.181874
0.177112
0.00086608
-0.0302661
0.0294001
-0.0309365
0.0304485
0.000487948
-0.00509728
0.00907408
-0.251148
0.247171
-0.0138855
0.0173298
-0.425563
0.422119
-0.0191072
0.0190797
-0.554075
0.554102
-0.0180172
0.0164386
-0.657855
0.659434
-0.0145503
0.0126972
-0.774223
0.776076
-0.0105136
0.00837413
-0.91674
0.91888
-0.00586478
0.00342527
-1.08962
1.09206
-0.00058671
-0.0021546
-1.29872
1.30146
0.005311
-0.00832065
-1.55242
1.55543
0.0111827
-0.0138992
-1.55179
1.55451
0.0160525
-0.0181012
-1.29734
1.29939
0.0197274
-0.0212805
-1.0882
1.08975
0.0225444
-0.0238318
-0.915981
0.917268
0.0249483
-0.0261043
-0.775224
0.77638
0.0270464
-0.027298
-0.658537
0.658789
0.0264874
-0.0235089
-0.537113
0.534135
0.0187558
-0.0124333
-0.365179
0.358856
0.0071859
-0.002966
-0.172654
0.168434
0.000773486
-0.0285908
0.0278173
-0.0300278
0.0296609
0.00036699
-0.00401346
0.00729542
-0.243564
0.240282
-0.011464
0.0146561
-0.418813
0.415621
-0.0164968
0.0166265
-0.554099
0.55397
-0.0156506
0.0141468
-0.66105
0.662554
-0.0122565
0.0103897
-0.777924
0.779791
-0.00819184
0.00604664
-0.920926
0.923071
-0.00354379
0.00112225
-1.09439
1.09681
0.00167572
-0.00435661
-1.3041
1.30679
0.00741571
-0.0102959
-1.55833
1.56121
0.0129973
-0.0155223
-1.5571
1.55962
0.0174927
-0.0193373
-1.30134
1.30319
0.0207763
-0.0221226
-1.09129
1.09264
0.0232049
-0.0243154
-0.918501
0.919612
0.025287
-0.0262751
-0.777445
0.778433
0.0269624
-0.0269207
-0.658912
0.658871
0.025694
-0.022299
-0.530966
0.527571
0.0174487
-0.011404
-0.352699
0.346655
0.00656197
-0.00271719
-0.164433
0.160588
0.000714422
-0.0270838
0.0263694
-0.0293537
0.0290944
0.000259347
-0.00306525
0.00572083
-0.237334
0.234678
-0.0092472
0.0121044
-0.412614
0.409757
-0.0138958
0.0141131
-0.55385
0.553632
-0.0131846
0.0117296
-0.664116
0.665571
-0.00981785
0.00791053
-0.781659
0.783567
-0.00566405
0.00347876
-0.925126
0.927311
-0.000942962
-0.00149488
-1.09913
1.10157
0.00428996
-0.00694188
-1.30938
1.31203
0.00993224
-0.012708
-1.56398
1.56676
0.0152671
-0.0176113
-1.56202
1.56437
0.0194038
-0.021047
-1.30493
1.30657
0.0222994
-0.0234376
-1.094
1.09514
0.0243361
-0.0252675
-0.920674
0.921605
0.0260939
-0.0269067
-0.779324
0.780137
0.0273059
-0.0269987
-0.65869
0.658382
0.025326
-0.0215349
-0.523998
0.520207
0.0165915
-0.0107435
-0.340745
0.334897
0.00617393
-0.0025694
-0.156894
0.15329
0.000681843
-0.0256826
0.0250007
-0.0288914
0.0287341
0.000157278
-0.00218857
0.00425689
-0.232335
0.230267
-0.00713632
0.00958824
-0.407123
0.404672
-0.0112217
0.0114473
-0.553474
0.553248
-0.0105331
0.00908897
-0.667119
0.668564
-0.00712835
0.00514996
-0.785481
0.787459
-0.00281895
0.000561821
-0.929407
0.931664
0.00204495
-0.00453099
-1.10392
1.1064
0.00735828
-0.0100103
-1.3146
1.31725
0.0129597
-0.015649
-1.56944
1.57213
0.0180771
-0.0202471
-1.56659
1.56876
0.021864
-0.0233033
-1.30811
1.30955
0.0243615
-0.0252744
-1.0963
1.09722
0.0259707
-0.0267073
-0.922483
0.92322
0.027382
-0.0280526
-0.780842
0.781513
0.0281443
-0.0274686
-0.657852
0.657176
0.0253601
-0.0211785
-0.516262
0.512081
0.0161213
-0.010382
-0.329149
0.32341
0.00597227
-0.0025008
-0.149785
0.146313
0.000670005
-0.0243371
0.0236671
-0.0286326
0.0285783
5.43299e-05
-0.00133508
0.00283155
-0.228501
0.227004
-0.00505092
0.00703494
-0.402477
0.400493
-0.00840798
0.00856032
-0.553136
0.552983
-0.00761374
0.00614332
-0.670141
0.671611
-0.00409495
0.00201418
-0.789449
0.791529
0.000436757
-0.00280481
-0.933832
0.9362
0.00552081
-0.00809319
-1.1088
1.11138
0.0109905
-0.013675
-1.31982
1.32251
0.016612
-0.0192332
-1.57472
1.57734
0.0215398
-0.0235375
-1.5708
1.5728
0.0249745
-0.0262024
-1.31087
1.3121
0.0270596
-0.0277406
-1.09818
1.09887
0.0282245
-0.0287502
-0.923909
0.924434
0.0292616
-0.0297309
-0.782005
0.782474
0.0295335
-0.0284312
-0.656258
0.655156
0.0258498
-0.0212495
-0.507758
0.503158
0.0160269
-0.010293
-0.31773
0.311996
0.00593609
-0.00250229
-0.142896
0.139463
0.000676734
-0.0230073
0.0223306
-0.0285799
0.0286351
-5.51922e-05
-0.000457879
0.00137768
-0.225811
0.224891
-0.00290963
0.004361
-0.398798
0.397347
-0.00537096
0.00536662
-0.553001
0.553006
-0.00433423
0.00278807
-0.673262
0.674808
-0.000623144
-0.00159835
-0.793622
0.795844
0.00421799
-0.00673581
-0.93848
0.940998
0.00960797
-0.0123071
-1.11387
1.11657
0.0153161
-0.0180672
-1.32512
1.32787
0.0210234
-0.023598
-1.57987
1.58245
0.0257935
-0.027618
-1.57466
1.57648
0.0288668
-0.0298707
-1.3132
1.3142
0.0305105
-0.0309462
-1.09962
1.10005
0.0312083
-0.0315076
-0.924915
0.925215
0.0318307
-0.0320287
-0.782648
0.782846
0.031553
-0.0299194
-0.653804
0.652171
0.0268222
-0.0217568
-0.498428
0.493363
0.0162973
-0.0104573
-0.306277
0.300437
0.00605044
-0.00256692
-0.136043
0.13256
0.00070004
-0.0216571
0.0209571
-0.0287454
0.0289157
-0.000170265
0.000463144
-0.000152061
-0.224288
0.223977
-0.000642287
0.00148097
-0.396216
0.395377
-0.00201801
0.00176992
-0.553248
0.553496
-0.000589451
-0.00110441
-0.676596
0.67829
0.00344564
-0.00585588
-0.798086
0.800496
0.00869249
-0.0114058
-0.943431
0.946144
0.0144819
-0.017349
-1.11919
1.12206
0.0205113
-0.0233606
-1.33056
1.33341
0.0263604
-0.028898
-1.58493
1.58747
0.0309785
-0.0326147
-1.57816
1.57979
0.0336623
-0.0344236
-1.31505
1.31581
0.034835
-0.0350122
-1.10056
1.10073
0.0350368
-0.0350924
-0.925463
0.925519
0.0352175
-0.0350748
-0.782661
0.782518
0.0342409
-0.0320023
-0.650336
0.648097
0.0283268
-0.0227203
-0.488161
0.482554
0.0169301
-0.0108627
-0.294561
0.288493
0.00630444
-0.00268895
-0.129053
0.125437
0.000738122
-0.0202542
0.0195161
-0.0291665
0.029479
-0.000312502
0.00146402
-0.00179716
-0.224019
0.224352
0.00184587
-0.00172831
-0.394856
0.394738
0.00179327
-0.0023925
-0.554094
0.554694
0.00379953
-0.00568576
-0.680285
0.682172
0.00825761
-0.0109063
-0.802925
0.805574
0.0140173
-0.0169803
-0.948776
0.951739
0.0203196
-0.0234057
-1.12486
1.12795
0.0267695
-0.0297513
-1.33619
1.33918
0.0328207
-0.0353322
-1.58991
1.59242
0.0372943
-0.0387202
-1.58127
1.58269
0.0395449
-0.0400424
-1.31638
1.31688
0.0402042
-0.0400978
-1.10094
1.10084
0.0398589
-0.0396483
-0.925491
0.925281
0.0395682
-0.0389684
-0.781914
0.781314
0.037685
-0.0347631
-0.645707
0.642785
0.0304199
-0.0241645
-0.476792
0.470536
0.0179287
-0.0115025
-0.282336
0.27591
0.00669077
-0.00286422
-0.121763
0.117936
0.000789641
-0.0187697
0.0179801
-0.029862
0.030351
-0.000488982
0.00274576
-0.00382754
-0.225072
0.226154
0.00474249
-0.00542189
-0.394943
0.395622
0.00620514
-0.00726274
-0.555766
0.556824
0.00897941
-0.0111292
-0.68443
0.68658
0.0140083
-0.0169634
-0.808245
0.8112
0.0204226
-0.0237009
-0.954627
0.957905
0.0273697
-0.0307283
-1.13098
1.13434
0.0343418
-0.0374894
-1.3421
1.34525
0.0406486
-0.043135
-1.59484
1.59732
0.0449638
-0.0461582
-1.58394
1.58513
0.04671
-0.0469153
-1.31713
1.31733
0.0467952
-0.0463743
-1.10071
1.10029
0.0458465
-0.0453477
-0.924933
0.924434
0.0449572
-0.0439029
-0.780252
0.779198
0.042039
-0.0383015
-0.639731
0.635994
0.0331651
-0.0261174
-0.464092
0.457044
0.0192982
-0.0123703
-0.269337
0.262409
0.00720133
-0.00308727
-0.114018
0.109904
0.000852431
-0.0171781
0.0163257
-0.0309087
0.0316179
-0.000709186
0.00424056
-0.00621247
-0.22765
0.229622
0.00818634
-0.00977176
-0.396686
0.398271
0.0113801
-0.013018
-0.558522
0.56016
0.0151857
-0.0176985
-0.689189
0.691702
0.020992
-0.0243389
-0.814187
0.817534
0.0282333
-0.0318988
-0.961117
0.964783
0.0359659
-0.0396487
-1.13765
1.14133
0.0435535
-0.0468853
-1.34833
1.35167
0.0501296
-0.0525626
-1.59968
1.60212
0.0542138
-0.0551271
-1.58612
1.58703
0.0553644
-0.055236
-1.31724
1.31711
0.0548004
-0.054029
-1.09979
1.09902
0.0531837
-0.0523585
-0.923728
0.922903
0.0515627
-0.0500049
-0.777678
0.776121
0.0474221
-0.0427117
-0.632148
0.627437
0.0366206
-0.0285994
-0.449764
0.441743
0.0210363
-0.013453
-0.255273
0.247689
0.00782265
-0.00334987
-0.105666
0.101193
0.000923584
-0.0154579
0.0145343
-0.0323894
0.0333855
-0.00099614
0.00611751
-0.00914273
-0.232006
0.235031
0.0123853
-0.0150287
-0.400354
0.402998
0.0176041
-0.019948
-0.562645
0.564989
0.0227062
-0.0257037
-0.694774
0.697772
0.029539
-0.033379
-0.820927
0.824767
0.0378089
-0.0419441
-0.968392
0.972527
0.0464875
-0.0505479
-1.14497
1.14903
0.0547763
-0.0582952
-1.35492
1.35844
0.0615984
-0.0639281
-1.60439
1.60672
0.0653351
-0.0658841
-1.5877
1.58824
0.0657483
-0.0652184
-1.31655
1.31602
0.0644307
-0.0632569
-1.0981
1.09692
0.062051
-0.060892
-0.921795
0.920636
0.0595694
-0.0574079
-0.77408
0.771919
0.0539605
-0.0480692
-0.62262
0.616729
0.0408164
-0.0316008
-0.43344
0.424224
0.0231128
-0.0147155
-0.239838
0.23144
0.0085263
-0.00363621
-0.0965727
0.0916826
0.00099763
-0.0135953
0.0125976
-0.0344301
0.0358228
-0.00139271
0.00857083
-0.0129473
-0.238458
0.242834
0.0176811
-0.0215645
-0.406313
0.410197
0.0252801
-0.0284783
-0.56846
0.571658
0.0319966
-0.0356293
-0.701447
0.70508
0.0401629
-0.0446245
-0.828659
0.833121
0.0497076
-0.0543992
-0.97662
0.981311
0.0594856
-0.0639525
-1.15304
1.1575
0.0684996
-0.0721689
-1.36185
1.36552
0.075456
-0.0775862
-1.60884
1.61097
0.0786421
-0.078717
-1.58849
1.58856
0.0781262
-0.0770687
-1.31493
1.31387
0.0758644
-0.0742604
-1.09549
1.09388
0.0726768
-0.071097
-0.919097
0.917517
0.0692154
-0.0662982
-0.769234
0.766317
0.0617668
-0.0544196
-0.610718
0.603371
0.0457454
-0.0350734
-0.414676
0.404004
0.0254637
-0.0160975
-0.222722
0.213356
0.00926781
-0.00392338
-0.0866312
0.0812868
0.00106725
-0.0115876
0.0105204
-0.0372302
0.0391801
-0.00194998
0.0119791
-0.0180742
-0.247532
0.253627
0.0246099
-0.0299471
-0.415064
0.420401
0.0350162
-0.0392651
-0.576359
0.580608
0.0437598
-0.0482342
-0.709536
0.71401
0.0536727
-0.0589017
-0.837635
0.842864
0.0647506
-0.0700582
-0.985966
0.991273
0.075704
-0.0805476
-1.16189
1.16673
0.0853321
-0.0890359
-1.36901
1.37272
0.0921415
-0.0938971
-1.61279
1.61455
0.0944318
-0.0938769
-1.58824
1.58768
0.0927129
-0.0910254
-1.3122
1.31051
0.0893116
-0.0872452
-1.09187
1.0898
0.0852671
-0.083116
-0.915422
0.913271
0.0806965
-0.0767673
-0.762748
0.758819
0.0708779
-0.0617337
-0.595873
0.586729
0.0513251
-0.0388991
-0.392958
0.380532
0.0279661
-0.0174972
-0.203637
0.193168
0.00997724
-0.00417751
-0.0757869
0.0699872
0.00112208
-0.00944886
0.00832679
-0.0411073
0.0439272
-0.00281996
0.016931
-0.0252831
-0.259961
0.268313
0.0340616
-0.0411542
-0.427272
0.434364
0.0478725
-0.0533913
-0.586834
0.592353
0.0591436
-0.064714
-0.719472
0.725042
0.0712622
-0.0773726
-0.848123
0.854233
0.0840377
-0.0899411
-0.99652
1.00242
0.0960572
-0.101138
-1.17141
1.17649
0.105951
-0.109462
-1.37611
1.37962
0.112107
-0.11322
-1.61585
1.61696
0.112983
-0.111573
-1.58661
1.5852
0.109666
-0.107235
-1.30814
1.30571
0.104921
-0.102323
-1.08713
1.08453
0.0999168
-0.097088
-0.910413
0.907585
0.0940346
-0.088804
-0.754095
0.748864
0.0812127
-0.0698554
-0.577366
0.566008
0.0573523
-0.0428577
-0.367722
0.353227
0.0304177
-0.0187612
-0.182361
0.170705
0.0105556
-0.00435339
-0.0640691
0.0578669
0.00114887
-0.00721428
0.0060654
-0.0466428
0.0509318
-0.00428895
0.0246081
-0.0360346
-0.276905
0.288331
0.0477255
-0.0571441
-0.443963
0.453382
0.0658798
-0.072858
-0.600484
0.607462
0.0801334
-0.0871881
-0.73162
0.738675
0.0948996
-0.101809
-0.860314
0.867224
0.10913
-0.115418
-1.00817
1.01445
0.121694
-0.126679
-1.18123
1.18622
0.131113
-0.13404
-1.38262
1.38555
0.13579
-0.135872
-1.61742
1.6175
0.134522
-0.131981
-1.58313
1.58059
0.129145
-0.125823
-1.3025
1.29918
0.122823
-0.119627
-1.08112
1.07793
0.116705
-0.113138
-0.903883
0.900316
0.109156
-0.102219
-0.742644
0.735708
0.0924855
-0.0784256
-0.554297
0.540237
0.0634535
-0.0466114
-0.338404
0.321562
0.0325396
-0.019697
-0.158818
0.145976
0.0108858
-0.00440057
-0.0516326
0.0451474
0.00113306
-0.00494477
0.00381171
-0.0549032
0.0622717
-0.00736856
0.0380922
-0.0539964
-0.300512
0.316416
0.0697655
-0.0823995
-0.466791
0.479425
0.0933147
-0.101644
-0.617744
0.626073
0.110414
-0.118726
-0.746353
0.754665
0.127327
-0.134622
-0.873919
0.881214
0.142016
-0.148083
-1.02031
1.02637
0.153837
-0.158081
-1.19055
1.19479
0.161458
-0.163177
-1.38764
1.38936
0.163438
-0.162016
-1.61664
1.61522
0.15919
-0.15522
-1.57724
1.57327
0.151221
-0.146809
-1.29498
1.29057
0.143018
-0.139202
-1.07366
1.06984
0.135625
-0.131215
-0.895632
0.891223
0.125861
-0.116614
-0.727436
0.718188
0.104111
-0.0867499
-0.525545
0.508184
0.0690099
-0.0497157
-0.304541
0.285247
0.0340462
-0.0201688
-0.133195
0.119318
0.0109104
-0.00430609
-0.0388043
0.0322
0.00106984
-0.00273049
0.00166065
-0.0691398
0.0732692
-0.00412939
0.0291876
-0.0429663
-0.334793
0.348572
0.0569299
-0.0684989
-0.497212
0.508781
0.0788238
-0.0884107
-0.638187
0.647774
0.0990619
-0.108792
-0.762587
0.772316
0.119585
-0.129189
-0.887641
0.897245
0.139393
-0.148435
-1.03149
1.04053
0.157813
-0.165774
-1.19793
1.20589
0.173557
-0.179612
-1.3899
1.39595
0.184753
-0.187767
-1.61256
1.61557
0.188622
-0.187891
-1.56825
1.56752
0.18609
-0.183465
-1.28518
1.28256
0.181183
-0.178492
-1.06454
1.06185
0.175992
-0.171699
-0.885077
0.880783
0.164259
-0.150566
-0.707102
0.693409
0.131866
-0.106917
-0.489906
0.464957
0.0827212
-0.0575396
-0.265921
0.240739
0.0382129
-0.0219365
-0.106101
0.0898244
0.0115356
-0.00442995
-0.026124
0.0190183
0.00107754
-0.000672645
-0.000404892
-0.0804238
0.0785896
0.00183419
0.00748514
-0.0165572
-0.365157
0.374229
0.0271556
-0.0353364
-0.525033
0.533214
0.0436066
-0.051713
-0.659883
0.66799
0.0615226
-0.0706308
-0.781729
0.790837
0.0802981
-0.0891146
-0.906292
0.915109
0.0984455
-0.106368
-1.04927
1.05719
0.114757
-0.121495
-1.21363
1.22037
0.127999
-0.132734
-1.40166
1.40639
0.136116
-0.137535
-1.6177
1.61912
0.136783
-0.134413
-1.56597
1.5636
0.130976
-0.126598
-1.27918
1.2748
0.1226
-0.118233
-1.0569
1.05253
0.114071
-0.10841
-0.871657
0.865996
0.100494
-0.0883283
-0.675736
0.66357
0.0740837
-0.0569444
-0.438504
0.421365
0.0419217
-0.0279281
-0.216042
0.202049
0.0180513
-0.0102213
-0.0746659
0.0668359
0.00539697
-0.00211409
-0.0123601
0.00907723
0.000457526
0.00151409
-0.00197162
-0.0818717
0.0789779
0.00289375
-0.00172025
-0.00353912
-0.385647
0.390906
0.0107651
-0.0166569
-0.545575
0.551466
0.0227657
-0.0298587
-0.678203
0.685296
0.038326
-0.0462268
-0.79909
0.80699
0.0548417
-0.0625309
-0.92318
0.930869
0.0704111
-0.0774466
-1.06492
1.07195
0.0846634
-0.0905167
-1.22664
1.23249
0.0956666
-0.0991279
-1.41039
1.41385
0.101403
-0.101565
-1.61973
1.61989
0.0995765
-0.0959723
-1.56051
1.5569
0.0915419
-0.0862797
-1.27004
1.26478
0.0810281
-0.0754275
-1.04637
1.04077
0.0701162
-0.0636775
-0.856299
0.84986
0.0564472
-0.0464833
-0.648159
0.638196
0.036292
-0.0254361
-0.402535
0.391679
0.0173914
-0.010985
-0.187633
0.181227
0.00703064
-0.0041632
-0.0590779
0.0562105
0.00234029
-0.000930754
-0.0058977
0.00448816
0.000196915
0.00260549
-0.00280241
-0.0806037
0.0778602
0.00274345
-0.0053714
0.00285272
-0.399286
0.401805
0.0018136
-0.00625643
-0.560715
0.565158
0.0114004
-0.0173375
-0.693307
0.699244
0.0245522
-0.0313054
-0.814282
0.821035
0.0386583
-0.0452418
-0.938026
0.94461
0.0523576
-0.058289
-1.07854
1.08447
0.0645383
-0.0691152
-1.23789
1.24247
0.0733774
-0.0760525
-1.41702
1.4197
0.0773159
-0.0763661
-1.61952
1.61857
0.0736996
-0.069438
-1.55265
1.54839
0.0644182
-0.0581598
-1.25909
1.25284
0.0522949
-0.0459045
-1.03383
1.02744
0.0397269
-0.0331103
-0.839998
0.833381
0.0265344
-0.018916
-0.625202
0.617584
0.0121766
-0.00650545
-0.37976
0.374089
0.00340183
-0.00167377
-0.173654
0.171926
0.000975862
-0.000745917
-0.0524517
0.0522218
0.0005422
-0.000198575
-0.00290211
0.00255849
2.23045e-05
0.00328377
-0.00330608
-0.0790728
0.0766341
0.00243864
-0.00653546
0.00563442
-0.408349
0.40925
-0.00220973
-0.000985242
-0.572824
0.576019
0.00515361
-0.0105322
-0.705951
0.711329
0.0165781
-0.0224907
-0.827109
0.833022
0.0288378
-0.0345276
-0.950729
0.956418
0.0405914
-0.0458251
-1.09024
1.09548
0.0510523
-0.0551728
-1.24687
1.25099
0.0586884
-0.0607256
-1.42196
1.42399
0.0613363
-0.0598178
-1.61736
1.61584
0.0566476
-0.0517224
-1.54334
1.53842
0.0463309
-0.0398373
-1.2464
1.23991
0.0336073
-0.0266144
-1.02006
1.01307
0.0202036
-0.0134193
-0.824041
0.817256
0.00766006
-0.00176309
-0.60737
0.601473
-0.0024248
0.00477155
-0.366342
0.363996
-0.00508356
0.00429011
-0.168228
0.169021
-0.00314249
0.0018608
-0.0512131
0.0524948
-0.000957499
0.000418284
-0.00221779
0.002757
-0.000129374
0.0036026
-0.00347323
-0.0776349
0.0755378
0.0020971
-0.00644921
0.00607383
-0.41452
0.414895
-0.00404725
0.00148277
-0.582104
0.584668
0.00254741
-0.00713516
-0.716642
0.721229
0.0123181
-0.0174407
-0.838158
0.843281
0.023067
-0.0281275
-0.961746
0.966806
0.0336384
-0.0381809
-1.10041
1.10495
0.0428217
-0.0464515
-1.25479
1.25842
0.0494228
-0.0510128
-1.42572
1.42731
0.0511705
-0.0496729
-1.61416
1.61266
0.0462101
-0.0412442
-1.53301
1.52804
0.0357117
-0.0290691
-1.23316
1.22652
0.0229259
-0.0156613
-1.00552
0.998259
0.00911116
-0.00247303
-0.808558
0.80192
-0.00270114
0.00736243
-0.593084
0.588423
-0.0102581
0.0111357
-0.358843
0.357965
-0.00994648
0.00794174
-0.16786
0.169865
-0.00596675
0.00376212
-0.053133
0.0553376
-0.00209871
0.000877548
-0.00335193
0.00457309
-0.000246131
0.00351748
-0.00327135
-0.0765209
0.0748783
0.00164264
-0.00559876
0.0055705
-0.41905
0.419079
-0.00396313
0.00205423
-0.590162
0.592071
0.00169999
-0.00583568
-0.725863
0.729999
0.0107407
-0.0151375
-0.84801
0.852406
0.0200602
-0.0245238
-0.971822
0.976286
0.0297218
-0.0338134
-1.10951
1.1136
0.0378834
-0.0412584
-1.26184
1.26521
0.0442991
-0.0456457
-1.42888
1.43022
0.0457403
-0.0440694
-1.61073
1.60906
0.0408862
-0.0357051
-1.52285
1.51767
0.0303986
-0.024006
-1.2197
1.21331
0.0178368
-0.0109259
-0.990805
0.983894
0.00449184
0.00205595
-0.793665
0.787117
-0.00674308
0.01082
-0.580957
0.57688
-0.0132299
0.0135543
-0.354202
0.353878
-0.0121403
0.00979676
-0.169976
0.172319
-0.00746971
0.00486358
-0.0568982
0.0595043
-0.00281303
0.00118427
-0.0057141
0.00734286
-0.000333911
0.00312313
-0.00278922
-0.0759029
0.0746072
0.00129572
-0.00454283
0.00464988
-0.422598
0.422491
-0.00325732
0.00144441
-0.597139
0.598952
0.00214615
-0.00582131
-0.734116
0.737791
0.0100076
-0.014232
-0.856742
0.860966
0.0187575
-0.0233358
-0.980542
0.985121
0.0277782
-0.0316575
-1.11777
1.12165
0.0358171
-0.0389053
-1.26845
1.27153
0.0414146
-0.043117
-1.43145
1.43316
0.0433175
-0.0418484
-1.60742
1.60595
0.0387333
-0.0340231
-1.51267
1.50796
0.028955
-0.0228332
-1.20662
1.2005
0.0170277
-0.0104243
-0.976762
0.970158
0.0043051
0.00183681
-0.779529
0.773387
-0.00673118
0.0103461
-0.569985
0.56637
-0.0124136
0.0130668
-0.350829
0.350176
-0.0120607
0.00988387
-0.172652
0.174829
-0.00767682
0.00512113
-0.0612714
0.0638271
-0.00304269
0.00130503
-0.00869609
0.0104338
-0.000388798
0.00253754
-0.00214875
-0.0758092
0.0747287
0.00108058
-0.00327932
0.00315864
-0.425749
0.425869
-0.00204249
0.00027985
-0.603514
0.605277
0.00315467
-0.0066927
-0.741751
0.745289
0.0106924
-0.0144962
-0.864963
0.868767
0.0191189
-0.0228903
-0.989108
0.992879
0.0272783
-0.0309526
-1.12566
1.12934
0.0349676
-0.0382213
-1.27459
1.27784
0.0409795
-0.042427
-1.4346
1.43605
0.0429216
-0.0418012
-1.60439
1.60327
0.0392719
-0.0348384
-1.50315
1.49872
0.0302092
-0.0245233
-1.19455
1.18887
0.0191524
-0.0129194
-0.963328
0.957095
0.00728162
-0.00128873
-0.766277
0.760284
-0.00347648
0.00724988
-0.559867
0.556094
-0.00936771
0.0102197
-0.347294
0.346442
-0.0098828
0.00838137
-0.174802
0.176304
-0.00668155
0.00456989
-0.0653746
0.0674863
-0.00278805
0.00124967
-0.0117131
0.0132515
-0.000376043
0.00186219
-0.00148615
-0.0759964
0.0752422
0.000754181
-0.00213012
0.00156214
-0.428972
0.42954
-0.000612475
-0.00136804
-0.609065
0.611045
0.00439661
-0.00777657
-0.748845
0.752225
0.0115948
-0.0155143
-0.872418
0.876338
0.0195047
-0.0234217
-0.996842
1.00076
0.0277553
-0.0312053
-1.13342
1.13687
0.0352907
-0.0384803
-1.28088
1.28407
0.0412776
-0.0432351
-1.43789
1.43985
0.0441947
-0.0433397
-1.60218
1.60132
0.0410605
-0.03738
-1.4945
1.49082
0.0333488
-0.0281009
-1.18316
1.17791
0.0230555
-0.0174704
-0.950816
0.945231
0.0118671
-0.0063687
-0.753558
0.748059
0.00164874
0.00246525
-0.550156
0.546042
-0.00473128
0.00604755
-0.343118
0.341801
-0.00631626
0.00573792
-0.175895
0.176474
-0.00472508
0.00334928
-0.0684644
0.0698402
-0.00211938
0.000986497
-0.0142209
0.0153538
-0.0003023
0.0012289
-0.000926598
-0.076607
0.0760127
0.000594273
-0.00115521
0.000683224
-0.432418
0.43289
0.00087787
-0.00275324
-0.614777
0.616652
0.00592638
-0.00916676
-0.755399
0.75864
0.0128253
-0.0163328
-0.879911
0.883419
0.0204362
-0.0240287
-1.00467
1.00826
0.0283012
-0.0321765
-1.14076
1.14464
0.0358917
-0.0394025
-1.28728
1.2908
0.0426119
-0.0446545
-1.44169
1.44374
0.0459825
-0.0459188
-1.60069
1.60063
0.0441167
-0.0411148
-1.48707
1.48406
0.0373529
-0.0326362
-1.17279
1.16807
0.0280897
-0.0227891
-0.939281
0.93398
0.0176895
-0.01238
-0.74167
0.73636
0.00773401
-0.00323322
-0.54023
0.535729
0.000383658
0.00145588
-0.338076
0.336237
-0.00246861
0.00269215
-0.175412
0.175188
-0.00242689
0.00184248
-0.070069
0.0706534
-0.00123462
0.00061239
-0.015876
0.0164982
-0.000198119
0.000743266
-0.000545148
-0.077496
0.0770864
0.00040959
-0.000121898
-0.000576982
-0.435995
0.436693
0.00206431
-0.00425348
-0.620101
0.62229
0.00733772
-0.0104104
-0.761711
0.764783
0.0141528
-0.0175031
-0.886891
0.890242
0.021443
-0.0251528
-1.01232
1.01603
0.0293219
-0.0331582
-1.14835
1.15219
0.0370918
-0.0406268
-1.29421
1.29775
0.0440219
-0.0468125
-1.44606
1.44885
0.0485896
-0.0488372
-1.60051
1.60075
0.0477502
-0.0450949
-1.48098
1.47833
0.0419148
-0.0377932
-1.16337
1.15925
0.0334092
-0.0284932
-0.928471
0.923555
0.0237182
-0.0184585
-0.730352
0.725092
0.0138966
-0.00909784
-0.530197
0.525398
0.0057275
-0.00301549
-0.332066
0.329354
0.00137977
-0.000326765
-0.173314
0.172261
-0.000225141
0.000425739
-0.0701494
0.0699488
-0.000397911
0.000251897
-0.0165227
0.0166687
-9.56585e-05
0.000456014
-0.000360356
-0.0786206
0.0783453