/*--------------------------------*- C++ -*----------------------------------*\
  =========                 |
  \\      /  F ield         | OpenFOAM: The Open Source CFD Toolbox
   \\    /   O peration     | Website:  https://openfoam.org
    \\  /    A nd           | Version:  10
     \\/     M anipulation  |
\*---------------------------------------------------------------------------*/
FoamFile
{
    format      ascii;
    class       volVectorField;
    location    "60";
    object      U;
}
// * * * * * * * * * * * * * * * * * * * * * * * * * * * * * * * * * * * * * //

dimensions      [0 1 -1 0 0 0 0];

internalField   nonuniform List<vector> 
8800
(
(0.980139 -0.0915207 0)
(1.00234 -0.0587302 0)
(0.99958 -0.0321296 0)
(0.999974 -0.0165236 0)
(1.00007 -0.00884355 0)
(1.00008 -0.00509866 0)
(1.00006 -0.00299454 0)
(1.00002 -0.00168309 0)
(0.999999 -0.000781103 0)
(1.00006 -8.20941e-05 0)
(0.999987 0.000626915 0)
(0.999994 0.0013826 0)
(1.00002 0.00240737 0)
(1.00004 0.00400785 0)
(1.00004 0.00675089 0)
(0.999996 0.0120514 0)
(0.999796 0.0230949 0)
(0.99903 0.0431563 0)
(1.00724 0.0790254 0)
(0.775025 0.0478395 0)
(0.358991 -0.0147483 0)
(1.0465 -0.0724815 0)
(1.08847 -0.0660185 0)
(1.04943 -0.050912 0)
(1.02554 -0.0376913 0)
(1.01274 -0.025886 0)
(1.00658 -0.0166896 0)
(1.00363 -0.0101976 0)
(1.00219 -0.0055636 0)
(1.00152 -0.00196641 0)
(1.00138 0.00124814 0)
(1.00173 0.00455839 0)
(1.0027 0.00844703 0)
(1.00475 0.0137568 0)
(1.00898 0.0214282 0)
(1.01795 0.0319149 0)
(1.03579 0.0446847 0)
(1.06741 0.0581245 0)
(1.09469 0.0699547 0)
(0.845615 0.0555085 0)
(0.217804 -0.00138024 0)
(1.07568 -0.0506419 0)
(1.09941 -0.0489225 0)
(1.06439 -0.040004 0)
(1.03991 -0.0325435 0)
(1.02382 -0.0253282 0)
(1.01404 -0.0181038 0)
(1.00852 -0.0114757 0)
(1.00566 -0.00571224 0)
(1.00448 -0.000416376 0)
(1.00479 0.00469748 0)
(1.00662 0.00998577 0)
(1.01056 0.0159503 0)
(1.01789 0.0226966 0)
(1.03048 0.0297898 0)
(1.05046 0.0368701 0)
(1.08002 0.0446415 0)
(1.10563 0.0519603 0)
(0.943228 0.0410205 0)
(0.217163 0.00140631 0)
(0.176671 -0.000628164 0)
(1.01944 -0.0354492 0)
(1.10573 -0.0413879 0)
(1.07799 -0.0363676 0)
(1.05248 -0.0303195 0)
(1.03526 -0.0244388 0)
(1.02339 -0.0186355 0)
(1.01557 -0.0126278 0)
(1.01095 -0.0065223 0)
(1.00891 -0.000276673 0)
(1.00943 0.0058847 0)
(1.01249 0.011799 0)
(1.01846 0.0175587 0)
(1.02805 0.0231203 0)
(1.04223 0.0286559 0)
(1.06304 0.0344263 0)
(1.09382 0.0403038 0)
(1.09437 0.0418177 0)
(0.830097 0.0227931 0)
(0.175576 0.000649063 0)
(0.154777 -0.000461904 0)
(0.95826 -0.0256727 0)
(1.10444 -0.035085 0)
(1.08812 -0.0326295 0)
(1.06131 -0.0281179 0)
(1.04327 -0.0231492 0)
(1.03088 -0.0178367 0)
(1.02226 -0.0122824 0)
(1.0167 -0.00635972 0)
(1.01403 0.000103655 0)
(1.01465 0.00656686 0)
(1.01842 0.0124384 0)
(1.02521 0.0177431 0)
(1.03534 0.0227309 0)
(1.05006 0.0275387 0)
(1.07198 0.0319659 0)
(1.10094 0.0358326 0)
(1.06958 0.0340242 0)
(0.742352 0.0144738 0)
(0.153134 0.000485378 0)
(0.14011 -0.000333734 0)
(0.901302 -0.019305 0)
(1.09688 -0.0301843 0)
(1.09628 -0.0292978 0)
(1.06904 -0.0255096 0)
(1.05022 -0.0214165 0)
(1.03724 -0.0167046 0)
(1.02823 -0.0114407 0)
(1.02227 -0.00570377 0)
(1.01926 0.000663449 0)
(1.01985 0.00704089 0)
(1.02382 0.0126883 0)
(1.03085 0.0176546 0)
(1.04135 0.022101 0)
(1.05669 0.0260288 0)
(1.07947 0.0295287 0)
(1.10321 0.0322294 0)
(1.03773 0.0282003 0)
(0.675438 0.0103324 0)
(0.137796 0.000361615 0)
(0.129391 -0.000252235 0)
(0.85149 -0.0149058 0)
(1.08457 -0.0260793 0)
(1.10199 -0.0264145 0)
(1.0759 -0.0230869 0)
(1.05656 -0.019423 0)
(1.04315 -0.0152126 0)
(1.03377 -0.0103339 0)
(1.02753 -0.00481894 0)
(1.02429 0.00136216 0)
(1.02476 0.00752194 0)
(1.02874 0.0128867 0)
(1.03592 0.0174309 0)
(1.0467 0.0212709 0)
(1.0624 0.0245968 0)
(1.08563 0.0276165 0)
(1.10239 0.0294135 0)
(1.00295 0.0236748 0)
(0.623273 0.0079354 0)
(0.126257 0.000286121 0)
(0.121227 -0.000193367 0)
(0.809061 -0.0117187 0)
(1.0693 -0.0224812 0)
(1.10554 -0.0237802 0)
(1.08217 -0.0209047 0)
(1.06237 -0.0174679 0)
(1.04869 -0.0135401 0)
(1.03905 -0.00898311 0)
(1.03253 -0.00374271 0)
(1.02905 0.0022049 0)
(1.02936 0.0080948 0)
(1.03328 0.0131044 0)
(1.04051 0.0171882 0)
(1.0514 0.020553 0)
(1.06735 0.0234845 0)
(1.09095 0.0261875 0)
(1.0987 0.0270753 0)
(0.967734 0.0201199 0)
(0.581365 0.00637442 0)
(0.117094 0.00023457 0)
(0.114902 -0.000148683 0)
(0.773296 -0.00933313 0)
(1.05249 -0.0193127 0)
(1.10791 -0.0213459 0)
(1.08805 -0.0188532 0)
(1.06784 -0.0155777 0)
(1.0539 -0.0118181 0)
(1.04408 -0.00746348 0)
(1.03733 -0.00246326 0)
(1.03359 0.00322215 0)
(1.03367 0.0088006 0)
(1.03746 0.0134318 0)
(1.04463 0.0171124 0)
(1.05553 0.0200969 0)
(1.07171 0.0226973 0)
(1.09501 0.0250556 0)
(1.09218 0.0251366 0)
(0.933436 0.0173694 0)
(0.546708 0.00530454 0)
(0.109557 0.0001987 0)
(0.109968 -0.0001134 0)
(0.743271 -0.00748492 0)
(1.03521 -0.016503 0)
(1.10932 -0.0190574 0)
(1.09364 -0.016878 0)
(1.07313 -0.013702 0)
(1.05891 -0.0100427 0)
(1.04889 -0.0058149 0)
(1.04193 -0.00098757 0)
(1.03791 0.00444695 0)
(1.0377 0.00970133 0)
(1.04127 0.01397 0)
(1.0483 0.017289 0)
(1.05919 0.0199248 0)
(1.07559 0.0222345 0)
(1.09778 0.0242274 0)
(1.08322 0.0235432 0)
(0.900644 0.0152749 0)
(0.517234 0.00455768 0)
(0.10315 0.000173982 0)
(0.106134 -8.4263e-05 0)
(0.718162 -0.00599703 0)
(1.01828 -0.0139803 0)
(1.10989 -0.0168462 0)
(1.09911 -0.0149526 0)
(1.07833 -0.0117965 0)
(1.06381 -0.0081752 0)
(1.05357 -0.00401698 0)
(1.04635 0.000693423 0)
(1.04201 0.00591738 0)
(1.04146 0.0108694 0)
(1.04472 0.0147962 0)
(1.05157 0.0177671 0)
(1.06243 0.0200652 0)
(1.07902 0.022112 0)
(1.0992 0.023711 0)
(1.07219 0.0222861 0)
(0.869487 0.0137206 0)
(0.491478 0.00404131 0)
(0.0975247 0.000157801 0)
(0.103207 -5.90919e-05 0)
(0.697326 -0.00475132 0)
(1.00234 -0.0116787 0)
(1.10977 -0.0146745 0)
(1.10443 -0.0129857 0)
(1.08352 -0.00980055 0)
(1.06867 -0.00616125 0)
(1.05817 -0.00201313 0)
(1.05065 0.00262969 0)
(1.04593 0.00768706 0)
(1.04493 0.0123625 0)
(1.04783 0.0159619 0)
(1.05446 0.0185973 0)
(1.06527 0.0205578 0)
(1.08201 0.022348 0)
(1.09962 0.0235333 0)
(1.05941 0.0213797 0)
(0.839817 0.0126188 0)
(0.468342 0.00369951 0)
(0.0924208 0.00014847 0)
(0.101066 -3.59456e-05 0)
(0.680287 -0.00365934 0)
(0.987819 -0.00952831 0)
(1.10917 -0.0124596 0)
(1.10954 -0.0108967 0)
(1.08878 -0.00766637 0)
(1.07358 -0.00395197 0)
(1.06276 0.000252528 0)
(1.05488 0.00488059 0)
(1.04967 0.00982275 0)
(1.04815 0.0142521 0)
(1.05062 0.0175304 0)
(1.05698 0.0198301 0)
(1.06771 0.0214552 0)
(1.0845 0.0229691 0)
(1.09904 0.0237376 0)
(1.04501 0.0208418 0)
(0.811318 0.0118987 0)
(0.446973 0.0034939 0)
(0.0876347 0.000144446 0)
(0.0996461 -1.31032e-05 0)
(0.666738 -0.0026514 0)
(0.975096 -0.00745385 0)
(1.10839 -0.0101379 0)
(1.11459 -0.0086182 0)
(1.09419 -0.00530651 0)
(1.0786 -0.00145289 0)
(1.06741 0.002864 0)
(1.05907 0.00753793 0)
(1.05328 0.0124109 0)
(1.05112 0.0166147 0)
(1.05306 0.0195757 0)
(1.0591 0.0215265 0)
(1.06972 0.0227875 0)
(1.08654 0.024042 0)
(1.09723 0.0243564 0)
(1.02909 0.0206458 0)
(0.783582 0.0114998 0)
(0.42668 0.00339694 0)
(0.0830041 0.000144625 0)
(0.0989309 1.1271e-05 0)
(0.656523 -0.00167373 0)
(0.96448 -0.00538486 0)
(1.10777 -0.00764944 0)
(1.11972 -0.00608029 0)
(1.09983 -0.00263728 0)
(1.08382 0.00141848 0)
(1.07217 0.00591213 0)
(1.06328 0.0106999 0)
(1.05677 0.0155491 0)
(1.05385 0.0195435 0)
(1.05516 0.0221813 0)
(1.06081 0.0237698 0)
(1.0713 0.0246456 0)
(1.08806 0.0256079 0)
(1.09415 0.0254176 0)
(1.01162 0.0208335 0)
(0.756152 0.0113971 0)
(0.406888 0.0033956 0)
(0.0783958 0.000148649 0)
(0.09894 3.3845e-05 0)
(0.649609 -0.000678691 0)
(0.956272 -0.00324715 0)
(1.10764 -0.00491916 0)
(1.12506 -0.00320029 0)
(1.10579 0.000429213 0)
(1.08931 0.00475921 0)
(1.07713 0.00950809 0)
(1.06757 0.0144782 0)
(1.06019 0.019355 0)
(1.05634 0.0231578 0)
(1.0569 0.0254586 0)
(1.06208 0.0266553 0)
(1.07242 0.0271288 0)
(1.08882 0.0277281 0)
(1.08956 0.0269506 0)
(0.992457 0.0214275 0)
(0.728515 0.0115713 0)
(0.387072 0.00348022 0)
(0.0736877 0.000156032 0)
(0.0997088 7.06675e-05 0)
(0.646074 0.000343857 0)
(0.950791 -0.000965875 0)
(1.10836 -0.00186096 0)
(1.13083 0.000130429 0)
(1.11218 0.00403075 0)
(1.0952 0.00872114 0)
(1.08237 0.013804 0)
(1.07198 0.0190243 0)
(1.06355 0.0239678 0)
(1.05858 0.0275746 0)
(1.05825 0.0295084 0)
(1.06288 0.0302982 0)
(1.07301 0.0303437 0)
(1.08869 0.0305238 0)
(1.08329 0.0290183 0)
(0.971362 0.0224586 0)
(0.700109 0.0120128 0)
(0.366742 0.00364354 0)
(0.0687716 0.000166271 0)
(0.101447 9.96078e-05 0)
(0.646302 0.00150437 0)
(0.948384 0.00154132 0)
(1.11036 0.00163065 0)
(1.13723 0.00399883 0)
(1.11915 0.00829741 0)
(1.10157 0.013444 0)
(1.08796 0.0189572 0)
(1.07656 0.0245058 0)
(1.06685 0.0295588 0)
(1.06055 0.0329714 0)
(1.05915 0.0344928 0)
(1.06313 0.0348374 0)
(1.07301 0.0344158 0)
(1.08746 0.0341117 0)
(1.07505 0.031718 0)
(0.947974 0.0239585 0)
(0.670333 0.0127185 0)
(0.345437 0.00388035 0)
(0.0635502 0.000178996 0)
(0.104211 0.000146956 0)
(0.650672 0.0029377 0)
(0.949547 0.00443086 0)
(1.11412 0.00566396 0)
(1.14448 0.00857711 0)
(1.12684 0.0134123 0)
(1.10858 0.0191313 0)
(1.09401 0.0251838 0)
(1.08137 0.0311412 0)
(1.0701 0.0363378 0)
(1.06221 0.0395294 0)
(1.05958 0.040574 0)
(1.06276 0.0404227 0)
(1.07233 0.0394702 0)
(1.08492 0.0386263 0)
(1.0645 0.0351397 0)
(0.921814 0.0259723 0)
(0.638541 0.0136857 0)
(0.322714 0.0041846 0)
(0.0579389 0.000193406 0)
(0.108278 0.000209066 0)
(0.659719 0.00461892 0)
(0.954739 0.00785054 0)
(1.12015 0.0104259 0)
(1.15286 0.014082 0)
(1.13546 0.019633 0)
(1.11637 0.0260653 0)
(1.10062 0.0327706 0)
(1.08644 0.0392049 0)
(1.0733 0.0445386 0)
(1.06352 0.0474306 0)
(1.05947 0.0479323 0)
(1.0617 0.047218 0)
(1.0709 0.0456768 0)
(1.08111 0.0442255 0)
(1.05119 0.039401 0)
(0.892256 0.0285296 0)
(0.604023 0.0149034 0)
(0.298143 0.00454579 0)
(0.0518682 0.000208593 0)
(0.113985 0.000292582 0)
(0.674157 0.00670529 0)
(0.9646 0.0119974 0)
(1.12902 0.0161484 0)
(1.16273 0.0207625 0)
(1.14528 0.0272538 0)
(1.12512 0.0345607 0)
(1.10789 0.0420472 0)
(1.09179 0.0490131 0)
(1.07637 0.0544439 0)
(1.06439 0.0569237 0)
(1.05865 0.0567416 0)
(1.05985 0.055403 0)
(1.06858 0.0532144 0)
(1.07582 0.0510204 0)
(1.03455 0.0445821 0)
(0.858552 0.0316389 0)
(0.56605 0.0163405 0)
(0.271355 0.00494413 0)
(0.0452996 0.000222849 0)
(0.121839 0.000413072 0)
(0.694941 0.00943991 0)
(0.980004 0.0171806 0)
(1.14137 0.0231873 0)
(1.17456 0.0290196 0)
(1.15657 0.0367318 0)
(1.13503 0.045103 0)
(1.11588 0.053482 0)
(1.0974 0.0609748 0)
(1.07924 0.0663851 0)
(1.06469 0.0682718 0)
(1.05702 0.0672366 0)
(1.05709 0.0651389 0)
(1.06536 0.0622134 0)
(1.06873 0.059165 0)
(1.01384 0.0507517 0)
(0.819813 0.0352789 0)
(0.523897 0.017939 0)
(0.242077 0.00534994 0)
(0.0382373 0.000234157 0)
(0.132553 0.000583142 0)
(0.723336 0.0131906 0)
(1.00212 0.0238733 0)
(1.158 0.0320885 0)
(1.18893 0.0394717 0)
(1.16969 0.0487754 0)
(1.14624 0.0583916 0)
(1.12458 0.0676971 0)
(1.10311 0.0755899 0)
(1.08169 0.080712 0)
(1.06423 0.081714 0)
(1.05447 0.0796311 0)
(1.05331 0.076596 0)
(1.06093 0.0727891 0)
(1.0592 0.0686943 0)
(0.988104 0.057923 0)
(0.775045 0.03936 0)
(0.476929 0.0195947 0)
(0.210215 0.00571816 0)
(0.0307487 0.00023982 0)
(0.147398 0.000859809 0)
(0.761378 0.0185747 0)
(1.0326 0.0328702 0)
(1.17987 0.0437977 0)
(1.20664 0.0532029 0)
(1.18495 0.0643942 0)
(1.1588 0.0753501 0)
(1.13384 0.0854504 0)
(1.1087 0.0934077 0)
(1.08347 0.0977856 0)
(1.06279 0.0974742 0)
(1.05081 0.0940492 0)
(1.04838 0.0899246 0)
(1.05492 0.0851897 0)
(1.04653 0.0797332 0)
(0.956153 0.0659815 0)
(0.723254 0.0436958 0)
(0.424762 0.0211454 0)
(0.175966 0.00598764 0)
(0.0229864 0.000236617 0)
(0.168569 0.00133625 0)
(0.81232 0.0267547 0)
(1.07399 0.0457251 0)
(1.20807 0.0601433 0)
(1.22826 0.0722808 0)
(1.20244 0.0851755 0)
(1.17246 0.0972828 0)
(1.14323 0.107677 0)
(1.11367 0.115034 0)
(1.08416 0.117961 0)
(1.06004 0.115748 0)
(1.04581 0.110606 0)
(1.04214 0.105207 0)
(1.04726 0.0995374 0)
(1.0298 0.0921564 0)
(0.916516 0.0746456 0)
(0.663648 0.0479738 0)
(0.367576 0.0223794 0)
(0.140002 0.00608888 0)
(0.0152128 0.000221009 0)
(0.199452 0.0023935 0)
(0.881888 0.0404349 0)
(1.12998 0.0662909 0)
(1.24306 0.0847149 0)
(1.25354 0.0994553 0)
(1.22155 0.113507 0)
(1.1864 0.125807 0)
(1.15194 0.135364 0)
(1.11733 0.141005 0)
(1.08323 0.141472 0)
(1.05563 0.136608 0)
(1.03926 0.129317 0)
(1.03445 0.122402 0)
(1.03762 0.115609 0)
(1.00768 0.105763 0)
(0.867487 0.0833609 0)
(0.59614 0.0517206 0)
(0.306826 0.0231176 0)
(0.103911 0.00599831 0)
(0.00791352 0.000191423 0)
(0.241543 0.00862627 3.56843e-20)
(0.974202 0.0677155 3.13616e-20)
(1.19834 0.10072 -1.10826e-20)
(1.28177 0.121135 0)
(1.27973 0.138294 -2.95528e-34)
(1.24016 0.151691 4.35285e-21)
(1.19906 0.162423 -8.02861e-21)
(1.15883 0.169743 0)
(1.11883 0.172589 1.68921e-34)
(1.07984 0.169784 -1.03051e-20)
(1.04856 0.161766 0)
(1.02987 0.152107 -1.23987e-20)
(1.02404 0.143757 -3.66812e-20)
(1.02469 0.136651 -1.73714e-20)
(0.9766 0.12316 -5.24406e-21)
(0.803441 0.0938518 -3.12006e-21)
(0.515365 0.0554716 0)
(0.240713 0.0237393 2.18322e-21)
(0.0677744 0.0060327 2.57758e-21)
(0.00109309 0.00018035 4.64328e-20)
(0.271059 0.0240832 2.33029e-20)
(1.05039 0.110324 5.34742e-22)
(1.25475 0.14977 2.82837e-21)
(1.31629 0.170386 0)
(1.30267 0.18738 -1.46068e-20)
(1.25605 0.198577 -1.68426e-20)
(1.20904 0.206975 -8.00723e-21)
(1.16298 0.211778 -2.91154e-20)
(1.11731 0.211789 0)
(1.07296 0.205779 4.38337e-20)
(1.03738 0.194677 4.37813e-20)
(1.016 0.182636 1.3076e-20)
(1.0081 0.172355 4.79861e-20)
(1.00118 0.162721 6.7747e-20)
(0.928358 0.143919 0)
(0.717909 0.105481 9.57268e-20)
(0.42106 0.0592876 1.37323e-19)
(0.172107 0.0238081 1.52503e-19)
(0.0320361 0.0049093 -1.74331e-19)
(-0.00578081 -0.000466113 -3.28173e-21)
(0.272109 0.039868 0)
(1.09847 0.165558 3.44798e-21)
(1.29261 0.210121 0)
(1.34303 0.230194 -1.71673e-20)
(1.32058 0.244131 0)
(1.26805 0.251473 -3.23531e-20)
(1.2155 0.256151 1.61974e-20)
(1.16387 0.25736 -5.79352e-20)
(1.11279 0.2537 -1.57612e-21)
(1.0633 0.24387 2.25732e-20)
(1.02361 0.229314 9.66429e-20)
(0.999544 0.214672 -2.43981e-22)
(0.989253 0.202333 -3.49481e-20)
(0.975026 0.189994 -6.4008e-20)
(0.884916 0.165172 7.58456e-20)
(0.65787 0.117101 -1.34386e-19)
(0.367888 0.0632338 -1.7765e-20)
(0.138741 0.0239247 0)
(0.0157978 0.00329271 -9.7026e-24)
(-0.00904884 -0.00128959 0)
(0.265746 0.053536 2.75176e-20)
(1.12434 0.224095 -1.61058e-20)
(1.31583 0.274929 -1.59063e-20)
(1.36066 0.295179 7.65098e-21)
(1.33209 0.305233 -1.31288e-20)
(1.27511 0.308073 6.74242e-20)
(1.21799 0.308348 3.36219e-20)
(1.16156 0.305325 0)
(1.10564 0.297464 -1.11608e-19)
(1.05142 0.2834 0)
(1.00783 0.265086 -5.06152e-20)
(0.98112 0.247634 -6.31266e-20)
(0.968426 0.233089 -3.81543e-20)
(0.948371 0.217641 -4.65932e-20)
(0.84898 0.187024 0)
(0.619443 0.130765 0)
(0.341316 0.0701048 -1.15792e-19)
(0.124492 0.0255766 2.2895e-20)
(0.00833219 0.00194278 -1.33922e-20)
(-0.0110852 -0.00220313 -1.56659e-20)
(0.258172 0.0656207 2.13064e-21)
(1.13564 0.282479 0)
(1.3285 0.340661 2.57392e-20)
(1.37016 0.36158 1.99567e-20)
(1.33729 0.367836 3.15177e-20)
(1.27707 0.366147 0)
(1.21636 0.361906 3.21871e-20)
(1.15594 0.354473 6.37167e-20)
(1.09582 0.342214 5.67514e-20)
(1.03734 0.323705 1.06909e-19)
(0.990116 0.301432 0)
(0.960842 0.281045 -1.3637e-19)
(0.945789 0.264161 -8.25889e-20)
(0.921436 0.245778 -4.89383e-20)
(0.818774 0.209955 3.01311e-19)
(0.59514 0.146565 3.58641e-20)
(0.330224 0.0796366 1.68342e-19)
(0.122942 0.0291003 -7.97344e-19)
(0.00770826 0.00149816 4.71536e-19)
(-0.0118256 -0.00295834 -5.6814e-19)
(0.250896 0.0765276 1.74761e-20)
(1.13763 0.338859 -8.64101e-22)
(1.33351 0.405405 -1.09829e-21)
(1.37313 0.427493 -1.48227e-20)
(1.33713 0.430185 -2.34596e-20)
(1.27449 0.424148 1.80225e-21)
(1.21092 0.415555 -3.50145e-20)
(1.14723 0.403797 6.54732e-20)
(1.08352 0.387169 -1.22357e-19)
(1.02125 0.364207 0)
(0.970678 0.337986 -6.15077e-20)
(0.938915 0.314649 -1.61272e-21)
(0.921544 0.295424 -9.06771e-20)
(0.894163 0.2742 0)
(0.792265 0.23378 -6.5439e-20)
(0.578728 0.16442 -1.55568e-19)
(0.328101 0.0915021 4.14381e-19)
(0.128114 0.0346328 -4.08486e-19)
(0.012152 0.00257245 5.80084e-19)
(-0.0111385 -0.00334346 -6.02735e-19)
(0.244763 0.0866054 -4.13162e-22)
(1.13382 0.392583 5.3255e-21)
(1.33299 0.468168 5.7799e-21)
(1.37098 0.491703 3.40311e-21)
(1.33268 0.491225 -1.13519e-20)
(1.2682 0.48113 0)
(1.20235 0.468452 -3.13071e-20)
(1.13592 0.452575 -6.82791e-20)
(1.06909 0.431741 -6.3292e-20)
(1.00341 0.404451 0)
(0.949763 0.374343 -6.36425e-20)
(0.915603 0.348032 -7.97012e-20)
(0.896036 0.326499 9.86296e-20)
(0.8664 0.302584 -6.01648e-20)
(0.767415 0.258042 -2.87163e-19)
(0.565415 0.183706 1.70717e-19)
(0.329272 0.104847 5.07241e-20)
(0.136194 0.0418794 0)
(0.0193286 0.00511656 -5.63124e-19)
(-0.00950228 -0.003321 -2.06759e-20)
(0.239879 0.0961657 5.71832e-21)
(1.12654 0.443467 -8.46593e-21)
(1.32846 0.528479 -4.4112e-21)
(1.36497 0.553512 1.60107e-20)
(1.32489 0.550286 -3.70644e-20)
(1.25901 0.536509 5.67031e-20)
(1.1913 0.520058 6.76577e-20)
(1.12253 0.500332 -1.0907e-19)
(1.05295 0.47553 4.00954e-20)
(0.984206 0.444087 -2.63556e-19)
(0.927696 0.410157 -7.25532e-20)
(0.891294 0.380917 0)
(0.869739 0.357192 1.07282e-19)
(0.838404 0.330738 1.29131e-19)
(0.742781 0.28234 1.54969e-19)
(0.552229 0.203702 -1.86198e-19)
(0.330108 0.119048 -5.51539e-20)
(0.144266 0.0505067 6.47047e-20)
(0.0273039 0.00880986 0)
(-0.00737748 -0.00294259 -4.50468e-20)
(0.236159 0.105371 -8.37671e-20)
(1.1174 0.491617 4.77269e-20)
(1.32116 0.586237 6.37676e-21)
(1.35609 0.612591 6.17672e-21)
(1.31456 0.606977 -1.37094e-20)
(1.24761 0.589891 -4.0788e-21)
(1.17837 0.57002 -7.45217e-20)
(1.1076 0.546759 -3.96256e-20)
(1.03558 0.518257 -1.10376e-19)
(0.963993 0.482876 3.12784e-22)
(0.904794 0.445248 -2.26716e-19)
(0.866318 0.413243 1.93852e-19)
(0.84294 0.387381 -1.18405e-19)
(0.810124 0.358428 1.42993e-19)
(0.717276 0.30645 0)
(0.537737 0.22372 -1.01498e-19)
(0.328329 0.133541 1.18206e-22)
(0.150428 0.0597532 -2.83475e-19)
(0.0345801 0.0131278 -4.1581e-20)
(-0.00514854 -0.00230322 0)
(0.233469 0.114368 0)
(1.10734 0.537257 5.44764e-20)
(1.31196 0.641584 2.50997e-20)
(1.34515 0.668805 -1.89095e-21)
(1.30237 0.661093 -2.12919e-20)
(1.23459 0.641056 0)
(1.1641 0.61811 -3.19784e-20)
(1.09159 0.591643 -1.05578e-21)
(1.01733 0.559746 2.36817e-19)
(0.943089 0.520665 -3.60133e-20)
(0.881343 0.479533 -1.64046e-19)
(0.840941 0.444862 1.00502e-19)
(0.815863 0.41678 -2.22482e-21)
(0.781664 0.385234 1.52105e-19)
(0.690998 0.329601 9.42743e-20)
(0.521398 0.242681 -2.19566e-19)
(0.323292 0.147521 2.60085e-19)
(0.153302 0.0686626 7.70649e-20)
(0.0398174 0.0173834 3.17497e-19)
(-0.00323016 -0.0015916 -8.47821e-19)
(0.231755 0.123287 -2.69616e-20)
(1.09705 0.580577 3.70931e-20)
(1.30153 0.693986 -2.56094e-20)
(1.33274 0.722116 -6.06582e-21)
(1.28889 0.712532 0)
(1.22046 0.689873 -2.189e-20)
(1.14891 0.66419 1.09544e-19)
(1.07486 0.634851 8.6145e-20)
(0.998562 0.599874 0)
(0.921779 0.557368 -5.21872e-19)
(0.857584 0.512915 4.44722e-19)
(0.81532 0.475515 0)
(0.788667 0.445092 1.38859e-19)
(0.75319 0.410818 -2.23223e-21)
(0.664177 0.351226 -3.01781e-19)
(0.502889 0.259828 1.18061e-19)
(0.315088 0.159994 0)
(0.152408 0.0763596 4.16143e-19)
(0.0424265 0.0208997 0)
(-0.00186791 -0.000995476 -4.02002e-19)
(0.230842 0.132213 3.21251e-20)
(1.08697 0.62175 4.75301e-20)
(1.29026 0.743549 -2.55878e-20)
(1.31938 0.772521 0)
(1.27456 0.761274 -1.21411e-20)
(1.20562 0.736297 0)
(1.13319 0.708191 -1.04858e-19)
(1.05777 0.676309 -3.85531e-20)
(0.979556 0.638579 4.11811e-20)
(0.900321 0.592945 -2.58318e-19)
(0.833684 0.545291 4.57215e-20)
(0.789585 0.505045 0)
(0.761472 0.472193 -2.96598e-19)
(0.724643 0.435004 2.19379e-21)
(0.636612 0.370964 0)
(0.48235 0.27478 1.36587e-21)
(0.303697 0.170246 3.81108e-19)
(0.148263 0.0820923 -3.59898e-19)
(0.0424116 0.0231749 1.0612e-19)
(-0.00114266 -0.000634244 0)
(0.230415 0.141018 0)
(1.07737 0.660867 5.69208e-20)
(1.27844 0.790419 3.65811e-20)
(1.30545 0.820071 -2.5077e-21)
(1.25976 0.807344 6.91663e-22)
(1.19041 0.780324 -4.88675e-20)
(1.11724 0.750092 4.01885e-20)
(1.04058 0.715983 -4.67953e-20)
(0.960569 0.675821 1.85518e-19)
(0.878918 0.627376 -4.1298e-19)
(0.809775 0.576615 -3.9365e-21)
(0.763816 0.533485 -1.28991e-19)
(0.734298 0.498126 4.82003e-19)
(0.696013 0.457578 -2.5894e-21)
(0.608477 0.388546 -2.34716e-19)
(0.459922 0.287067 -4.18487e-19)
(0.289558 0.177941 0)
(0.141217 0.0856442 0)
(0.0404058 0.0240948 1.14586e-19)
(-0.000967544 -0.000569644 -6.72818e-20)
(0.230643 0.14983 4.46765e-20)
(1.06831 0.697798 -1.29082e-19)
(1.26639 0.83468 -3.92815e-20)
(1.29129 0.864864 0)
(1.24477 0.850798 -1.51955e-21)
(1.17511 0.821979 -3.8821e-20)
(1.10132 0.789902 9.31438e-20)
(1.02354 0.753866 1.80298e-19)
(0.941814 0.711598 2.39903e-19)
(0.857759 0.660661 -3.36569e-19)
(0.785993 0.606937 -3.82815e-19)
(0.738065 0.560987 3.45077e-19)
(0.707077 0.522897 0)
(0.667159 0.478289 -1.06611e-19)
(0.579669 0.403586 -2.54046e-19)
(0.435597 0.296417 -3.00902e-19)
(0.273086 0.182743 -3.55822e-19)
(0.131684 0.0868319 1.05134e-19)
(0.0367776 0.0237888 -6.17185e-20)
(-0.0011497 -0.000716828 2.86515e-22)
(0.230992 0.158579 0)
(1.05993 0.733041 0)
(1.25431 0.876437 2.50127e-21)
(1.27708 0.907016 0)
(1.22982 0.891726 -1.64688e-20)
(1.15993 0.861322 2.12707e-20)
(1.08562 0.82765 0)
(1.00683 0.789968 2.06661e-20)
(0.92348 0.745913 3.98573e-19)
(0.837015 0.692817 -7.74477e-19)
(0.762466 0.636376 0)
(0.712371 0.587694 -2.22236e-19)
(0.679683 0.546424 -3.05387e-21)
(0.637964 0.496938 -2.39191e-21)
(0.550255 0.415836 2.71713e-19)
(0.410116 0.302686 -1.57678e-22)
(0.254743 0.184573 -7.66671e-19)
(0.120256 0.085729 2.26209e-19)
(0.0319031 0.0223131 6.6853e-20)
(-0.00155643 -0.001018 0)
(0.231439 0.167184 -1.77419e-19)
(1.05197 0.766625 -8.6497e-20)
(1.2423 0.915769 -1.14193e-19)
(1.263 0.946647 1.16208e-19)
(1.21509 0.9302 -4.47501e-20)
(1.14503 0.898418 0)
(1.0703 0.863381 5.32357e-20)
(0.990599 0.824314 -4.67027e-20)
(0.905714 0.778783 3.89247e-21)
(0.816844 0.723878 5.73712e-20)
(0.739334 0.66506 4.95412e-19)
(0.686762 0.613702 -7.78345e-20)
(0.652017 0.56867 -2.97373e-19)
(0.608289 0.513425 -1.24378e-19)
(0.520224 0.42508 1.47722e-19)
(0.383935 0.305679 2.96203e-23)
(0.235102 0.183356 2.06548e-19)
(0.107751 0.0824679 -4.86765e-19)
(0.0265562 0.0199385 5.75358e-19)
(-0.00207843 -0.00143081 8.38788e-20)
(0.231787 0.175526 6.73101e-20)
(1.04445 0.798649 -4.86789e-20)
(1.23049 0.952775 6.22399e-21)
(1.24917 0.983885 7.38446e-20)
(1.20069 0.966333 1.63138e-20)
(1.13055 0.933341 -3.19452e-20)
(1.05549 0.897147 1.35654e-20)
(0.974975 0.856926 -1.93257e-19)
(0.888645 0.81021 -4.3638e-19)
(0.79738 0.753863 -4.6031e-19)
(0.716747 0.693094 0)
(0.661279 0.639077 -3.42876e-19)
(0.624001 0.58973 4.29133e-19)
(0.577902 0.527736 0)
(0.489492 0.430978 -3.16405e-19)
(0.357518 0.304955 1.88564e-19)
(0.21539 0.178888 -2.22082e-19)
(0.0954469 0.0773843 -2.61931e-19)
(0.0214204 0.0170636 -4.63405e-19)
(-0.00259463 -0.00187293 -3.61312e-19)
(0.232476 0.183738 -7.60049e-20)
(1.0372 0.829099 5.20829e-20)
(1.21893 0.987527 1.1926e-19)
(1.23568 1.01878 1.0746e-19)
(1.18674 1.00022 -3.07153e-20)
(1.11657 0.966179 -1.0563e-20)
(1.04127 0.928999 4.66968e-20)
(0.96004 0.887847 -1.96138e-19)
(0.872357 0.840217 -2.57761e-19)
(0.778747 0.7828 4.80413e-19)
(0.694831 0.720535 1.08756e-18)
(0.635998 0.663909 0)
(0.595583 0.609858 0)
(0.546457 0.539955 -1.43274e-19)
(0.457696 0.433138 0)
(0.331016 0.299704 4.05405e-19)
(0.196853 0.17039 4.77538e-19)
(0.0853055 0.0704791 0)
(0.0177393 0.0141097 0)
(-0.00296918 -0.00224326 3.88224e-19)
(0.232826 0.191519 8.6373e-20)
(1.03027 0.857964 6.98667e-20)
(1.20768 1.02015 8.6661e-20)
(1.2226 1.05147 -1.03124e-19)
(1.1733 1.03197 -4.00391e-20)
(1.10316 0.997011 1.29119e-21)
(1.0277 0.959 -6.24917e-20)
(0.945859 0.917105 -4.06776e-22)
(0.856931 0.868812 -5.05604e-21)
(0.761042 0.810695 -4.80928e-21)
(0.673727 0.7474 5.59963e-19)
(0.611046 0.688329 0)
(0.56676 0.629414 4.35117e-19)
(0.513558 0.550282 3.05684e-19)
(0.424123 0.431427 7.39053e-19)
(0.303892 0.288766 2.18425e-19)
(0.180754 0.155403 -2.57054e-19)
(0.0813453 0.0590474 -1.50917e-19)
(0.0211457 0.0101015 0)
(-0.0012904 -0.0017459 4.17184e-19)
(0.233485 0.199312 -1.94673e-19)
(1.02359 0.885348 0)
(1.19673 1.05069 1.01829e-19)
(1.20997 1.08203 -8.73665e-20)
(1.16041 1.06168 5.39398e-20)
(1.09035 1.02592 1.55617e-20)
(1.01483 0.987206 1.12248e-19)
(0.932468 0.944737 -1.66953e-20)
(0.842409 0.896005 0)
(0.744343 0.837528 -5.27371e-19)
(0.65357 0.773672 -1.21507e-18)
(0.586592 0.712508 5.04167e-20)
(0.537609 0.648773 6.00637e-19)
(0.478937 0.559086 0)
(0.387705 0.42641 4.99103e-19)
(0.273897 0.271269 0)
(0.165347 0.128547 0)
(0.0878959 0.029514 -1.6326e-19)
(0.0523672 -0.00581947 0)
(0.027999 0.0113279 1.11781e-19)
(0.233776 0.206515 -2.17562e-19)
(1.01715 0.91157 0)
(1.18609 1.07936 1.69381e-19)
(1.19772 1.11071 0)
(1.14803 1.08962 -3.26217e-20)
(1.0781 1.0532 0)
(1.0026 1.01393 4.01258e-21)
(0.919771 0.971081 2.65389e-20)
(0.828669 0.922158 3.22202e-20)
(0.728483 0.863686 -5.76535e-19)
(0.634168 0.799766 3.61834e-20)
(0.56241 0.737135 4.07151e-19)
(0.507719 0.668743 5.86083e-19)
(0.441734 0.566948 7.94256e-20)
(0.346563 0.419699 3.91532e-19)
(0.236219 0.24821 0)
(0.138642 0.0857924 5.42367e-19)
(0.0746297 -0.0176756 -3.16912e-19)
(0.0429855 0.0446292 3.67908e-19)
(-0.069013 0.436438 -4.33481e-19)
(0.234056 0.213526 1.80213e-19)
(1.01067 0.936413 2.78189e-19)
(1.17566 1.10647 0)
(1.18572 1.13794 4.99437e-21)
(1.13598 1.11636 9.59933e-20)
(1.06613 1.07953 -6.68341e-20)
(0.990678 1.03997 3.34685e-20)
(0.907356 0.99707 0)
(0.815177 0.948356 2.09332e-19)
(0.712793 0.890467 -2.9621e-20)
(0.614609 0.827159 0)
(0.537256 0.763963 0)
(0.475159 0.690836 5.24957e-19)
(0.399682 0.574464 -2.46033e-19)
(0.297541 0.413404 -3.96913e-19)
(0.185953 0.22315 0)
(0.0808486 0.0912069 2.73563e-19)
(0.00404848 0.439245 -3.15956e-19)
(0.0334712 1.89012 -1.72018e-19)
(0.0627654 2.81161 -2.20639e-19)
(0.234156 0.219711 -1.35393e-19)
(1.00436 0.960062 -3.56955e-19)
(1.16545 1.132 1.00614e-19)
(1.17397 1.16361 8.44168e-20)
(1.12426 1.14166 0)
(1.05451 1.10462 -5.76322e-20)
(0.979274 1.06501 3.74299e-20)
(0.895415 1.02228 -1.23611e-20)
(0.802204 0.974087 3.13918e-20)
(0.697651 0.917257 5.46281e-19)
(0.595491 0.855211 6.11404e-19)
(0.512044 0.792652 4.54815e-19)
(0.440747 0.71496 5.28013e-19)
(0.354473 0.58064 -5.78108e-19)
(0.246242 0.411284 -5.99452e-19)
(0.124711 0.263695 0)
(0.0439557 0.828541 0)
(0.101237 2.55057 1.50286e-19)
(0.102328 3.20147 0)
(0.105498 3.38826 3.56371e-19)
(0.236808 0.225383 0)
(0.998798 0.982719 0)
(1.15524 1.15581 0)
(1.16223 1.18755 2.53435e-20)
(1.11255 1.16529 8.78605e-20)
(1.04303 1.12834 -5.52725e-20)
(0.968277 1.08895 2.08295e-20)
(0.883906 1.0466 -1.17697e-20)
(0.789716 0.999219 2.55812e-19)
(0.683089 0.943917 -9.18233e-21)
(0.576972 0.883861 1.20358e-18)
(0.48707 0.823062 -5.26369e-20)
(0.40466 0.741954 6.37049e-20)
(0.308871 0.583382 8.36928e-20)
(0.183197 0.424375 -4.95769e-21)
(0.100133 0.960656 1.84451e-21)
(0.14034 2.72064 -7.94943e-19)
(0.1485 3.29254 -2.97322e-19)
(0.137416 3.42592 1.52129e-19)
(0.12481 3.44817 -1.68409e-19)
(0.155185 0.182343 8.00763e-20)
(0.987967 1.00715 0)
(1.14467 1.17809 -2.01368e-19)
(1.15105 1.21025 -2.28135e-19)
(1.10172 1.18807 2.04628e-19)
(1.03262 1.15138 6.31047e-20)
(0.957651 1.11185 -1.69077e-20)
(0.872942 1.07017 1.17442e-19)
(0.777884 1.02393 -2.06362e-19)
(0.669393 0.970618 0)
(0.559462 0.913354 5.88112e-19)
(0.462876 0.855044 -3.69781e-19)
(0.368124 0.774306 0)
(0.256785 0.584557 7.77879e-20)
(0.145641 0.751039 1.8672e-19)
(0.156031 2.49242 -2.17069e-19)
(0.213132 3.32275 2.42899e-19)
(0.193103 3.43883 1.29414e-19)
(0.160643 3.46051 1.44896e-19)
(0.138845 3.47087 2.26779e-19)
(0.279963 0.263825 -1.46365e-19)
(0.972883 1.01715 0)
(1.12671 1.20359 2.18693e-19)
(1.13649 1.24083 2.48992e-19)
(1.08454 1.22114 -2.2546e-19)
(1.0147 1.18485 -8.6421e-20)
(0.9388 1.14695 -6.64559e-21)
(0.853589 1.10651 9.3995e-21)
(0.757242 1.06247 1.90646e-19)
(0.646064 1.0131 4.60946e-19)
(0.531033 0.962257 3.26819e-20)
(0.424177 0.909911 3.26703e-19)
(0.30127 0.813231 5.92894e-20)
(0.213716 0.92823 -7.61552e-20)
(0.230184 2.34103 -1.72825e-19)
(0.291689 3.32518 1.62199e-19)
(0.274682 3.46791 -1.77216e-19)
(0.239159 3.48991 -1.01892e-19)
(0.20196 3.5177 -8.13132e-20)
(0.150422 3.51184 -9.65167e-21)
(0.267902 0.260752 0)
(0.970647 1.03992 6.28798e-20)
(1.11851 1.22713 -4.50114e-20)
(1.12602 1.26451 -2.95563e-20)
(1.07386 1.24437 -1.55402e-19)
(1.00398 1.20831 8.87935e-20)
(0.927767 1.17056 1.24315e-20)
(0.842369 1.13093 8.01257e-21)
(0.745521 1.08838 -1.94903e-19)
(0.633093 1.04186 -1.38504e-20)
(0.515381 0.99597 -1.05126e-18)
(0.403604 0.948133 4.66829e-20)
(0.284257 0.878385 -5.56173e-20)
(0.255697 1.47808 -6.98638e-20)
(0.331242 3.09778 1.80837e-20)
(0.350851 3.4655 3.98027e-22)
(0.310398 3.52202 2.41596e-19)
(0.272946 3.5488 1.12578e-19)
(0.224165 3.57243 -1.75108e-20)
(0.165105 3.56856 -4.0366e-20)
(0.251691 0.259243 1.59113e-19)
(0.96684 1.06538 4.2896e-19)
(1.1099 1.25276 -1.29162e-19)
(1.11495 1.28959 -1.11768e-19)
(1.06255 1.26894 0)
(0.992828 1.23295 1.54776e-19)
(0.916606 1.19544 3.30746e-20)
(0.831298 1.1566 6.51305e-21)
(0.734264 1.11563 -2.19364e-20)
(0.621104 1.0722 -4.05692e-19)
(0.501526 1.0317 -4.79651e-19)
(0.386434 0.98752 -3.77845e-19)
(0.286599 1.00604 -4.18739e-19)
(0.325424 2.19442 4.33777e-19)
(0.418384 3.3743 3.54766e-19)
(0.395411 3.52328 0)
(0.349723 3.5686 0)
(0.311547 3.60974 -1.18503e-20)
(0.260493 3.67021 0)
(0.177524 3.64645 4.64214e-22)
(0.241006 0.261175 -2.38214e-19)
(0.961082 1.09195 -3.64053e-19)
(1.09986 1.27961 0)
(1.10252 1.3154 5.97866e-21)
(1.04998 1.29412 -1.66479e-19)
(0.980557 1.25807 2.47756e-19)
(0.904658 1.22085 3.00928e-20)
(0.819645 1.18271 1.63397e-21)
(0.722665 1.14325 -1.27894e-19)
(0.60918 1.10288 1.95266e-20)
(0.488628 1.06794 0)
(0.368898 1.02866 0)
(0.308319 1.25988 -3.77809e-19)
(0.40937 2.87457 1.52634e-19)
(0.49056 3.48259 1.88167e-19)
(0.442271 3.55605 0)
(0.40154 3.62019 1.67643e-20)