/*--------------------------------*- C++ -*----------------------------------*\
  =========                 |
  \\      /  F ield         | OpenFOAM: The Open Source CFD Toolbox
   \\    /   O peration     | Website:  https://openfoam.org
    \\  /    A nd           | Version:  10
     \\/     M anipulation  |
\*---------------------------------------------------------------------------*/
FoamFile
{
    format      ascii;
    class       volScalarField;
    location    "0.5";
    object      p;
}
// * * * * * * * * * * * * * * * * * * * * * * * * * * * * * * * * * * * * * //

dimensions      [1 -1 -2 0 0 0 0];

internalField   nonuniform List<scalar> 
16128
(
1
1
1
1
1
1
1
1
1
1
1
1
1
1
1
1
1
1
1
1
1
1
1
1
1
1
1
1
1
1
3.71819
10.6532
11.544
11.6143
11.6161
11.5879
11.6303
11.8102
12.0227
12.2075
12.3236
12.3446
12.3369
12.3481
12.3919
12.4671
12.5369
12.6082
1
1
1
1
1
1
1
1
1
1
1
1
1
1
1
1
1
1
1
1
1
1
1
1
1
1
1
1
1
1
3.64419
10.58
11.5212
11.6052
11.6094
11.5796
11.622
11.8051
12.0188
12.2067
12.3222
12.341
12.3313
12.3379
12.3769
12.448
12.5193
12.5887
1
1
1
1
1
1
1
1
1
1
1
1
1
1
1
1
1
1
1
1
1
1
1
1
1
1
1
1
1
1
3.47382
10.4544
11.4897
11.5784
11.5906
11.5602
11.6023
11.7908
12.0102
12.2044
12.3201
12.3348
12.3219
12.3204
12.3515
12.4172
12.4921
12.5596
1
1
1
1
1
1
1
1
1
1
1
1
1
1
1
1
1
1
1
1
1
1
1
1
1
1
1
1
1
1
3.23843
10.2499
11.4517
11.5429
11.5598
11.5299
11.5733
11.7688
11.997
12.1987
12.3134
12.3208
12.3039
12.294
12.318
12.3787
12.4588
12.5211
1
1
1
1
1
1
1
1
1
1
1
1
1
1
1
1
1
1
1
1
1
1
1
1
1
1
1
1
1
1
2.93537
9.94739
11.4144
11.4967
11.5242
11.4941
11.5394
11.7399
11.9801
12.1891
12.3004
12.2969
12.2718
12.2561
12.2789
12.3378
12.4209
12.4681
1
1
1
1
1
1
1
1
1
1
1
1
1
1
1
1
1
1
1
1
1
1
1
1
1
1
1
1
1
1
2.54432
9.5253
11.3905
11.4485
11.4836
11.4532
11.502
11.7069
11.9628
12.1757
12.2785
12.2617
12.2265
12.2088
12.2354
12.291
12.3711
12.3995
1
1
1
1
1
1
1
1
1
1
1
1
1
1
1
1
1
1
1
1
1
1
1
1
1
1
1
1
1
1
2.06088
8.97175
11.3909
11.4047
11.4357
11.4108
11.463
11.6722
11.941
12.1511
12.2419
12.214
12.1703
12.1521
12.1787
12.2273
12.3001
12.3288
1
1
1
1
1
1
1
1
1
1
1
1
1
1
1
1
1
1
1
1
1
1
1
1
1
1
1
1
1
1
1.54953
8.21131
11.349
11.357
11.384
11.3721
11.424
11.6343
11.9073
12.1096
12.1903
12.1579
12.1076
12.0846
12.1026
12.1447
12.2077
12.2501
1
1
1
1
1
1
1
1
1
1
1
1
1
1
1
1
1
1
1
1
1
1
1
1
1
1
1
1
1
1
1.11139
7.19304
11.2733
11.3104
11.319
11.3261
11.3874
11.5932
11.8543
12.0436
12.1183
12.0881
12.0326
11.9974
12.0033
12.0479
12.1121
12.1436
1
1
1
1
1
1
1
1
1
1
1
1
1
1
1
1
1
1
1
1
1
1
1
1
1
1
1
1
1
1
1.00158
6.07858
11.0576
11.2295
11.2737
11.2912
11.3522
11.5366
11.7754
11.9514
12.0254
12.004
11.9472
11.8986
11.8863
11.9251
11.9927
12.0109
1
1
1
1
1
1
1
1
1
1
1
1
1
1
1
1
1
1
1
1
1
1
1
1
1
1
1
1
1
1
1
4.94181
10.7431
11.1667
11.2418
11.2627
11.3101
11.4631
11.6733
11.8356
11.9112
11.8989
11.8419
11.7802
11.7473
11.7734
11.8378
11.8532
1
1
1
1
1
1
1
1
1
1
1
1
1
1
1
1
1
1
1
1
1
1
1
1
1
1
1
1
1
1
1
3.79993
10.2908
11.12
11.1991
11.2273
11.258
11.3758
11.5512
11.6988
11.7756
11.7696
11.7157
11.6508
11.6037
11.6045
11.644
11.6277
1
1
1
1
1
1
1
1
1
1
1
1
1
1
1
1
1
1
1
1
1
1
1
1
1
1
1
1
1
1
1
2.66419
9.63022
11.0657
11.1477
11.1765
11.1887
11.268
11.4069
11.5466
11.6278
11.6229
11.5637
11.4817
11.4081
11.3758
11.3856
11.3454
1
1
1
1
1
1
1
1
1
1
1
1
1
1
1
1
1
1
1
1
1
1
1
1
1
1
1
1
1
1
1
1.68679
8.608
11.1046
11.0948
11.082
11.0749
11.1216
11.2405
11.381
11.4631
11.4537
11.3854
11.2875
11.1939
11.1246
11.0631
10.9283
1
1
1
1
1
1
1
1
1
1
1
1
1
1
1
1
1
1
1
1
1
1
1
1
1
1
1
1
1
1
1
1.06664
7.22475
10.8817
11.0094
11.036
10.9978
10.9879
11.0582
11.1814
11.2657
11.2605
11.1827
11.0505
10.8949
10.71
10.515
10.3795
1
1
1
1
1
1
1
1
1
1
1
1
1
1
1
1
1
1
1
1
1
1
1
1
1
1
1
1
1
1
1
1.00059
5.40214
10.4802
10.8633
10.9442
10.913
10.8626
10.8863
10.9724
11.0427
11.0292
10.9349
10.7625
10.5531
10.2875
9.96766
9.8465
1
1
1
1
1
1
1
1
1
1
1
1
1
1
1
1
1
1
1
1
1
1
1
1
1
1
1
1
1
1
1
1
3.51362
9.90456
10.7478
10.8116
10.8345
10.7762
10.7561
10.7854
10.8074
10.7695
10.6536
10.4598
10.15
9.68863
8.69065
6.61183
1
1
1
1
1
1
1
1
1
1
1
1
1
1
1
1
1
1
1
1
1
1
1
1
1
1
1
1
1
1
1
1
1.85291
8.76813
10.8626
10.7305
10.7005
10.5911
10.5341
10.5518
10.5733
10.5218
10.3568
10.0999
9.661
8.96525
7.85609
5.56418
1
1
1
1
1
1
1
1
1
1
1
1
1
1
1
1
1
1
1
1
1
1
1
1
1
1
1
1
1
1
1
1
1.05947
6.87685
10.5591
10.6049
10.6093
10.4953
10.3728
10.3457
10.3283
10.2522
10.0412
9.72102
9.20573
8.49765
7.22836
5.35261
1
1
1
1
1
1
1
1
1
1
1
1
1
1
1
1
1
1
1
1
1
1
1
1
1
1
1
1
1
1
1
1
1.00047
4.41438
9.96859
10.4807
10.4976
10.4023
10.232
10.1403
10.053
9.93969
9.70313
9.34445
8.8081
8.0533
6.82285
5.30064
1
1
1
1
1
1
1
1
1
1
1
1
1
1
1
1
1
1
1
1
1
1
1
1
1
1
1
1
1
1
1
1
1
2.20204
8.91066
10.38
10.3502
10.2566
10.0821
9.95086
9.80109
9.64592
9.39305
9.0083
8.49196
7.69585
6.62403
5.39976
1
1
1
1
1
1
1
1
1
1
1
1
1
1
1
1
1
1
1
1
1
1
1
1
1
1
1
1
1
1
1
1
1
1.10422
6.9363
10.1053
10.188
10.1154
9.93493
9.74296
9.56309
9.38811
9.12979
8.74222
8.20633
7.43285
6.50545
5.48374
1
1
1
1
1
1
1
1
1
1
1
1
1
1
1
1
1
1
1
1
1
1
1
1
1
1
1
1
1
1
1
1
1
1.00101
4.12742
9.50931
10.0619
10.0185
9.81317
9.56098
9.32826
9.11017
8.84135
8.49703
7.98245
7.28659
6.48611
5.61101
1
1
1
1
1
1
1
1
1
1
1
1
1
1
1
1
1
1
1
1
1
1
1
1
1
1
1
1
1
1
1
1
1
1
1.7265
8.21297
9.96941
9.87326
9.69426
9.44673
9.15492
8.87034
8.59177
8.25667
7.80543
7.20361
6.49641
5.71748
1
1
1
1
1
1
1
1
1
1
1
1
1
1
1
1
1
1
1
1
1
1
1
1
1
1
1
1
1
1
1
1
1
1
1.037
5.67813
9.40163
9.57818
9.56153
9.37897
9.07098
8.72143
8.38784
8.03395
7.62505
7.1175
6.50908
5.83172
1
1
1
1
1
1
1
1
1
1
1
1
1
1
1
1
1
1
1
1
1
1
1
1
1
1
1
1
1
1
1
1
1
1
1.00012
2.59972
8.62014
9.47695
9.42315
9.2621
8.98198
8.63296
8.27005
7.88715
7.48276
7.02822
6.49506
5.90699
1
1
1
1
1
1
1
1
1
1
1
1
1
1
1
1
1
1
1
1
1
1
1
1
1
1
1
1
1
1
1
1
1
1
1
1.15178
6.40824
9.21847
9.19605
9.09566
8.88968
8.57182
8.19784
7.79065
7.37332
6.94014
6.46794
5.95772
1
1
1
1
1
1
1
1
1
1
1
1
1
1
1
1
1
1
1
1
1
1
1
1
1
1
1
1
1
1
1
1
1
1
1
1.00174
3.07142
8.57542
9.10785
8.95527
8.76342
8.49631
8.1488
7.74631
7.31948
6.88782
6.44732
5.98641
1
1
1
1
1
1
1
1
1
1
1
1
1
1
1
1
1
1
1
1
1
1
1
1
1
1
1
1
1
1
1
1
1
1
1
1
1.23539
6.43913
8.85972
8.76677
8.61682
8.39615
8.09353
7.72245
7.30767
6.878
6.44436
6.01011
1
1
1
1
1
1
1
1
1
1
1
1
1
1
1
1
1
1
1
1
1
1
1
1
1
1
1
1
1
1
1
1
1
1
1
1
1.00393
2.89943
8.16219
8.74819
8.54082
8.31934
8.04389
7.71392
7.32332
6.89688
6.46775
6.05382
1
1
1
1
1
1
1
1
1
1
1
1
1
1
1
1
1
1
1
1
1
1
1
1
1
1
1
1
1
1
1
1
1
1
1
1
1.00001
1.19414
5.80781
8.45995
8.36187
8.16133
7.94265
7.67507
7.33009
6.92962
6.51552
6.1149
1
1
1
1
1
1
1
1
1
1
1
1
1
1
1
1
1
1
1
1
1
1
1
1
1
1
1
1
1
1
1
1
1
1
1
1
1
1.0027
2.30396
7.52069
8.41038
8.12793
7.88402
7.61126
7.29735
6.94197
6.56317
6.18479
1
1
1
1
1
1
1
1
1
1
1
1
1
1
1
1
1
1
1
1
1
1
1
1
1
1
1
1
1
1
1
1
1
1
1
1
1
1
1.09746
4.53474
7.91505
8.05553
7.81279
7.57716
7.29388
6.97084
6.62069
6.26038
1
1
1
1
1
1
1
1
1
1
1
1
1
1
1
1
1
1
1
1
1
1
1
1
1
1
1
1
1
1
1
1
1
1
1
1
1
1
1.00095
1.66762
6.3111
8.04958
7.80056
7.49625
7.19324
6.89579
6.59995
6.28849
1
1
1
1
1
1
1
1
1
1
1
1
1
1
1
1
1
1
1
1
1
1
1
1
1
1
1
1
1
1
1
1
1
1
1
1
1
1
1
1.02565
2.87315
7.23085
7.86171
7.51604
7.22036
6.90508
6.59645
6.29016
1
1
1
1
1
1
1
1
1
1
1
1
1
1
1
1
1
1
1
1
1
1
1
1
1
1
1
1
1
1
1
1
1
1
1
1
1
1
1
1.00013
1.18856
4.42445
7.37504
7.51459
7.20968
6.93178
6.64045
6.34665
1
1
1
1
1
1
1
1
1
1
1
1
1
1
1
1
1
1
1
1
1
1
1
1
1
1
1
1
1
1
1
1
1
1
1
1
1
1
1
1
1.00299
1.66349
5.58425
7.42431
7.22468
6.90278
6.63635
6.36068
1
1
1
1
1
1
1
1
1
1
1
1
1
1
1
1
1
1
1
1
1
1
1
1
1
1
1
1
1
1
1
1
1
1
1
1
1
1
1
1
1.00001
1.02597
2.4139
6.32131
7.27543
7.00377
6.68748
6.38501
1
1
1
1
1
1
1
1
1
1
1
1
1
1
1
1
1
1
1
1
1
1
1
1
1
1
1
1
1
1
1
1
1
1
1
1
1
1
1
1
1
1.00015
1.11141
3.27578
6.59746
7.07954
6.79784
6.47914
1
1
1
1
1
1
1
1
1
1
1
1
1
1
1
1
1
1
1
1
1
1
1
1
1
1
1
1
1
1
1
1
1
1
1
1
1
1
1
1
1
1
1.00141
1.29178
3.99641
6.63951
6.86041
6.57782
1
1
1
1
1
1
1
1
1
1
1
1
1
1
1
1
1
1
1
1
1
1
1
1
1
1
1
1
1
1
1
1
1
1
1
1
1
1
1
1
1
1
1
1.00659
1.54798
4.52671
6.53868
6.65501
1
1
1
1
1
1
1
1
1
1
1
1
1
1
1
1
1
1
1
1
1
1
1
1
1
1
1
1
1
1
1
1
1
1
1
1
1
1
1
1
1
1
1
1.00002
1.01979
1.82789
4.87039
6.37223
1
1
1
1
1
1
1
1
1
1
1
1
1
1
1
1
1
1
1
1
1
1
1
1
1
1
1
1
1
1
1
1
1
1
1
1
1
1
1
1
1
1
1
1
1.00012
1.04204
2.08892
5.02836
1
1
1
1
1
1
1
1
1
1
1
1
1
1
1
1
1
1
1
1
1
1
1
1
1
1
1
1
1
1
1
1
1
1
1
1
1
1
1
1
1
1
1
1
1
1.00037
1.07089
2.28901
1
1
1
1
1
1
1
1
1
1
1
1
1
1
1
1
1
1
1
1
1
1
1
1
1
1
1
1
1
1
1
1
1
1
1
1
1
1
1
1
1
1
1
1
1
1
1.0008
1.09971
1
1
1
1
1
1
1
1
1
1
1
1
1
1
1
1
1
1
1
1
1
1
1
1
1
1
1
1
1
1
1
1
1
1
1
1
1
1
1
1
1
1
1
1
1
1
1
1.00131
1
1
1
1
1
1
1
1
1
1
1
1
1
1
1
1
1
1
1
1
1
1
1
1
1
1
1
1
1
1
1
1
1
1
1
1
1
1
1
1
1
1
1
1
1
1
1
1
1
1
1
1
1
1
1
1
1
1
1
1
1
1
1
1
1
1
1
1
1
1
1
1
1
1
1
1
1
1
1
1
1
1
1
1
1
1
1
1
1
1
1
1
1
1
1
1
1
1
1
1
1
1
1
1
1
1
1
1
1
1
1
1
1
1
1
1
1
1
1
1
1
1
1
1
1
1
1
1
1
1
1
1
1
1
1
1
1
1
1
1
1
1
1
1
1
1
1
1
1
1
1
1
1
1
1
1
1
1
1
1
1
1
1
1
1
1
1
1
1
1
1
1
1
1
1
1
1
1
1
1
1
1
1
1
1
1
1
1
1
1
1
1
1
1
1
1
1
1
1
1
1
1
1
1
1
1
1
1
1
1
1
1
1
1
1
1
1
1
1
1
1
1
1
1
1
1
1
1
1
1
1
1
1
1
1
1
1
1
1
1
1
1
1
1
1
1
1
1
1
1
1
1
1
1
1
1
1
1
1
1
1
1
1
1
1
1
1
1
1
1
1
1
1
1
1
1
1
1
1
1
1
1
1
1
1
1
1
1
1
1
1
1
1
1
1
1
1
1
1
1
1
1
1
1
1
1
1
1
1
1
1
1
1
1
1
1
1
1
1
1
1
1
1
1
1
1
1
1
1
1
1
1
1
1
1
1
1
1
1
1
1
1
1
1
1
1
1
1
1
1
1
1
1
1
1
1
1
1
1
1
1
1
1
1
1
1
1
1
1
1
1
1
1
1
1
1
1
1
1
1
1
1
1
1
1
1
1
1
1
1
1
1
1
1
1
1
1
1
1
1
1
1
1
1
1
1
1
1
1
1
1
1
1
1
1
1
1
1
1
1
1
1
1
1
1
1
1
1
1
1
1
1
1
1
1
1
1
1
1
1
1
1
1
1
1
1
1
1
1
1
1
1
1
1
1
1
1
1
1
1
1
1
1
1
1
1
1
1
1
1
1
1
1
1
1
1
1
1
1
1
1
1
1
1
1
1
1
1
1
1
1
1
1
1
1
1
1
1
1
1
1
1
1
1
1
1
1
1
1
1
1
1
1
1
1
1
1
1
1
1
1
1
1
1
1
1
1
1
1
1
1
1
1
1
1
1
1
1
1
1
1
1
1
1
1
1
1
1
1
1
1
1
1
1
1
1
1
1
1
1
1
1
1
1
1
1
1
1
1
1
1
1
1
1
1
1
1
1
1
1
1
1
1
1
1
1
1
1
1
1
1
1
1
1
1
1
1
1
1
1
1
1
1
1
1
1
1
1
1
1
1
1
1
1
1
1
1
1
1
1
1
1
1
1
1
1
1
1
1
1
1
1
1
1
1
1
1
1
1
1
1
1
1
1
1
1
1
1
1
1
1
1
1
1
1
1
1
1
1
1
1
1
1
1
1
1
1
1
1
1
1
1
1
1
1
1
1
1
1
1
1
1
1
1
1
1
1
1
1
1
1
1
1
1
1
1
1
1
1
1
1
1
1
1
1
1
1
1
1
1
1
1
1
1
1
1
1
1
1
1
1
1
1
1
1
1
1
1
1
1
1
1
1
1
1
1
1
1
1
1
1
1
1
1
1
1
1
1
1
1
1
1
1
1
1
1
1
1
1
1
1
1
1
1
1
1
1
1
1
1
1
1
1
1
1
1
1
1
1
1
1
1
1
1
1
1
1
1
1
1
1
1
1
1
1
1
1
1
1
1
1
1
1
1
1
1
1
1
1
1
1
1
1
1
1
1
1
1
1
1
1
1
1
1
1
1
1
1
1
1
1
1
1
1
1
1
1
1
1
1
1
1
1
1
1
1
1
1
1
1
1
1
1
1
1
1
1
1
1
1
1
1
1
1
1
1
1
1
1
1
1
1
1
1
1
1
1
1
1
1
1
1
1
1
1
1
1
1
1
1
1
1
1
1
1
1
1
1
1
1
1
1
1
1
1
1
1
1
1
1
1
1
1
1
1
1
1
1
1
1
1
1
1
1
1
1
1
1
1
1
1
1
1
1
1
1
1
1
1
1
1
1
1
1
1
1
1
1
1
1
1
1
1
1
1
1
1
1
1
1
1
1
1
1
1
1
1
1
1
1
1
1
1
1
1
1
1
1
1
1
1
1
1
1
1
1
1
1
1
1
1
1
1
1
1
1
1
1
1
1
1
1
1
1
1
1
1
1
1
1
1
1
1
1
1
1
1
1
1
1
1
1
1
1
1
1
1
1
1
1
1
1
1
1
1
1
1
1
1
1
1
1
1
1
1
1
1
1
1
1
1
1
1
1
1
1
1
1
1
1
1
1
1
1
1
1
1
1
1
1
1
1
1
1
1
1
1
1
1
1
1
1
1
1
1
1
1
1
1
1
1
1
1
1
1
1
1
1
1
1
1
1
1
1
1
1
1
1
1
1
1
1
1
1
1
1
1
1
1
1
1
1
1
1
1
1
1
1
1
1
1
1
1
1
1
1
1
1
1
1
1
1
1
1
1
1
1
1
1
1
1
1
1
1
1
1
1
1
1
1
1
1
1
1
1
1
1
1
1
1
1
1
1
1
1
1
1
1
1
1
1
1
1
1
1
1
1
1
1
1
1
1
1
1
1
1
1
1
1
1
1
1
1
1
1
1
1
1
1
1
1
1
1
1
1
1
1
1
1
1
1
1
1
1
1
1
1
1
1
1
1
1
1
1
1
1
1
1
1
1
1
1
1
1
1
1
1
1
1
1
1
1
1
1
1
1
1
1
1
1
1
1
1
1
1
1
1
1
1
1
1
1
1
1
1
1
1
1
1
1
1
1
1
1
1
1
1
1
1
1
1
1
1
1
1
1
1
1
1
1
1
1
1
1
1
1
1
1
1
1
1
1
1
1
1
1
1
1
1
1
1
1
1
1
1
1
1
1
1
1
1
1
1
1
1
1
1
1
1
1
1
1
1
1
1
1
1
1
1
1
1
1
1
1
1
1
1
1
1
1
1
1
1
1
1
1
1
1
1
1
1
1
1
1
1
1
1
1
1
1
1
1
1
1
1
1
1
1
1
1
1
1
1
1
1
1
1
1
1
1
1
1
1
1
1
1
1
1
1
1
1
1
1
1
1
1
1
1
1
1
1
1
1
1
1
1
1
1
1
1
1
1
1
1
1
1
1
1
1
1
1
1
1
1
1
1
1
1
1
1
1
1
1
1
1
1
1
1
1
1
1
1
1
1
1
1
1
1
1
1
1
1
1
1
1
1
1
1
1
1
1
1
1
1
1
1
1
1
1
1
1
1
1
1
1
1
1
1
1
1
1
1
1
1
1
1
1
1
1
1
1
1
1
1
1
1
1
1
1
1
1
1
1
1
1
1
1
1
1
1
1
1
1
1
1
1
1
1
1
1
1
1
1
1
1
1
1
1
1
1
1
1
1
1
1
1
1
1
1
1
1
1
1
1
1
1
1
1
1
1
1
1
1
1
1
1
1
1
1
1
1
1
1
1
1
1
1
1
1
1
1
1
1
1
1
1
1
1
1
1
1
1
1
1
1
1
1
1
1
1
1
1
1
1
1
1
1
1
1
1
1
1
1
1
1
1
1
1
1
1
1
1
1.3235
0.203027
0.0140955
0.0152946
0.0623682
0.109222
0.136132
0.178786
0.224188
0.275271
0.342551
0.396701
0.449405
0.501195
0.562801
0.619893
0.682607
0.765143
0.82038
0.839795
0.859918
0.880533
0.870633
0.847262
0.841377
0.868673
0.922629
0.970383
1.00329
1.02747
1.03342
1.03286
1.03871
1.04681
1.05363
1.05818
1.05419
1.02196
0.950191
0.911014
0.915008
0.925136
0.919
0.900077
0.874594
0.863641
0.860532
0.86764
0.879627
0.888437
0.890528
0.887306
0.882205
0.877515
0.87433
0.873071
0.869639
0.862315
0.854273
0.846835
0.840603
0.834314
0.828787
0.827418
0.833371
0.840068
0.837961
0.831828
0.826675
0.823235
0.82566
0.834058
0.842449
0.847272
0.846898
0.842794
0.836271
0.832248
0.834325
0.844225
0.863287
0.893184
0.916218
0.916067
0.907198
0.896204
0.895169
0.88777
0.870397
0.873664
0.884311
0.895598
0.908463
0.92338
0.935428
0.942552
0.947932
0.951709
0.951026
0.950963
0.958019
0.970621
0.981778
0.990673
0.998775
0.997066
0.982502
0.969421
0.969418
0.974332
0.974689
0.980383
1.00974
1.02855
1.01271
1.00419
1.00486
1.01077
1.0136
1.0102
1.00132
0.998697
1.01214
1.0344
1.0422
1.04784
1.04839
1.02019
0.997713
0.993373
0.994781
1.02673
1.056
1.06304
1.06787
1.05504
1.00349
0.982706
0.977095
0.976203
1.00727
1.03478
1.04094
1.04503
1.03317
0.989948
0.972203
0.965529
0.970365
1.02365
1.06256
1.06994
1.07377
1.07157
1.03778
1.00965
1.00225
0.996949
1.00006
1.01719
1.02083
1.02153
1.01264
0.998018
0.993883
0.991412
0.990858
0.998237
1.00235
1.00264
1.00261
1.00085
0.99906
0.99853
0.998132
0.998365
0.999649
0.999994
1
1
1
1
1
1
1
1
1
1
1
1
1
1
2.18624
1.0844
0.485613
0.188381
0.189642
0.182614
0.170071
0.173494
0.183736
0.200579
0.221289
0.260777
0.342801
0.409772
0.448953
0.480168
0.514917
0.572435
0.640532
0.694599
0.739549
0.786578
0.839916
0.855777
0.863123
0.890957
0.912945
0.916813
0.924911
0.966157
0.998818
1.01292
1.03976
1.07245
1.08736
1.09421
1.07992
1.01733
0.934277
0.907118
0.90515
0.917198
0.925448
0.92319
0.903024
0.88604
0.878708
0.874238
0.871523
0.871786
0.874594
0.875522
0.874764
0.875235
0.878166
0.875986
0.868507
0.862243
0.858093
0.852734
0.843119
0.838015
0.835165
0.833674
0.831102
0.828508
0.829461
0.830551
0.833045
0.836951
0.841269
0.844093
0.842333
0.834503
0.82748
0.828171
0.836026
0.847249
0.864509
0.881592
0.886358
0.886723
0.893266
0.89509
0.89337
0.896125
0.893349
0.880235
0.861522
0.859609
0.869747
0.884327
0.904755
0.931381
0.951455
0.96092
0.963822
0.962729
0.956733
0.949645
0.956666
0.983417
0.992217
0.981565
0.964872
0.952821
0.95829
0.980122
0.996702
0.995336
0.982175
0.977132
1.00112
1.02336
1.01359
1.00277
0.989585
0.982824
0.979697
0.996929
1.02856
1.0372
1.04123
1.03818
1.02438
1.01539
1.00829
1.00523
1.02049
1.03429
1.03985
1.03969
1.02578
1.01339
1.0023
0.992507
1.00201
1.03056
1.04125
1.04748
1.03471
1.00121
0.98489
0.973219
0.963277
0.972966
1.02113
1.04139
1.05112
1.05111
1.03631
1.02747
1.02007
1.01293
1.01238
1.03121
1.04046
1.04534
1.03875
1.01167
1.00109
0.997626
0.995388
0.998772
1.00461
1.00695
1.00817
1.00396
0.999868
0.99922
0.998808
0.998656
0.999684
1.00034
1.0007
1.00091
1.0004
1.00001
1
1
1
1
1
1
1
1
1
1
1
1
1
1
2.85689
1.79251
1.24128
0.828702
0.600543
0.465599
0.329709
0.292545
0.308956
0.300624
0.285413
0.297735
0.336837
0.35897
0.367454
0.36974
0.375933
0.407435
0.472949
0.550956
0.610752
0.670796
0.762897
0.804572
0.822768
0.854427
0.895731
0.912605
0.92703
0.965933
1.0132
1.05742
1.0856
1.09679
1.09854
1.07989
1.03579
0.976145
0.941521
0.933301
0.936799
0.949119
0.94955
0.920918
0.887276
0.87787
0.873309
0.873506
0.879053
0.878889
0.875889
0.872416
0.870307
0.869098
0.86847
0.870105
0.873771
0.875281
0.874006
0.864574
0.844182
0.830831
0.82481
0.819551
0.815801
0.820856
0.841059
0.852416
0.855973
0.854146
0.835139
0.814183
0.806527
0.804512
0.812589
0.837923
0.867535
0.880466
0.884438
0.879582
0.862504
0.8603
0.86713
0.878655
0.893503
0.896957
0.894044
0.887036
0.87361
0.873539
0.884314
0.905
0.92988
0.944931
0.9499
0.950338
0.949786
0.950196
0.953219
0.961316
0.973352
0.977442
0.969901
0.962119
0.96176
0.97205
0.995142
1.01242
1.01358
1.00734
0.994864
0.988754
0.999577
1.01042
1.00376
0.99618
0.991185
0.98812
0.990862
1.01198
1.03131
1.03571
1.03468
1.02777
1.01998
1.01691
1.01743
1.02676
1.0311
1.03178
1.03039
1.02195
1.01013
1.00619
1.00611
1.02078
1.04003
1.04209
1.04184
1.03446
1.008
0.982405
0.976483
0.975225
0.982104
1.01273
1.03138
1.03775
1.03975
1.03555
1.02533
1.02205
1.02145
1.02744
1.03748
1.04075
1.04175
1.03905
1.02129
1.00337
1
0.999766
1.00117
1.00325
1.00455
1.00522
1.00415
1.00054
0.999202
0.999066
0.999075
0.999456
1.00003
1.00028
1.00043
1.00042
1.00011
1
1
1
1
1
1
1
1
1
1
1
1
1
1
1
3.56915
2.55721
1.80662
1.34752
1.09708
0.890602
0.688561
0.561865
0.515106
0.459054
0.401339
0.399711
0.4059
0.399245
0.388329
0.389768
0.390979
0.391638
0.394207
0.40963
0.448056
0.509161
0.608075
0.695203
0.738737
0.760957
0.797323
0.841292
0.872657
0.918638
0.989282
1.0397
1.06093
1.07025
1.06586
1.03889
1.01302
1.00089
0.986036
0.973872
0.968484
0.957641
0.925395
0.88871
0.878609
0.878689
0.887719
0.898368
0.89654
0.884902
0.871422
0.864716
0.861747
0.86104
0.866428
0.87911
0.885502
0.88421
0.871198
0.846286
0.823222
0.815048
0.812091
0.810736
0.816511
0.841141
0.860162
0.861557
0.854577
0.836453
0.809978
0.797274
0.797148
0.803574
0.826038
0.861697
0.879091
0.881028
0.875971
0.858478
0.847633
0.853742
0.866727
0.889068
0.912432
0.913196
0.90612
0.894308
0.882893
0.884975
0.89116
0.90406
0.918604
0.928573
0.93486
0.939117
0.941102
0.942809
0.950827
0.971275
0.979038
0.969433
0.961359
0.958633
0.962848
0.977648
0.994659
1.00208
1.00282
1.00104
1.00053
1.00567
1.00326
0.990145
0.987891
0.990209
0.994334
1.00277
1.01393
1.02083
1.02644
1.02734
1.02493
1.02225
1.02223
1.0237
1.02709
1.03046
1.03072
1.0283
1.02191
1.01216
1.00815
1.00891
1.01909
1.03975
1.04661
1.04627
1.039
1.01525
0.988453
0.981079
0.98149
0.987772
1.00785
1.02549
1.03019
1.02962
1.02621
1.02176
1.02091
1.02352
1.02911
1.03924
1.04634
1.04711
1.04347
1.02709
1.008
1.00245
1.00216
1.00293
1.00447
1.00521
1.00499
1.00287
0.99996
0.999117
0.999149
0.999346
0.999646
1.00011
1.00034
1.00036
1.0003
1.00011
1.00001
1
1
1
1
1
1
1
1
1
1
1
1
1
1
1
4.06729
3.14288
2.42389
1.88928
1.54027
1.27179
1.02254
0.890643
0.8047
0.705242
0.577285
0.553958
0.547312
0.518109
0.492956
0.478486
0.453533
0.431993
0.431434
0.438729
0.437587
0.4409
0.457965
0.498569
0.545139
0.572364
0.612518
0.701264
0.78112
0.846585
0.939818
0.998609
1.01821
1.03338
1.03367
1.0321
1.03655
1.04627
1.03257
1.00776
0.978536
0.941092
0.902469
0.890229
0.893632
0.907695
0.917784
0.911511
0.894066
0.873037
0.864414
0.861448
0.860605
0.866765
0.883458
0.893203
0.891534
0.877224
0.852413
0.822661
0.81156
0.809895
0.810375
0.818205
0.841118
0.858755
0.857829
0.8503
0.837749
0.81606
0.802646
0.802207
0.807661
0.824185
0.852073
0.86841
0.869835
0.866944
0.855243
0.843585
0.847621
0.857733
0.875086
0.902189
0.91299
0.908216
0.899891
0.890057
0.887146
0.891384
0.90045
0.908831
0.912847
0.917199
0.92353
0.932238
0.941841
0.950361
0.959624
0.973456
0.974717
0.963742
0.957539
0.958473
0.968312
0.981693
0.984576
0.978829
0.973708
0.9758
0.990897
1.00682
0.995245
0.98664
0.989579
0.995459
1.00505
1.01388
1.01972
1.02167
1.01955
1.01872
1.01937
1.02257
1.02702
1.02961
1.03026
1.0292
1.026
1.01941
1.01216
1.01081
1.01288
1.02164
1.03692
1.0437
1.04379
1.03898
1.02109
0.997285
0.988517
0.988701
0.993415
1.0061
1.01813
1.02095
1.01936
1.01488
1.01296
1.01432
1.02054
1.02998
1.04218
1.04916
1.04951
1.04681
1.03496
1.01576
1.00587
1.00461
1.00528
1.00591
1.0058
1.00437
1.00156
0.999522
0.999221
0.999276
0.999433
0.999694
1.00011
1.00033
1.00033
1.00024
1.00008
1.00001
1
1
1
1
1
1
1
1
1
1
1
1
1
1
1
1
4.43189
3.61607
2.92378
2.37334
1.99184
1.68245
1.36502
1.15606
1.05927
0.957482
0.825503
0.765817
0.722787
0.659168
0.60522
0.591044
0.56298
0.50794
0.487691
0.492464
0.488041
0.467278
0.462566
0.471144
0.471522
0.469854
0.477413
0.518822
0.598257
0.678979
0.791018
0.893831
0.941569
0.971712
0.99615
1.00525
1.02716
1.04813
1.04144
1.01814
0.979822
0.936077
0.915669
0.913983
0.920088
0.925895
0.91809
0.901113
0.878761
0.86773
0.864697
0.863245
0.868464
0.885774
0.894906
0.892994
0.881994
0.861673
0.830104
0.813875
0.811387
0.811948
0.820077
0.839355
0.852318
0.850839
0.844946
0.83586
0.818979
0.807971
0.807293
0.81117
0.824381
0.84496
0.855712
0.856862
0.855948
0.848118
0.840398
0.843874
0.854074
0.872895
0.897326
0.908772
0.906614
0.896206
0.884525
0.880357
0.882467
0.89114
0.907905
0.915483
0.916542
0.919486
0.926773
0.935256
0.942966
0.952036
0.961934
0.966778
0.962432
0.955591
0.956382
0.968981
0.987373
0.994393
0.984111
0.967783
0.958706
0.966357
0.993899
1.00536
0.98594
0.985268
0.993875
1.00621
1.01513
1.01693
1.01538
1.01264
1.01165
1.01358
1.02032
1.02797
1.03093
1.0311
1.02991
1.02588
1.01867
1.01305
1.01191
1.01315
1.0203
1.03509
1.04367
1.04393
1.04004
1.02689
1.00762
0.996839
0.995847
0.998581
1.00674
1.01452
1.01576
1.01285
1.00731
1.00582
1.00698
1.01392
1.02753
1.04358
1.05098
1.05133
1.04963
1.04108
1.02508
1.01294
1.00908
1.00857
1.00814
1.00674
1.00416
1.00092
0.999452
0.999321
0.999336
0.999436
0.999697
1.00011
1.00031
1.00032
1.00024
1.00008
1.00001
1
1
1
1
1
1
1
1
1
1
1
1
1
1
1
1
1
4.70897
3.97721
3.32836
2.79406
2.38328
2.03697
1.71844
1.49214
1.32373
1.17833
1.04909
0.978382
0.923427
0.8431
0.74187
0.708238
0.6844
0.636631
0.589892
0.587311
0.584485
0.559877
0.52233
0.508446
0.495453
0.474879
0.473017
0.476969
0.490343
0.517906
0.570226
0.6599
0.776748
0.853902
0.921196
0.964127
0.998166
1.02179
1.0197
1.0072
0.98823
0.965857
0.952407
0.945397
0.937175
0.922374
0.901745
0.881631
0.872783
0.871229
0.871653
0.87882
0.892408
0.895493
0.891033
0.882363
0.86549
0.84017
0.825644
0.822658
0.823135
0.831344
0.844119
0.847419
0.843863
0.838434
0.829515
0.816441
0.808903
0.80868
0.814101
0.82857
0.844346
0.849016
0.847771
0.84294
0.837199
0.837205
0.841141
0.85106
0.872304
0.894968
0.902972
0.90229
0.897044
0.884779
0.873161
0.871702
0.876581
0.891765
0.910738
0.921222
0.927943
0.93493
0.942653
0.947745
0.950379
0.954165
0.96008
0.963855
0.963084
0.964264
0.973412
0.984059
0.983392
0.972365
0.961459
0.958613
0.966927
0.990654
1.01768
1.00301
0.982596
0.984917
0.996549
1.01118
1.01603
1.01476
1.01329
1.01283
1.0139
1.01853
1.02689
1.03045
1.03084
1.02955
1.0254
1.01831
1.01377
1.01308
1.01454
1.02053
1.03226
1.03948
1.04002
1.03734
1.02816
1.01557
1.00742
1.00675
1.00869
1.01013
1.00994
1.00931
1.00459
0.998716
0.997752
0.999866
1.00886
1.02599
1.04458
1.05064
1.0507
1.04971
1.04432
1.03262
1.02132
1.01597
1.01409
1.01183
1.00819
1.00386
1.00042
0.999453
0.999404
0.999421
0.999509
0.999765
1.00015
1.0003
1.0003
1.00024
1.0001
1.00001
1
1
1
1
1
1
1
1
1
1
1
1
1
1
1
1
1
1
4.93883
4.27703
3.66519
3.15452
2.73731
2.36048
2.04205
1.81783
1.61919
1.43604
1.27055
1.17634
1.10267
1.02608
0.917748
0.837978
0.802414
0.760187
0.699305
0.684818
0.682053
0.661235
0.615034
0.576546
0.554716
0.531049
0.500276
0.489576
0.492962
0.503556
0.520112
0.536856
0.574651
0.648236
0.748615
0.857559
0.924863
0.961361
0.978001
0.978439
0.975613
0.977875
0.972844
0.958794
0.941376
0.915968
0.889039
0.876746
0.87395
0.874884
0.885204
0.896834
0.895735
0.888354
0.879867
0.865754
0.845805
0.833401
0.831547
0.833994
0.842205
0.848844
0.848159
0.844045
0.836494
0.824161
0.811819
0.805095
0.804583
0.810154
0.825759
0.842109
0.845964
0.844004
0.839156
0.830217
0.829125
0.834396
0.846016
0.868124
0.889016
0.895435
0.895142
0.891257
0.883281
0.875748
0.87513
0.880451
0.896186
0.913948
0.923345
0.928802
0.932301
0.934394
0.93537
0.936661
0.940603
0.946985
0.953637
0.96006
0.968518
0.979594
0.983833
0.973414
0.956336
0.944632
0.948458
0.971055
1.00552
1.02996
1.01654
0.986259
0.976348
0.981188
0.995934
1.01153
1.01297
1.01151
1.01115
1.01222
1.01667
1.02495
1.02969
1.03008
1.02823
1.02391
1.01762
1.01471
1.0145
1.01572
1.02023
1.02989
1.03713
1.03753
1.03466
1.02841
1.02058
1.01541
1.0156
1.01693
1.01675
1.01338
1.00663
0.997047
0.99135
0.990785
0.992834
1.00153
1.02092
1.0429
1.05037
1.05069
1.04992
1.04595
1.03776
1.02915
1.02382
1.0212
1.01757
1.01135
1.00427
1.00018
0.999467
0.999437
0.999458
0.999571
0.99986
1.00021
1.00032
1.00031
1.00025
1.00011
1.00001
1
1
1
1
1
1
1
1
1
1
1
1
1
1
1
1
1
1
1
5.14444
4.51488
3.94978
3.476
3.05972
2.6716
2.36041
2.09441
1.8839
1.70158
1.54336
1.39848
1.26472
1.16514
1.07315
0.991972
0.945699
0.902195
0.832385
0.781276
0.766778
0.742602
0.696846
0.649064
0.631329
0.616814
0.589489
0.564734
0.558368
0.54992
0.532564
0.529976
0.532481
0.54167
0.568459
0.636328
0.742398
0.841675
0.895301
0.917233
0.943413
0.961566
0.960399
0.949478
0.935289
0.918381
0.904096
0.899139
0.897003
0.897643
0.901628
0.900465
0.891141
0.877172
0.863401
0.851208
0.843034
0.842386
0.84567
0.847064
0.84378
0.841249
0.839344
0.835585
0.828633
0.818911
0.811454
0.80939
0.812186
0.821928
0.831729
0.835649
0.834662
0.831913
0.827156
0.825654
0.829849
0.839649
0.858049
0.876869
0.883466
0.885497
0.885672
0.882466
0.87762
0.875966
0.882067
0.899598
0.917867
0.922518
0.923934
0.926165
0.925591
0.922742
0.921013
0.923
0.930019
0.941111
0.953777
0.966041
0.975134
0.975983
0.967423
0.955455
0.948778
0.956578
0.98285
1.01305
1.02212
1.00794
0.986056
0.973564
0.974026
0.983366
0.998143
1.00962
1.01227
1.01276
1.01337
1.01669
1.02377
1.02785
1.02804
1.02549
1.02128
1.01697
1.01567
1.01567
1.01669
1.02038
1.02772
1.0335
1.034
1.03162
1.02766
1.02439
1.02294
1.0238
1.02479
1.02336
1.01719
1.00605
0.992851
0.987408
0.98714
0.988568
0.995181
1.01329
1.03788
1.04829
1.04905
1.04843
1.0459
1.04094
1.03531
1.03126
1.02893
1.02499
1.01675
1.00613
1.00031
0.999555
0.999538
0.999561
0.99969
0.999991
1.00028
1.00035
1.00033
1.00026
1.00011
1.00001
1
1
1
1
1
1
1
1
1
1
1
1
1
1
1
1
1
1
1
1
5.29446
4.72181
4.21091
3.74586
3.32352
2.96509
2.66654
2.38623
2.11949
1.90547
1.75923
1.60876
1.46833
1.34294
1.2226
1.11088
1.06627
1.03733
0.986888
0.92545
0.878297
0.826564
0.756541
0.701672
0.69254
0.688828
0.672544
0.642894
0.632559
0.6239
0.601598
0.564458
0.539461
0.539554
0.543343
0.556766
0.590027
0.653224
0.733633
0.797456
0.844161
0.889053
0.922166
0.922996
0.915848
0.915725
0.923232
0.931729
0.930969
0.922664
0.91103
0.899736
0.883636
0.868207
0.858968
0.854799
0.855133
0.856213
0.851779
0.840123
0.830845
0.826334
0.823347
0.822044
0.821681
0.821832
0.823427
0.826499
0.829483
0.828448
0.824117
0.819212
0.817514
0.818439
0.819034
0.821964
0.829623
0.84406
0.862088
0.871486
0.875456
0.878228
0.88053
0.88286
0.885253
0.889965
0.899824
0.909352
0.911416
0.911865
0.913892
0.916786
0.917981
0.916893
0.918525
0.926845
0.940896
0.955959
0.967337
0.972192
0.970425
0.964948
0.96
0.959513
0.965972
0.979723
0.994338
0.999085
0.992475
0.983382
0.976895
0.975976
0.982427
0.991255
0.9993
1.00543
1.01002
1.01384
1.01796
1.02266
1.02575
1.02629
1.02332
1.01834
1.01563
1.0157
1.016
1.0173
1.02081
1.02637
1.03045
1.03081
1.02875
1.02697
1.02682
1.02782
1.03072
1.03174
1.03044
1.02381
1.00889
0.99201
0.98658
0.986434
0.987169
0.991271
1.00438
1.02727
1.04382
1.04681
1.04615
1.04451
1.04217
1.03958
1.03766
1.03646
1.03329
1.02458
1.01076
1.00122
0.999635
0.999598
0.999647
0.99981
1.00012
1.00036
1.0004
1.00037
1.00027
1.0001
1.00001
1
1
1
1
1
1
1
1
1
1
1
1
1
1
1
1
1
1
1
1
1
5.41368
4.88796
4.41086
3.97449
3.56495
3.21097
2.90069
2.62788
2.36733
2.14442
1.94776
1.77231
1.62677
1.51803
1.41816
1.30202
1.20244
1.14956
1.09372
1.0359
0.990908
0.935582
0.848233
0.780502
0.77073
0.771277
0.759957
0.734795
0.71554
0.697476
0.666371
0.616516
0.585065
0.58085
0.57601
0.574684
0.58504
0.597481
0.607574
0.628041
0.662387
0.713338
0.78423
0.838837
0.864453
0.886518
0.915435
0.938131
0.939493
0.930747
0.912895
0.894569
0.884516
0.878631
0.873701
0.871187
0.868852
0.861411
0.842544
0.820554
0.812362
0.809933
0.809569
0.814444
0.826458
0.837838
0.842252
0.840723
0.832732
0.821305
0.812099
0.807516
0.805531
0.808042
0.813931
0.821799
0.833141
0.848384
0.861158
0.868
0.873007
0.879198
0.885678
0.890575
0.893581
0.895393
0.896172
0.89601
0.896678
0.900036
0.90575
0.912345
0.918776
0.92375
0.930896
0.942973
0.955832
0.963709
0.965499
0.964846
0.966396
0.970662
0.973902
0.975168
0.975466
0.975314
0.976516
0.979597
0.98226
0.983897
0.986093
0.988884
0.990962
0.993538
0.996836
1.00211
1.01046
1.01907
1.02297
1.02346
1.02313
1.02097
1.01718
1.01541
1.01553
1.01611
1.01804
1.02208
1.02584
1.02772
1.0281
1.02733
1.02707
1.02777
1.03059
1.03597
1.03751
1.03623
1.03073
1.0161
0.995604
0.987246
0.986698
0.987141
0.990238
0.999965
1.01703
1.03239
1.03986
1.04263
1.04296
1.04286
1.04243
1.04242
1.04257
1.04103
1.03388
1.01874
1.00381
0.99992
0.999769
0.999815
0.999975
1.00026
1.00044
1.00046
1.00041
1.00028
1.00009
1.00001
1
1
1
1
1
1
1
1
1
1
1
1
1
1
1
1
1
1
1
1
1
1
5.49814
5.02426
4.5809
4.15179
3.7585
3.43737
3.13594
2.83167
2.55625
2.3453
2.14605
1.97645
1.81506
1.68097
1.56691
1.46511
1.37619
1.30525
1.21784
1.11176
1.05799
1.01357
0.944853
0.874762
0.86043
0.857765
0.842838
0.815846
0.795438
0.772815
0.727083
0.659107
0.635449
0.633403
0.629582
0.618718
0.614822
0.61625
0.609432
0.580738
0.572652
0.583969
0.623894
0.695728
0.767624
0.820115
0.87878
0.921104
0.924421
0.915861
0.898847
0.894586
0.894664
0.895417
0.889955
0.880283
0.867992
0.852008
0.827868
0.813651
0.809046
0.806681
0.809396
0.825773
0.843571
0.848545
0.84471
0.83325
0.81857
0.805865
0.801585
0.800488
0.802931
0.809947
0.819841
0.83094
0.842005
0.851494
0.858706
0.864972
0.87281
0.882599
0.889417
0.890184
0.887637
0.884852
0.883478
0.885377
0.893494
0.906638
0.918138
0.92502
0.931453
0.937712
0.941197
0.943147
0.944737
0.94661
0.949903
0.959445
0.974108
0.978572
0.97214
0.965497
0.961647
0.960874
0.968137
0.984609
0.997437
0.997392
0.993409
0.990067
0.98964
0.990787
0.994627
1.00363
1.01613
1.02271
1.02322
1.0219
1.01861
1.01617
1.01561
1.01553
1.01623
1.01847
1.02196
1.02422
1.02539
1.02601
1.02632
1.02719
1.02877
1.03277
1.03896
1.04119
1.04035
1.03637
1.0247
1.00356
0.990449
0.988837
0.989146
0.991245
0.997523
1.00865
1.02114
1.02972
1.03325
1.03716
1.04259
1.04585
1.04736
1.04801
1.04767
1.04317
1.0294
1.00963
1.00068
0.999937
0.999985
1.00014
1.00039
1.00052
1.00052
1.00046