/*--------------------------------*- C++ -*----------------------------------*\
  =========                 |
  \\      /  F ield         | OpenFOAM: The Open Source CFD Toolbox
   \\    /   O peration     | Website:  https://openfoam.org
    \\  /    A nd           | Version:  10
     \\/     M anipulation  |
\*---------------------------------------------------------------------------*/
FoamFile
{
    format      ascii;
    class       volScalarField;
    location    "0.5";
    object      T;
}
// * * * * * * * * * * * * * * * * * * * * * * * * * * * * * * * * * * * * * //

dimensions      [0 0 0 1 0 0 0];

internalField   nonuniform List<scalar> 
16128
(
1
1
1
1
1
1
1
1
1
1
1
1
1
1
1
1
1
1
1
1
1
1
1
1
1
1
1
1
1
1
1.92344
2.80613
2.8572
2.87585
2.88607
2.88964
2.89624
2.9139
2.93688
2.96511
2.99667
3.03402
3.09824
3.20271
3.33697
3.4614
3.53581
3.56178
1
1
1
1
1
1
1
1
1
1
1
1
1
1
1
1
1
1
1
1
1
1
1
1
1
1
1
1
1
1
1.90946
2.79989
2.85537
2.87557
2.88598
2.88923
2.89562
2.91344
2.93662
2.96531
2.99717
3.03484
3.09987
3.20492
3.3387
3.46154
3.5349
3.56034
1
1
1
1
1
1
1
1
1
1
1
1
1
1
1
1
1
1
1
1
1
1
1
1
1
1
1
1
1
1
1.87314
2.7865
2.85155
2.8739
2.88527
2.88798
2.89388
2.91195
2.93579
2.96544
2.99787
3.03602
3.10248
3.2088
3.34203
3.46226
3.53376
3.55826
1
1
1
1
1
1
1
1
1
1
1
1
1
1
1
1
1
1
1
1
1
1
1
1
1
1
1
1
1
1
1.8209
2.76426
2.84559
2.87058
2.88333
2.8855
2.89092
2.90934
2.93415
2.96488
2.99772
3.03596
3.10349
3.21077
3.3438
3.46211
3.53201
3.55531
1
1
1
1
1
1
1
1
1
1
1
1
1
1
1
1
1
1
1
1
1
1
1
1
1
1
1
1
1
1
1.74818
2.72999
2.83808
2.86535
2.88041
2.88196
2.88697
2.90562
2.93165
2.96325
2.99605
3.03367
3.10114
3.20879
3.34224
3.46002
3.52919
3.55089
1
1
1
1
1
1
1
1
1
1
1
1
1
1
1
1
1
1
1
1
1
1
1
1
1
1
1
1
1
1
1.64206
2.67692
2.83039
2.85967
2.87649
2.87726
2.88206
2.90099
2.92857
2.96056
2.99239
3.02845
3.09447
3.2018
3.33619
3.45463
3.52429
3.5447
1
1
1
1
1
1
1
1
1
1
1
1
1
1
1
1
1
1
1
1
1
1
1
1
1
1
1
1
1
1
1.48452
2.59886
2.82508
2.85563
2.87147
2.8713
2.87605
2.89567
2.92494
2.9567
2.9868
3.02068
3.08379
3.18926
3.3242
3.44478
3.51636
3.53767
1
1
1
1
1
1
1
1
1
1
1
1
1
1
1
1
1
1
1
1
1
1
1
1
1
1
1
1
1
1
1.27689
2.49457
2.82198
2.8543
2.8651
2.86388
2.8687
2.8897
2.92053
2.95164
2.97975
3.01117
3.07037
3.17231
3.30662
3.43047
3.50529
3.52925
1
1
1
1
1
1
1
1
1
1
1
1
1
1
1
1
1
1
1
1
1
1
1
1
1
1
1
1
1
1
1.06144
2.37785
2.82675
2.85375
2.85529
2.85391
2.86023
2.88335
2.915
2.94487
2.97092
2.99982
3.05439
3.15116
3.28381
3.41224
3.49254
3.51779
1
1
1
1
1
1
1
1
1
1
1
1
1
1
1
1
1
1
1
1
1
1
1
1
1
1
1
1
1
1
1.00067
2.26357
2.82902
2.84565
2.84354
2.84319
2.85172
2.87618
2.90769
2.93595
2.96003
2.98658
3.03638
3.12703
3.25682
3.38938
3.47638
3.50338
1
1
1
1
1
1
1
1
1
1
1
1
1
1
1
1
1
1
1
1
1
1
1
1
1
1
1
1
1
1
1
2.12012
2.81469
2.83184
2.83099
2.83318
2.84387
2.86834
2.89843
2.92449
2.94658
2.9709
3.01596
3.09995
3.22587
3.36185
3.45587
3.48608
1
1
1
1
1
1
1
1
1
1
1
1
1
1
1
1
1
1
1
1
1
1
1
1
1
1
1
1
1
1
1
1.92102
2.76037
2.81072
2.81751
2.82517
2.83738
2.85994
2.88688
2.90997
2.93005
2.95248
2.99346
3.07138
3.19306
3.33107
3.4308
3.46223
1
1
1
1
1
1
1
1
1
1
1
1
1
1
1
1
1
1
1
1
1
1
1
1
1
1
1
1
1
1
1
1.64745
2.65717
2.78134
2.80398
2.81834
2.8317
2.85023
2.87203
2.89224
2.91094
2.9319
2.96885
3.03943
3.15457
3.29293
3.39837
3.43208
1
1
1
1
1
1
1
1
1
1
1
1
1
1
1
1
1
1
1
1
1
1
1
1
1
1
1
1
1
1
1
1.31472
2.51367
2.76551
2.79317
2.81081
2.82307
2.83644
2.85322
2.87137
2.88933
2.90909
2.9425
3.00582
3.11377
3.25118
3.35804
3.38673
1
1
1
1
1
1
1
1
1
1
1
1
1
1
1
1
1
1
1
1
1
1
1
1
1
1
1
1
1
1
1
1.03223
2.36845
2.75012
2.79217
2.80848
2.81431
2.82038
2.83041
2.84641
2.86497
2.88504
2.91524
2.96898
3.06324
3.18994
3.29435
3.32886
1
1
1
1
1
1
1
1
1
1
1
1
1
1
1
1
1
1
1
1
1
1
1
1
1
1
1
1
1
1
1
1.0002
2.1663
2.73352
2.78156
2.79752
2.79975
2.80034
2.80613
2.82028
2.83962
2.85949
2.88554
2.92749
3.00469
3.11981
3.23046
3.29097
1
1
1
1
1
1
1
1
1
1
1
1
1
1
1
1
1
1
1
1
1
1
1
1
1
1
1
1
1
1
1
1
1.84357
2.67733
2.76026
2.77446
2.77992
2.77872
2.78421
2.79671
2.8145
2.83324
2.85366
2.88437
2.93892
3.01977
3.06195
2.97725
1
1
1
1
1
1
1
1
1
1
1
1
1
1
1
1
1
1
1
1
1
1
1
1
1
1
1
1
1
1
1
1
1.36822
2.52976
2.7543
2.75142
2.75478
2.752
2.75738
2.77154
2.79069
2.80757
2.81976
2.83624
2.86348
2.89797
2.90591
2.77184
1
1
1
1
1
1
1
1
1
1
1
1
1
1
1
1
1
1
1
1
1
1
1
1
1
1
1
1
1
1
1
1
1.02498
2.32738
2.72067
2.73699
2.74333
2.73936
2.73965
2.74969
2.76532
2.77872
2.78307
2.78653
2.79044
2.79923
2.76568
2.6346
1
1
1
1
1
1
1
1
1
1
1
1
1
1
1
1
1
1
1
1
1
1
1
1
1
1
1
1
1
1
1
1
1.00015
1.99027
2.65621
2.72174
2.73186
2.72805
2.72264
2.72752
2.73585
2.74439
2.74312
2.73757
2.72641
2.70987
2.6554
2.54429
1
1
1
1
1
1
1
1
1
1
1
1
1
1
1
1
1
1
1
1
1
1
1
1
1
1
1
1
1
1
1
1
1
1.47357
2.51738
2.69652
2.71164
2.71035
2.70335
2.70311
2.70534
2.70909
2.70522
2.69315
2.67434
2.63753
2.57624
2.48847
1
1
1
1
1
1
1
1
1
1
1
1
1
1
1
1
1
1
1
1
1
1
1
1
1
1
1
1
1
1
1
1
1
1.04363
2.31113
2.65709
2.68864
2.68994
2.68207
2.67564
2.67461
2.67567
2.6707
2.65534
2.62847
2.5825
2.52087
2.44347
1
1
1
1
1
1
1
1
1
1
1
1
1
1
1
1
1
1
1
1
1
1
1
1
1
1
1
1
1
1
1
1
1
1.00036
1.91988
2.58119
2.66292
2.66925
2.66123
2.65125
2.64479
2.64076
2.6331
2.61892
2.58999
2.54449
2.4878
2.41825
1
1
1
1
1
1
1
1
1
1
1
1
1
1
1
1
1
1
1
1
1
1
1
1
1
1
1
1
1
1
1
1
1
1
1.30005
2.40945
2.63318
2.64155
2.63965
2.63206
2.61998
2.60885
2.59832
2.58273
2.55683
2.51656
2.46459
2.40051
1
1
1
1
1
1
1
1
1
1
1
1
1
1
1
1
1
1
1
1
1
1
1
1
1
1
1
1
1
1
1
1
1
1
1.01528
2.13522
2.56006
2.61026
2.62066
2.61404
2.59984
2.58329
2.56698
2.54796
2.52393
2.49047
2.44571
2.39013
1
1
1
1
1
1
1
1
1
1
1
1
1
1
1
1
1
1
1
1
1
1
1
1
1
1
1
1
1
1
1
1
1
1
1.00004
1.56251
2.43918
2.58541
2.59478
2.59074
2.57909
2.56126
2.54129
2.51894
2.49447
2.46473
2.42591
2.37851
1
1
1
1
1
1
1
1
1
1
1
1
1
1
1
1
1
1
1
1
1
1
1
1
1
1
1
1
1
1
1
1
1
1
1
1.06268
2.20963
2.54195
2.56142
2.56342
2.55637
2.54014
2.51849
2.49379
2.46787
2.4394
2.40581
2.36606
1
1
1
1
1
1
1
1
1
1
1
1
1
1
1
1
1
1
1
1
1
1
1
1
1
1
1
1
1
1
1
1
1
1
1
1.00064
1.67148
2.43379
2.53752
2.53227
2.52689
2.516
2.49792
2.47424
2.4471
2.41847
2.38758
2.35236
1
1
1
1
1
1
1
1
1
1
1
1
1
1
1
1
1
1
1
1
1
1
1
1
1
1
1
1
1
1
1
1
1
1
1
1
1.09698
2.19775
2.49203
2.4951
2.49468
2.48888
2.47545
2.45543
2.43041
2.40229
2.37142
2.3381
1
1
1
1
1
1
1
1
1
1
1
1
1
1
1
1
1
1
1
1
1
1
1
1
1
1
1
1
1
1
1
1
1
1
1
1
1.00148
1.62007
2.36742
2.47595
2.46694
2.46174
2.45158
2.4362
2.41447
2.38734
2.35697
2.32522
1
1
1
1
1
1
1
1
1
1
1
1
1
1
1
1
1
1
1
1
1
1
1
1
1
1
1
1
1
1
1
1
1
1
1
1
1
1.07977
2.10285
2.42476
2.43171
2.42883
2.42334
2.41292
2.39547
2.37159
2.34338
2.31312
1
1
1
1
1
1
1
1
1
1
1
1
1
1
1
1
1
1
1
1
1
1
1
1
1
1
1
1
1
1
1
1
1
1
1
1
1
1.001
1.45601
2.27199
2.41853
2.40511
2.39741
2.38592
2.37127
2.3523
2.32845
2.30102
1
1
1
1
1
1
1
1
1
1
1
1
1
1
1
1
1
1
1
1
1
1
1
1
1
1
1
1
1
1
1
1
1
1
1
1
1
1
1.03946
1.90699
2.33444
2.38495
2.37015
2.36036
2.34878
2.33371
2.3136
2.28848
1
1
1
1
1
1
1
1
1
1
1
1
1
1
1
1
1
1
1
1
1
1
1
1
1
1
1
1
1
1
1
1
1
1
1
1
1
1
1.00033
1.25793
2.12738
2.35986
2.34469
2.3294
2.31812
2.30628
2.29052
2.26944
1
1
1
1
1
1
1
1
1
1
1
1
1
1
1
1
1
1
1
1
1
1
1
1
1
1
1
1
1
1
1
1
1
1
1
1
1
1
1
1.01016
1.58439
2.22603
2.32897
2.30816
2.29881
2.28465
2.26604
2.24551
1
1
1
1
1
1
1
1
1
1
1
1
1
1
1
1
1
1
1
1
1
1
1
1
1
1
1
1
1
1
1
1
1
1
1
1
1
1
1
1.00004
1.07615
1.8635
2.24295
2.2927
2.27337
2.25961
2.24393
2.22748
1
1
1
1
1
1
1
1
1
1
1
1
1
1
1
1
1
1
1
1
1
1
1
1
1
1
1
1
1
1
1
1
1
1
1
1
1
1
1
1
1.00106
1.2506
2.011
2.25756
2.24747
2.23162
2.21965
2.20558
1
1
1
1
1
1
1
1
1
1
1
1
1
1
1
1
1
1
1
1
1
1
1
1
1
1
1
1
1
1
1
1
1
1
1
1
1
1
1
1
1
1.01004
1.46369
2.09125
2.22992
2.21585
2.19963
2.18423
1
1
1
1
1
1
1
1
1
1
1
1
1
1
1
1
1
1
1
1
1
1
1
1
1
1
1
1
1
1
1
1
1
1
1
1
1
1
1
1
1
1.00005
1.04446
1.64346
2.11906
2.20258
2.1851
2.16846
1
1
1
1
1
1
1
1
1
1
1
1
1
1
1
1
1
1
1
1
1
1
1
1
1
1
1
1
1
1
1
1
1
1
1
1
1
1
1
1
1
1
1.00047
1.11476
1.76181
2.11792
2.17276
2.15333
1
1
1
1
1
1
1
1
1
1
1
1
1
1
1
1
1
1
1
1
1
1
1
1
1
1
1
1
1
1
1
1
1
1
1
1
1
1
1
1
1
1
1
1.00237
1.20543
1.83133
2.09944
2.14174
1
1
1
1
1
1
1
1
1
1
1
1
1
1
1
1
1
1
1
1
1
1
1
1
1
1
1
1
1
1
1
1
1
1
1
1
1
1
1
1
1
1
1
1.00001
1.00741
1.29253
1.86818
2.07374
1
1
1
1
1
1
1
1
1
1
1
1
1
1
1
1
1
1
1
1
1
1
1
1
1
1
1
1
1
1
1
1
1
1
1
1
1
1
1
1
1
1
1
1
1.00004
1.01609
1.36304
1.88035
1
1
1
1
1
1
1
1
1
1
1
1
1
1
1
1
1
1
1
1
1
1
1
1
1
1
1
1
1
1
1
1
1
1
1
1
1
1
1
1
1
1
1
1
1
1.00011
1.02748
1.41016
1
1
1
1
1
1
1
1
1
1
1
1
1
1
1
1
1
1
1
1
1
1
1
1
1
1
1
1
1
1
1
1
1
1
1
1
1
1
1
1
1
1
1
1
1
1
1.00026
1.03866
1
1
1
1
1
1
1
1
1
1
1
1
1
1
1
1
1
1
1
1
1
1
1
1
1
1
1
1
1
1
1
1
1
1
1
1
1
1
1
1
1
1
1
1
1
1
1
1.00043
1
1
1
1
1
1
1
1
1
1
1
1
1
1
1
1
1
1
1
1
1
1
1
1
1
1
1
1
1
1
1
1
1
1
1
1
1
1
1
1
1
1
1
1
1
1
1
1
1
1
1
1
1
1
1
1
1
1
1
1
1
1
1
1
1
1
1
1
1
1
1
1
1
1
1
1
1
1
1
1
1
1
1
1
1
1
1
1
1
1
1
1
1
1
1
1
1
1
1
1
1
1
1
1
1
1
1
1
1
1
1
1
1
1
1
1
1
1
1
1
1
1
1
1
1
1
1
1
1
1
1
1
1
1
1
1
1
1
1
1
1
1
1
1
1
1
1
1
1
1
1
1
1
1
1
1
1
1
1
1
1
1
1
1
1
1
1
1
1
1
1
1
1
1
1
1
1
1
1
1
1
1
1
1
1
1
1
1
1
1
1
1
1
1
1
1
1
1
1
1
1
1
1
1
1
1
1
1
1
1
1
1
1
1
1
1
1
1
1
1
1
1
1
1
1
1
1
1
1
1
1
1
1
1
1
1
1
1
1
1
1
1
1
1
1
1
1
1
1
1
1
1
1
1
1
1
1
1
1
1
1
1
1
1
1
1
1
1
1
1
1
1
1
1
1
1
1
1
1
1
1
1
1
1
1
1
1
1
1
1
1
1
1
1
1
1
1
1
1
1
1
1
1
1
1
1
1
1
1
1
1
1
1
1
1
1
1
1
1
1
1
1
1
1
1
1
1
1
1
1
1
1
1
1
1
1
1
1
1
1
1
1
1
1
1
1
1
1
1
1
1
1
1
1
1
1
1
1
1
1
1
1
1
1
1
1
1
1
1
1
1
1
1
1
1
1
1
1
1
1
1
1
1
1
1
1
1
1
1
1
1
1
1
1
1
1
1
1
1
1
1
1
1
1
1
1
1
1
1
1
1
1
1
1
1
1
1
1
1
1
1
1
1
1
1
1
1
1
1
1
1
1
1
1
1
1
1
1
1
1
1
1
1
1
1
1
1
1
1
1
1
1
1
1
1
1
1
1
1
1
1
1
1
1
1
1
1
1
1
1
1
1
1
1
1
1
1
1
1
1
1
1
1
1
1
1
1
1
1
1
1
1
1
1
1
1
1
1
1
1
1
1
1
1
1
1
1
1
1
1
1
1
1
1
1
1
1
1
1
1
1
1
1
1
1
1
1
1
1
1
1
1
1
1
1
1
1
1
1
1
1
1
1
1
1
1
1
1
1
1
1
1
1
1
1
1
1
1
1
1
1
1
1
1
1
1
1
1
1
1
1
1
1
1
1
1
1
1
1
1
1
1
1
1
1
1
1
1
1
1
1
1
1
1
1
1
1
1
1
1
1
1
1
1
1
1
1
1
1
1
1
1
1
1
1
1
1
1
1
1
1
1
1
1
1
1
1
1
1
1
1
1
1
1
1
1
1
1
1
1
1
1
1
1
1
1
1
1
1
1
1
1
1
1
1
1
1
1
1
1
1
1
1
1
1
1
1
1
1
1
1
1
1
1
1
1
1
1
1
1
1
1
1
1
1
1
1
1
1
1
1
1
1
1
1
1
1
1
1
1
1
1
1
1
1
1
1
1
1
1
1
1
1
1
1
1
1
1
1
1
1
1
1
1
1
1
1
1
1
1
1
1
1
1
1
1
1
1
1
1
1
1
1
1
1
1
1
1
1
1
1
1
1
1
1
1
1
1
1
1
1
1
1
1
1
1
1
1
1
1
1
1
1
1
1
1
1
1
1
1
1
1
1
1
1
1
1
1
1
1
1
1
1
1
1
1
1
1
1
1
1
1
1
1
1
1
1
1
1
1
1
1
1
1
1
1
1
1
1
1
1
1
1
1
1
1
1
1
1
1
1
1
1
1
1
1
1
1
1
1
1
1
1
1
1
1
1
1
1
1
1
1
1
1
1
1
1
1
1
1
1
1
1
1
1
1
1
1
1
1
1
1
1
1
1
1
1
1
1
1
1
1
1
1
1
1
1
1
1
1
1
1
1
1
1
1
1
1
1
1
1
1
1
1
1
1
1
1
1
1
1
1
1
1
1
1
1
1
1
1
1
1
1
1
1
1
1
1
1
1
1
1
1
1
1
1
1
1
1
1
1
1
1
1
1
1
1
1
1
1
1
1
1
1
1
1
1
1
1
1
1
1
1
1
1
1
1
1
1
1
1
1
1
1
1
1
1
1
1
1
1
1
1
1
1
1
1
1
1
1
1
1
1
1
1
1
1
1
1
1
1
1
1
1
1
1
1
1
1
1
1
1
1
1
1
1
1
1
1
1
1
1
1
1
1
1
1
1
1
1
1
1
1
1
1
1
1
1
1
1
1
1
1
1
1
1
1
1
1
1
1
1
1
1
1
1
1
1
1
1
1
1
1
1
1
1
1
1
1
1
1
1
1
1
1
1
1
1
1
1
1
1
1
1
1
1
1
1
1
1
1
1
1
1
1
1
1
1
1
1
1
1
1
1
1
1
1
1
1
1
1
1
1
1
1
1
1
1
1
1
1
1
1
1
1
1
1
1
1
1
1
1
1
1
1
1
1
1
1
1
1
1
1
1
1
1
1
1
1
1
1
1
1
1
1
1
1
1
1
1
1
1
1
1
1
1
1
1
1
1
1
1
1
1
1
1
1
1
1
1
1
1
1
1
1
1
1
1
1
1
1
1
1
1
1
1
1
1
1
1
1
1
1
1
1
1
1
1
1
1
1
1
1
1
1
1
1
1
1
1
1
1
1
1
1
1
1
1
1
1
1
1
1
1
1
1
1
1
1
1
1
1
1
1
1
1
1
1
1
1
1
1
1
1
1
1
1
1
1
1
1
1
1
1
1
1
1
1
1
1
1
1
1
1
1
1
1
1
1
1
1
1
1
1
1
1
1
1
1
1
1
1
1
1
1
1
1
1
1
1
1
1
1
1
1
1
1
1
1
1
1
1
1
1
1
1
1
1
1
1
1
1
1
1
1
1
1
1
1
1
1
1
1
1
1
1
1
1
1
1
1
1
1
1
1
1
1
1
1
1
1
1
1
1
1
1
1
1
1
1
1
1
1
1
1
1
1
1
1
1
1
1
1
1
1
1
1
1
1
1
1
1
1
1
1
1
1
1
1
1
1
1
1
1
1
1
1
1
1
1
1
1
1
1
1
1
1
1
1
1
1
1
1
1
1
1
1
1
1
1
1
1
1
1
1
1
1
1
1
1
1
1
1
1
1
1
1
1
1
1
1
1
1
1
1
1
1
1
1
1
1
1
1
1
1
1
1
1
1
1
1
1
1
1
1
1
1
1
1
1
1
1
1
1
1
1
1
1
1
1
1
1
1
1
1
1
1
1
1
1
1
1
1
1
1
1
1
1
1
1
1
1
1
1
1
1
1
1
1
1
1
1
1
1
1
1
1
1
1
1
1
1
1
1
1
1
1
1
1
1
1
1
1
1
1
1
1
1
1
1
1
1
1
1
1
1
1
1
1
1
1
1
1
1
1
1
1
1
1
1
1
1
1
1
1
1
1
1
1
1
1
1
1
1
1
1
1
1
1
1
1
1
1
1
1
1
1
1
1
1
1
1
1
1
1
1
1
1
1
1
1
1
1
1
1
1
1
1
1
1
1
1
1
1
1
1
1
1
1
1
1
1
1
1
1
1
1
1
1
1
1
1
1.88266
0.94981
0.390317
0.53651
1.01428
1.16602
1.30367
1.4373
1.40941
1.4174
1.4792
1.5519
1.65232
1.74827
1.81296
1.82007
1.8164
1.82555
1.86315
1.90424
1.92892
1.92675
1.89689
1.86458
1.86429
1.89575
1.93306
1.9425
1.9429
1.94273
1.94041
1.93583
1.93275
1.92856
1.9278
1.93166
1.93219
1.91693
1.87722
1.85722
1.86129
1.86854
1.86426
1.85184
1.83734
1.83249
1.83193
1.83776
1.8467
1.85263
1.85283
1.84818
1.84189
1.83589
1.83043
1.82617
1.82056
1.81347
1.8069
1.80068
1.79414
1.78586
1.778
1.77471
1.7749
1.77348
1.76666
1.75864
1.75349
1.75023
1.75076
1.75234
1.75096
1.74668
1.73994
1.73101
1.72275
1.71832
1.71802
1.72157
1.73332
1.75076
1.76013
1.75762
1.74661
1.73034
1.71558
1.69272
1.6658
1.66046
1.65741
1.65542
1.65536
1.6563
1.65524
1.6495
1.64054
1.62966
1.61498
1.59925
1.58553
1.5715
1.55221
1.52704
1.49662
1.45596
1.40551
1.3557
1.31005
1.26081
1.20022
1.13066
1.06931
1.02866
1.00614
0.998338
0.997758
0.998039
0.99755
0.995337
0.992758
0.992756
0.99802
1.00578
1.00917
1.01148
1.01177
1.00373
0.997066
0.996036
0.996886
1.00659
1.01391
1.01521
1.01597
1.01113
0.994659
0.988925
0.988389
0.989462
1.00087
1.00812
1.0093
1.00995
1.00536
0.990848
0.985645
0.984958
0.988585
1.00687
1.01702
1.01871
1.01952
1.01853
1.00806
0.99983
0.998301
0.997653
0.999475
1.00489
1.00576
1.00593
1.00329
0.998986
0.997869
0.997282
0.997232
0.999515
1.00067
1.00075
1.00074
1.00023
0.999719
0.99957
0.99946
0.99953
0.9999
0.999998
1
1
1
1
1
1
1
1
1
1
1
1
1
1
2.20629
1.8228
1.553
1.12629
1.12684
1.11523
1.13192
1.17574
1.18353
1.19741
1.21537
1.26582
1.37929
1.48918
1.55546
1.58738
1.60248
1.6308
1.67069
1.7155
1.75994
1.79566
1.82181
1.83077
1.84021
1.86798
1.87798
1.87158
1.86732
1.8813
1.89794
1.90656
1.92266
1.93546
1.93891
1.94272
1.93648
1.90482
1.86319
1.85195
1.85147
1.8583
1.86003
1.85595
1.84169
1.83349
1.83076
1.82982
1.82977
1.83097
1.83217
1.831
1.8279
1.82547
1.82437
1.82056
1.81297
1.80699
1.80287
1.79817
1.79035
1.78385
1.77877
1.77497
1.7702
1.76522
1.76156
1.75805
1.75726
1.758
1.75885
1.75696
1.75018
1.73834
1.72803
1.72549
1.72616
1.72951
1.73728
1.74404
1.74429
1.74227
1.743
1.74095
1.73656
1.73273
1.72339
1.70142
1.67205
1.66363
1.66345
1.66242
1.66386
1.66846
1.66891
1.66453
1.65448
1.64142
1.62501
1.60609
1.5923
1.58412
1.56623
1.53424
1.49461
1.45295
1.41452
1.37753
1.33328
1.27603
1.20568
1.1293
1.06529
1.02652
1.00698
0.997904
0.992807
0.990432
0.988974
0.993164
1.00205
1.00515
1.0069
1.00672
1.00427
1.00283
1.00139
1.00075
1.00562
1.00977
1.01114
1.01088
1.00664
1.00287
0.999319
0.995815
0.998405
1.00731
1.01112
1.01301
1.00933
0.999747
0.995021
0.991409
0.987991
0.990703
1.00543
1.01207
1.01474
1.01443
1.01003
1.00757
1.00546
1.0032
1.00283
1.00836
1.01155
1.01307
1.01113
1.00333
1.00027
0.999256
0.99858
0.999558
1.00131
1.00203
1.00237
1.00114
0.999961
0.999775
0.999657
0.999613
0.999907
1.0001
1.0002
1.00026
1.00011
1
1
1
1
1
1
1
1
1
1
1
1
1
1
1
2.28153
2.05742
1.89607
1.69976
1.55199
1.43809
1.31177
1.28659
1.31289
1.29626
1.26224
1.27295
1.31073
1.34098
1.35908
1.36397
1.36975
1.39586
1.45033
1.50946
1.55818
1.60459
1.67072
1.71055
1.73102
1.75301
1.77273
1.78194
1.79322
1.81849
1.84525
1.87236
1.89364
1.90207
1.903
1.89527
1.87656
1.84884
1.84148
1.84306
1.84778
1.85285
1.8486
1.82386
1.80047
1.7947
1.7926
1.79359
1.79891
1.79973
1.79877
1.79613
1.79323
1.79094
1.78876
1.78686
1.78659
1.78611
1.78383
1.77631
1.76343
1.75512
1.75065
1.74606
1.74254
1.7448
1.75526
1.75862
1.75811
1.75419
1.73937
1.72377
1.71539
1.71172
1.71362
1.72494
1.73848
1.74096
1.74012
1.73341
1.71822
1.71451
1.71545
1.7187
1.7254
1.72628
1.72167
1.70725
1.6844
1.67969
1.68017
1.68233
1.68526
1.6836
1.67554
1.66388
1.65183
1.63996
1.62802
1.61579
1.60272
1.58439
1.55957
1.53182
1.50337
1.47549
1.4472
1.40879
1.35596
1.29152
1.21413
1.12942
1.05624
1.01629
1.00143
0.995547
0.993371
0.992167
0.992617
0.998016
1.00359
1.00527
1.00536
1.00455
1.00372
1.00371
1.00443
1.00799
1.00943
1.00963
1.00923
1.00671
1.00295
1.00152
1.00142
1.00563
1.01124
1.0118
1.0117
1.00967
1.00235
0.994983
0.99321
0.992831
0.994992
1.00413
1.00924
1.01088
1.01136
1.01012
1.0072
1.00624
1.00606
1.00778
1.01075
1.01169
1.01195
1.01115
1.00609
1.00097
0.999998
0.999933
1.00035
1.00097
1.00133
1.00151
1.0012
1.00015
0.999772
0.999733
0.999736
0.999845
1.00001
1.00008
1.00012
1.00012
1.00003
1
1
1
1
1
1
1
1
1
1
1
1
1
1
1
2.34557
2.19519
2.02607
1.88359
1.79275
1.6964
1.59184
1.51111
1.47289
1.41572
1.35218
1.34911
1.35485
1.3485
1.339
1.3342
1.32873
1.32739
1.3297
1.34652
1.37964
1.42916
1.50493
1.5692
1.60275
1.61561
1.63257
1.65865
1.68473
1.71689
1.75611
1.78614
1.80348
1.8174
1.81761
1.80892
1.80446
1.80571
1.80522
1.80673
1.80922
1.80426
1.7799
1.74951
1.73939
1.73846
1.74268
1.74956
1.74946
1.74471
1.73839
1.73467
1.7325
1.73151
1.73281
1.73686
1.73832
1.73638
1.72701
1.7122
1.69986
1.69673
1.69628
1.69621
1.70067
1.71597
1.7263
1.72655
1.72076
1.707
1.6885
1.67977
1.6795
1.68296
1.69466
1.71157
1.717
1.71583
1.7082
1.69152
1.68258
1.68456
1.68879
1.69875
1.71095
1.7115
1.70674
1.69405
1.67957
1.67751
1.67526
1.67502
1.67468
1.67188
1.66558
1.65685
1.64647
1.63466
1.62274
1.61219
1.59534
1.56943
1.5453
1.52437
1.50326
1.481
1.45277
1.413
1.36092
1.29534
1.21413
1.12117
1.04019
1.00105
0.993393
0.992782
0.993096
0.995149
0.998465
1.00061
1.00264
1.00354
1.00376
1.00418
1.00519
1.00656
1.00829
1.00962
1.0098
1.00934
1.00749
1.00434
1.0029
1.00304
1.00582
1.01152
1.01338
1.01328
1.01128
1.00468
0.997059
0.994917
0.995072
0.996989
1.00271
1.00753
1.00878
1.00859
1.00761
1.00633
1.00608
1.00679
1.00836
1.0112
1.01316
1.01336
1.0123
1.0077
1.00231
1.00073
1.00064
1.00087
1.0013
1.0015
1.00143
1.00082
0.999989
0.999749
0.999758
0.999814
0.9999
1.00003
1.0001
1.0001
1.00009
1.00003
1
1
1
1
1
1
1
1
1
1
1
1
1
1
1
1
2.35001
2.23667
2.11977
2.00484
1.91562
1.8311
1.73198
1.67244
1.62645
1.56646
1.47822
1.46015
1.45444
1.42935
1.40592
1.38983
1.36326
1.34086
1.33943
1.34431
1.34405
1.34818
1.36265
1.39483
1.43087
1.44969
1.47502
1.53127
1.58099
1.61804
1.66532
1.69825
1.71497
1.73107
1.73909
1.74501
1.75351
1.76101
1.75682
1.75106
1.74236
1.72362
1.69768
1.68655
1.68629
1.69052
1.695
1.6919
1.68374
1.67417
1.67077
1.66984
1.66965
1.67293
1.68016
1.68282
1.68026
1.66949
1.65458
1.63946
1.63529
1.63553
1.63727
1.64408
1.65856
1.66869
1.66818
1.66385
1.65623
1.64349
1.63578
1.63546
1.63843
1.64695
1.66044
1.6658
1.66426
1.65879
1.64753
1.63916
1.64027
1.64306
1.64933
1.66238
1.66786
1.66476
1.65888
1.6514
1.64883
1.64963
1.65088
1.6509
1.64865
1.64528
1.64139
1.63732
1.63218
1.62342
1.60894
1.58991
1.56336
1.534
1.51264
1.49747
1.48382
1.46571
1.43549
1.39233
1.33898
1.27381
1.19115
1.09396
1.01801
0.993199
0.990953
0.991415
0.993841
0.997012
0.999364
1.00042
1.00054
1.00153
1.00319
1.00563
1.00797
1.0093
1.00973
1.00967
1.00912
1.0072
1.00472
1.00411
1.00453
1.00673
1.01082
1.01265
1.01267
1.01134
1.00638
0.999633
0.997109
0.997176
0.998524
1.0021
1.00542
1.00618
1.00571
1.00442
1.00386
1.00423
1.00596
1.00859
1.01196
1.01386
1.01395
1.01319
1.00988
1.0045
1.0017
1.00134
1.00152
1.0017
1.00166
1.00125
1.00044
0.999863
0.999778
0.999794
0.999839
0.999913
1.00003
1.00009
1.00009
1.00007
1.00002
1
1
1
1
1
1
1
1
1
1
1
1
1
1
1
1
1
2.34369
2.25485
2.16103
2.06873
1.99544
1.9235
1.82691
1.75069
1.71225
1.66748
1.6029
1.57227
1.54651
1.50456
1.46451
1.45169
1.42946
1.38751
1.36871
1.3711
1.36689
1.34972
1.34662
1.35307
1.35206
1.34658
1.35057
1.38214
1.44064
1.49165
1.55452
1.6088
1.63609
1.6562
1.67447
1.6845
1.69907
1.70926
1.70643
1.69752
1.68218
1.66113
1.64809
1.64569
1.64686
1.64782
1.64243
1.63363
1.62377
1.61958
1.61885
1.6185
1.62165
1.63057
1.63401
1.63187
1.62371
1.61066
1.59365
1.58637
1.58595
1.58706
1.59328
1.60507
1.61214
1.61122
1.60805
1.60329
1.59407
1.58769
1.58699
1.58831
1.59411
1.60319
1.60583
1.60392
1.60013
1.59235
1.58643
1.58708
1.59006
1.59732
1.60768
1.61163
1.60908
1.6012
1.59418
1.59199
1.59287
1.59624
1.60363
1.60661
1.60601
1.60506
1.60414
1.60209
1.59712
1.58755
1.57065
1.54373
1.50928
1.47757
1.45683
1.44514
1.4348
1.41584
1.38174
1.33637
1.28493
1.22413
1.14648
1.05816
1.00087
0.989406
0.989477
0.992209
0.995799
0.996986
0.997054
0.99717
0.998063
1.00041
1.00452
1.00818
1.00984
1.01026
1.01027
1.00948
1.00723
1.00511
1.00451
1.00466
1.00628
1.01023
1.01258
1.01264
1.01153
1.00785
1.00243
0.999352
0.999057
0.999822
1.00212
1.0043
1.00464
1.00381
1.00222
1.00179
1.00211
1.00406
1.00786
1.01231
1.01433
1.01442
1.01394
1.01156
1.00711
1.00369
1.00259
1.00244
1.00232
1.00192
1.00119
1.00026
0.999844
0.999806
0.99981
0.999839
0.999914
1.00003
1.00009
1.00009
1.00007
1.00002
1
1
1
1
1
1
1
1
1
1
1
1
1
1
1
1
1
1
2.33459
2.25949
2.18073
2.10489
2.03787
1.97077
1.89508
1.83313
1.77927
1.72668
1.67642
1.64975
1.62526
1.58309
1.52252
1.50021
1.48522
1.45698
1.42739
1.42405
1.42044
1.40177
1.37549
1.36465
1.35197
1.33161
1.32936
1.33138
1.33982
1.35884
1.39691
1.45882
1.52892
1.57025
1.60481
1.62832
1.64684
1.65885
1.65829
1.65369
1.64566
1.63487
1.62726
1.62258
1.61705
1.60817
1.59714
1.58773
1.58449
1.58434
1.58483
1.5889
1.59567
1.59686
1.59424
1.58894
1.57871
1.56417
1.55635
1.55507
1.55567
1.56124
1.56865
1.5702
1.56776
1.56417
1.55922
1.55213
1.54725
1.5464
1.54745
1.55231
1.55732
1.557
1.5531
1.5467
1.54099
1.53904
1.53868
1.54071
1.54911
1.55781
1.55889
1.55601
1.54899
1.53976
1.53301
1.53159
1.53268
1.53834
1.54704
1.55219
1.55489
1.55616
1.55618
1.55355
1.54586
1.5331
1.51413
1.48656
1.45217
1.41976
1.39532
1.37462
1.34977
1.3178
1.28196
1.24504
1.2052
1.1576
1.09569
1.02803
0.993287
0.988431
0.989349
0.993441
0.995696
0.995611
0.99577
0.996662
0.998556
1.00225
1.00684
1.00931
1.01018
1.01034
1.0097
1.00751
1.00556
1.00503
1.0051
1.00623
1.00927
1.01128
1.0114
1.0106
1.00802
1.00452
1.00221
1.00201
1.00254
1.00295
1.00289
1.00271
1.00137
0.999701
0.999428
1.00004
1.0026
1.00743
1.01259
1.01424
1.01425
1.01397
1.01246
1.00921
1.00604
1.00453
1.004
1.00336
1.00233
1.0011
1.00012
0.999844
0.99983
0.999835
0.99986
0.999933
1.00004
1.00009
1.00009
1.00007
1.00003
1
1
1
1
1
1
1
1
1
1
1
1
1
1
1
1
1
1
1
2.32892
2.26368
2.19402
2.12834
2.06751
2.00312
1.93922
1.88969
1.83841
1.78534
1.73123
1.69976
1.67181
1.63921
1.58832
1.54836
1.53029
1.50882
1.47603
1.4669
1.46437
1.45095
1.42309
1.39777
1.37974
1.35934
1.33277
1.3232
1.32573
1.3344
1.34534
1.35435
1.38063
1.43116
1.49189
1.5515
1.58391
1.59933
1.60801
1.61106
1.61146
1.61231
1.60896
1.60072
1.59115
1.57845
1.56565
1.56008
1.55886
1.55933
1.56429
1.56938
1.56839
1.56438
1.56044
1.5535
1.54212
1.5339
1.53211
1.53312
1.5378
1.54181
1.54146
1.53879
1.5338
1.52634
1.51901
1.5144
1.51328
1.51423
1.51879
1.52277
1.52134
1.51586
1.50872
1.5011
1.49883
1.49861
1.50056
1.50903
1.51615
1.51591
1.5117
1.50434
1.49487
1.48806
1.4862
1.48644
1.49087
1.49719
1.49976
1.50035
1.49983
1.49758
1.49341
1.48747
1.47963
1.46835
1.45101
1.42637
1.39675
1.3658
1.33291
1.29568
1.25598
1.21819
1.18579
1.15892
1.133
1.09826
1.04916
1.00613
0.99011
0.988194
0.989879
0.994264
0.995004
0.994854
0.995099
0.996224
0.999341
1.00416
1.00773
1.00921
1.00969
1.0093
1.00758
1.00618
1.00578
1.0057
1.00626
1.00854
1.0105
1.01057
1.00969
1.00793
1.0058
1.00437
1.00442
1.0048
1.00474
1.00378
1.00186
0.999135
0.997518
0.997368
0.997978
1.0005
1.006
1.01213
1.01417
1.01425
1.01403
1.01293
1.01065
1.00824
1.00674
1.00601
1.00499
1.00323
1.00122
1.00005
0.999848
0.999839
0.999845
0.999877
0.99996
1.00006
1.00009
1.00009
1.00007
1.00003
1
1
1
1
1
1
1
1
1
1
1
1
1
1
1
1
1
1
1
1
2.32769
2.2654
2.20339
2.14661
2.09089
2.03001
1.9751
1.92149
1.87607
1.83348
1.79207
1.74872
1.70259
1.66547
1.6299
1.5976
1.57926
1.56111
1.52874
1.50204
1.49376
1.47993
1.45461
1.4266
1.41343
1.40172
1.38093
1.36329
1.35934
1.35351
1.34104
1.33646
1.33651
1.34035
1.3577
1.40418
1.46969
1.51955
1.5444
1.5566
1.57193
1.5804
1.57935
1.57328
1.56595
1.55731
1.55062
1.54861
1.54784
1.54806
1.54915
1.54753
1.54138
1.53468
1.52912
1.52333
1.51765
1.51564
1.51563
1.5157
1.51392
1.51283
1.51157
1.50884
1.504
1.49761
1.49211
1.48953
1.48952
1.49114
1.49179
1.48939
1.48328
1.47672
1.47035
1.46741
1.46697
1.46763
1.47314
1.47964
1.47966
1.47654
1.47042
1.46194
1.45333
1.44865
1.44844
1.45235
1.45726
1.45678
1.45397
1.45061
1.44564
1.43882
1.43178
1.425
1.41766
1.40817
1.39426
1.37401
1.34659
1.31203
1.2721
1.23044
1.19086
1.1568
1.12966
1.10545
1.07789
1.04574
1.01519
0.99657
0.991069
0.990856
0.992766
0.995575
0.996113
0.996191
0.99653
0.998243
1.00183
1.00504
1.00685
1.00778
1.00779
1.00714
1.00662
1.00643
1.00636
1.00671
1.00818
1.00957
1.00962
1.00877
1.00761
1.00676
1.0064
1.00667
1.00697
1.00658
1.00484
1.00166
0.997881
0.996328
0.996259
0.996693
0.998635
1.00384
1.01074
1.0136
1.0138
1.01363
1.01293
1.01154
1.00997
1.00883
1.00818
1.00707
1.00476
1.00175
1.00009
0.999873
0.999868
0.999875
0.999911
0.999997
1.00008
1.0001
1.00009
1.00007
1.00003
1
1
1
1
1
1
1
1
1
1
1
1
1
1
1
1
1
1
1
1
1
2.32396
2.26811
2.21418
2.16
2.10485
2.05313
2.00594
1.95614
1.90259
1.85538
1.82235
1.78356
1.74382
1.70557
1.66554
1.62463
1.61005
1.60084
1.58187
1.55625
1.53424
1.5072
1.46957
1.43942
1.43346
1.4306
1.42006
1.40179
1.39558
1.38957
1.3745
1.3497
1.32758
1.32591
1.32738
1.33587
1.35632
1.39493
1.44201
1.47818
1.50289
1.52531
1.53932
1.53918
1.53562
1.53579
1.53931
1.54275
1.54224
1.53795
1.53162
1.52486
1.51581
1.5084
1.50476
1.50245
1.50184
1.50104
1.49629
1.48792
1.48282
1.48083
1.47904
1.47729
1.47557
1.47351
1.47226
1.47152
1.47025
1.4663
1.45919
1.45122
1.44531
1.44117
1.43785
1.43657
1.43684
1.43968
1.44512
1.44633
1.44517
1.44166
1.43597
1.42941
1.42337
1.41979
1.41948
1.41942
1.41661
1.41235
1.40829
1.40365
1.39744
1.38967
1.38275
1.3773
1.37154
1.36305
1.34905
1.3275
1.29844
1.26396
1.22691
1.18958
1.15328
1.1194
1.08858
1.06062
1.03624
1.01725
1.00389
0.996714
0.995581
0.995777
0.996408
0.99702
0.997476
0.998198
0.999506
1.00144
1.00334
1.00451
1.00512
1.00541
1.00571
1.00623
1.00652
1.00675
1.00723
1.00824
1.00901
1.00896
1.00809
1.00743
1.00738
1.00767
1.00855
1.00888
1.00855
1.00672
1.00249
0.997636
0.996057
0.996015
0.996235
0.99744
1.00124
1.00776
1.01237
1.01319
1.01301
1.01255
1.01189
1.01117
1.01064
1.01029
1.0094
1.00697
1.00307
1.00035
0.999896
0.999885
0.999899
0.999946
1.00004
1.0001
1.00011
1.00011
1.00008
1.00003
1
1
1
1
1
1
1
1
1
1
1
1
1
1
1
1
1
1
1
1
1
1
2.3189
2.26866
2.21941
2.16998
2.11796
2.06884
2.02192
1.97761
1.93057
1.88666
1.84452
1.8033
1.76692
1.73966
1.71296
1.67787
1.64474
1.6268
1.60661
1.58531
1.56757
1.54259
1.50012
1.46591
1.46163
1.46211
1.4561
1.44281
1.43278
1.42209
1.40245
1.37044
1.34716
1.34228
1.33741
1.33513
1.3413
1.34883
1.35309
1.36489
1.38651
1.41645
1.45329
1.47918
1.49125
1.50238
1.51631
1.52586
1.52599
1.52126
1.51179
1.50162
1.49582
1.49249
1.48991
1.48863
1.48713
1.48211
1.46972
1.45596
1.45104
1.44956
1.44913
1.45047
1.4537
1.45605
1.4559
1.45259
1.44468
1.43465
1.42495
1.41756
1.41215
1.40942
1.40867
1.40874
1.41011
1.41352
1.41533
1.41496
1.41349
1.41124
1.40766
1.40203
1.3952
1.38886
1.38347
1.37848
1.37405
1.37052
1.36703
1.36242
1.35663
1.35009
1.34427
1.33908
1.33194
1.32009
1.30249
1.2805
1.25597
1.22871
1.19706
1.16106
1.12277
1.08592
1.05531
1.03351
1.01908
1.00975
1.00396
1.00087
0.999317
0.998622
0.998243
0.998354
0.999591
1.00172
1.00287
1.00314
1.00336
1.00345
1.00344
1.00396
1.00504
1.00588
1.00677
1.00773
1.00836
1.00857
1.00852
1.00798
1.00768
1.00772
1.00839
1.00998
1.01047
1.01014
1.00865
1.00457
0.9987
0.99625
0.996083
0.996203
0.997086
0.999901
1.00481
1.00916
1.01125
1.01203
1.01212
1.01209
1.01197
1.01197
1.012
1.01157
1.00958
1.00534
1.0011
0.999978
0.999934
0.999947
0.999993
1.00007
1.00013
1.00013
1.00012
1.00008
1.00003
1
1
1
1
1
1
1
1
1
1
1
1
1
1
1
1
1
1
1
1
1
1
1
2.31092
2.26699
2.22202
2.17369
2.12512
2.08324
2.0406
1.99294
1.94564
1.90778
1.86891
1.83498
1.79987
1.76893
1.74027
1.7127
1.68771
1.66678
1.63758
1.59792
1.57772
1.55993
1.52999
1.4977
1.49304
1.49288
1.48655
1.47371
1.46381
1.45159
1.42554
1.38516
1.36821
1.36533
1.36139
1.35294
1.35007
1.35003
1.34404
1.32354
1.31671
1.3232
1.3471
1.38848
1.42637
1.45179
1.47986
1.49797
1.49889
1.49464
1.48599
1.48244
1.4811
1.48072
1.47744
1.47243
1.46617
1.45676
1.44168
1.43201
1.42866
1.42719
1.42816
1.43404
1.43831
1.43776
1.43233
1.42229
1.41136
1.40065
1.39377
1.38879
1.38531
1.38453
1.38509
1.38651
1.38746
1.3872
1.38542
1.38338
1.3823
1.38162
1.37892
1.37147
1.36102
1.3514
1.34428
1.3398
1.33793
1.33717
1.33528
1.32963
1.32224
1.31492
1.30656
1.29654
1.28468
1.27061
1.25448
1.23824
1.22124
1.19709
1.16405
1.12695
1.09007
1.05806
1.03601
1.02412
1.01706
1.01042
1.00496
1.00146
0.999948
0.999203
0.999126
1.00023
1.00307
1.0046
1.00455
1.0039
1.00305
1.00279
1.00299
1.00365
1.00466
1.00603
1.00727
1.00784
1.00807
1.00812
1.00805
1.00803
1.00817
1.00912
1.01089
1.01155
1.01131
1.0102
1.00697
1.00101
0.997206
0.996721
0.996799
0.997381
0.999171
1.00237
1.00594
1.00838
1.0094
1.0105
1.01202
1.01292
1.01334
1.01352
1.01342
1.01217
1.00834
1.00277
1.0002
0.999982
0.999996
1.00004
1.00011
1.00015
1.00015
1.00013
1.00008
1.00002
1
1
1
1
1
1
1
1
1
1
1
1
1
1
1
1
1
1
1
1
1
1
1
1
2.30072
2.26136
2.22021
2.17601
2.13102
2.08963
2.04952
2.00681
1.96808
1.93024
1.89077
1.85205
1.82545
1.80358
1.77653
1.73953
1.70894
1.68872
1.66264
1.62678
1.60082
1.58242
1.55607
1.52382
1.52004
1.52084
1.51464
1.49975
1.48825
1.47469
1.44719
1.41021
1.39852
1.3957
1.39156
1.38172
1.37216
1.36486
1.34916
1.32011
1.30749
1.30821
1.31186
1.32248
1.34623
1.37993
1.41084
1.43927
1.45794
1.45764
1.45757
1.46036
1.46016
1.45845
1.45454
1.44883
1.44154
1.43006
1.41835
1.41303
1.41161
1.41288
1.41878
1.42247
1.42102
1.41361
1.40119
1.38734
1.37601
1.37026
1.36658
1.3643
1.36423
1.36586
1.36627
1.3649
1.36133
1.35659
1.35176
1.34908
1.34882
1.34851
1.34527
1.33695
1.32527
1.31474
1.30875
1.3075
1.30954
1.31174
1.30804
1.29614
1.28424
1.27474
1.26318
1.24873
1.23552
1.22483
1.21587
1.20825
1.193
1.16217
1.12616
1.09289
1.0627
1.0407
1.03032
1.02438
1.01659
1.00924
1.00361
1.00059
0.999074
0.99862
0.999508
1.00317
1.00591
1.006
1.00535
1.00389
1.00268
1.00246
1.00268
1.00362
1.00525
1.0065
1.00696
1.0072
1.00728
1.00736
1.00767
1.00838
1.00985
1.01157
1.01226
1.01227
1.01172
1.00953
1.00433
0.998873