/*--------------------------------*- C++ -*----------------------------------*\
  =========                 |
  \\      /  F ield         | OpenFOAM: The Open Source CFD Toolbox
   \\    /   O peration     | Website:  https://openfoam.org
    \\  /    A nd           | Version:  10
     \\/     M anipulation  |
\*---------------------------------------------------------------------------*/
FoamFile
{
    format      ascii;
    class       volVectorField;
    location    "0.5";
    object      U;
}
// * * * * * * * * * * * * * * * * * * * * * * * * * * * * * * * * * * * * * //

dimensions      [0 1 -1 0 0 0 0];

internalField   nonuniform List<vector> 
16128
(
(3 -2.65911e-15 0)
(3 -4.14629e-15 0)
(3 -1.20683e-14 0)
(3 -1.4421e-14 0)
(3 -1.7366e-14 0)
(3 -8.47328e-15 0)
(3 -1.16121e-14 0)
(3 -2.83919e-14 0)
(3 -5.48865e-14 0)
(3 -4.2617e-14 0)
(3 -4.16872e-14 0)
(3 -1.38141e-14 0)
(3 -7.27657e-15 0)
(3 6.52724e-15 0)
(3 6.82785e-15 0)
(3 -8.78178e-15 0)
(3 -1.53773e-14 0)
(3 -8.52334e-15 0)
(3 -2.18636e-14 0)
(3 -7.21582e-14 0)
(3 -7.97323e-14 0)
(3 -9.64881e-14 0)
(3 -6.8305e-14 0)
(3 -4.02698e-14 0)
(3 -2.75845e-14 0)
(3 2.8191e-16 0)
(3 3.95973e-14 0)
(3 4.37927e-14 0)
(3 6.90381e-14 0)
(3 1.85881e-14 0)
(1.83027 0.0101958 0)
(0.695804 0.0147 0)
(0.596238 0.0145894 0)
(0.563151 0.0160836 0)
(0.535858 0.0171532 0)
(0.502177 0.0168228 0)
(0.459711 0.0160337 0)
(0.402052 0.0158793 0)
(0.351295 0.0160984 0)
(0.318722 0.0171522 0)
(0.294025 0.0179933 0)
(0.28121 0.0187348 0)
(0.261918 0.0198107 0)
(0.229473 0.0211577 0)
(0.184441 0.0220869 0)
(0.132014 0.0223024 0)
(0.0766773 0.0230763 0)
(0.0278432 0.022546 0)
(3 -7.17626e-16 0)
(3 -6.62204e-15 0)
(3 -4.90809e-14 0)
(3 -4.5624e-14 0)
(3 -3.30804e-14 0)
(3 1.54381e-14 0)
(3 2.21427e-14 0)
(3 1.60622e-14 0)
(3 -1.51878e-14 0)
(3 -3.38617e-14 0)
(3 -1.35296e-14 0)
(3 -1.21617e-15 0)
(3 1.5238e-14 0)
(3 3.44996e-14 0)
(3 3.57426e-14 0)
(3 4.49688e-15 0)
(3 8.03792e-15 0)
(3 2.09826e-15 0)
(3 -2.341e-14 0)
(3 -9.27082e-14 0)
(3 -9.61081e-14 0)
(3 -1.24202e-13 0)
(3 -1.31954e-13 0)
(3 -1.0076e-13 0)
(3 -3.36659e-14 0)
(3 1.65574e-14 0)
(3 8.12478e-14 0)
(3 1.07018e-13 0)
(3 9.02793e-14 0)
(3 -2.23772e-14 0)
(1.85064 0.0459266 0)
(0.692349 0.0582595 0)
(0.584941 0.0473441 0)
(0.55005 0.044148 0)
(0.524605 0.0469285 0)
(0.492615 0.0480397 0)
(0.450957 0.047147 0)
(0.393045 0.0468422 0)
(0.341836 0.0473942 0)
(0.30868 0.0501522 0)
(0.282963 0.0521287 0)
(0.269531 0.0542736 0)
(0.249756 0.0573437 0)
(0.217893 0.0613226 0)
(0.174861 0.0644794 0)
(0.125193 0.0659947 0)
(0.0730851 0.0689076 0)
(0.0258398 0.0677069 0)
(3 -5.27348e-15 0)
(3 -1.64702e-15 0)
(3 4.83081e-15 0)
(3 5.30716e-14 0)
(3 5.96604e-14 0)
(3 7.08588e-14 0)
(3 8.5341e-14 0)
(3 1.05668e-13 0)
(3 1.27821e-13 0)
(3 1.19723e-13 0)
(3 8.34149e-14 0)
(3 -1.5071e-14 0)
(3 -2.02071e-15 0)
(3 9.28854e-14 0)
(3 8.51383e-14 0)
(3 5.44034e-14 0)
(3 6.31739e-14 0)
(3 6.83263e-14 0)
(3 3.54835e-14 0)
(3 4.69158e-14 0)
(3 -3.1358e-14 0)
(3 -4.27325e-14 0)
(3 -7.10527e-14 0)
(3 -8.8074e-14 0)
(3 -6.01791e-14 0)
(3 1.81696e-14 0)
(3 1.07242e-13 0)
(3 1.4965e-13 0)
(3 3.22868e-14 0)
(3 4.23656e-15 0)
(1.91688 0.0801934 0)
(0.703795 0.101508 0)
(0.588099 0.0828356 0)
(0.550984 0.0761743 0)
(0.524652 0.0781095 0)
(0.492793 0.0805711 0)
(0.451291 0.0805672 0)
(0.392535 0.0809891 0)
(0.340003 0.0820208 0)
(0.305141 0.0862893 0)
(0.27673 0.088991 0)
(0.260894 0.0915485 0)
(0.239053 0.0957823 0)
(0.206459 0.100973 0)
(0.164333 0.104865 0)
(0.116816 0.106467 0)
(0.068359 0.111329 0)
(0.022568 0.108922 0)
(3 -2.37721e-15 0)
(3 -4.74887e-15 0)
(3 5.60527e-14 0)
(3 7.93661e-14 0)
(3 8.7531e-14 0)
(3 6.98556e-14 0)
(3 8.1551e-14 0)
(3 9.68944e-14 0)
(3 7.47689e-14 0)
(3 6.30312e-14 0)
(3 3.58404e-14 0)
(3 9.33622e-15 0)
(3 2.55761e-14 0)
(3 5.08777e-14 0)
(3 4.48156e-14 0)
(3 4.35543e-14 0)
(3 1.94017e-14 0)
(3 2.88761e-14 0)
(3 2.56204e-14 0)
(3 3.34236e-14 0)
(3 -3.85791e-14 0)
(3 -6.03449e-14 0)
(3 -5.19664e-14 0)
(3 -4.13776e-15 0)
(3 1.13279e-14 0)
(3 1.89736e-14 0)
(3 4.70028e-14 0)
(3 8.49386e-14 0)
(3 1.37655e-13 0)
(3 1.48655e-13 0)
(2.00935 0.110682 0)
(0.715701 0.145284 0)
(0.591027 0.117841 0)
(0.557793 0.106307 0)
(0.532643 0.107975 0)
(0.501234 0.112675 0)
(0.460091 0.114274 0)
(0.401234 0.116032 0)
(0.347888 0.118157 0)
(0.311624 0.124353 0)
(0.280403 0.128085 0)
(0.261579 0.130992 0)
(0.236601 0.136086 0)
(0.202214 0.141904 0)
(0.159763 0.145257 0)
(0.11262 0.145069 0)
(0.0661763 0.151012 0)
(0.0202483 0.147845 0)
(3 1.56883e-14 0)
(3 1.76487e-14 0)
(3 1.66774e-14 0)
(3 3.1593e-14 0)
(3 2.47458e-15 0)
(3 5.82701e-15 0)
(3 -1.04222e-14 0)
(3 -2.00583e-14 0)
(3 -3.53713e-14 0)
(3 -2.84455e-15 0)
(3 1.94176e-14 0)
(3 3.06206e-14 0)
(3 -2.61309e-14 0)
(3 -1.44524e-13 0)
(3 -1.15349e-13 0)
(3 -7.28877e-14 0)
(3 -1.22337e-13 0)
(3 -1.19785e-13 0)
(3 -2.9738e-14 0)
(3 3.74509e-14 0)
(3 1.03361e-14 0)
(3 -8.07666e-14 0)
(3 -9.06565e-14 0)
(3 -7.36417e-14 0)
(3 5.98175e-14 0)
(3 1.14985e-13 0)
(3 7.61303e-14 0)
(3 9.12086e-14 0)
(3 2.2136e-13 0)
(3 2.11936e-13 0)
(2.13556 0.142563 0)
(0.732776 0.190689 0)
(0.596969 0.149112 0)
(0.568952 0.133461 0)
(0.542944 0.13792 0)
(0.510103 0.14626 0)
(0.468547 0.149541 0)
(0.410905 0.152496 0)
(0.358213 0.155788 0)
(0.321737 0.163794 0)
(0.288896 0.168681 0)
(0.268054 0.172034 0)
(0.240935 0.178061 0)
(0.204957 0.18377 0)
(0.161556 0.185807 0)
(0.113472 0.183628 0)
(0.0673879 0.189505 0)
(0.0200156 0.187405 0)
(3 8.81148e-15 0)
(3 3.4351e-14 0)
(3 3.3252e-14 0)
(3 1.10043e-15 0)
(3 -2.77513e-14 0)
(3 -6.60932e-14 0)
(3 -5.63935e-14 0)
(3 -3.72752e-14 0)
(3 -2.94319e-14 0)
(3 -1.87902e-14 0)
(3 -2.86592e-14 0)
(3 -5.42761e-14 0)
(3 -8.65559e-14 0)
(3 -1.03844e-13 0)
(3 -7.92086e-14 0)
(3 -6.7672e-14 0)
(3 1.75632e-15 0)
(3 2.84715e-15 0)
(3 2.27945e-14 0)
(3 7.06998e-14 0)
(3 6.80503e-14 0)
(3 -3.53701e-14 0)
(3 -2.67612e-14 0)
(3 -4.11044e-14 0)
(3 -2.62955e-14 0)
(3 9.16228e-14 0)
(3 1.47377e-13 0)
(3 1.56023e-13 0)
(3 1.89935e-13 0)
(3 2.24129e-13 0)
(2.30916 0.172099 0)
(0.761314 0.235288 0)
(0.609405 0.175635 0)
(0.582951 0.160132 0)
(0.553776 0.170593 0)
(0.518193 0.182255 0)
(0.476379 0.185865 0)
(0.421894 0.189168 0)
(0.370937 0.193731 0)
(0.334081 0.203513 0)
(0.299784 0.209853 0)
(0.276946 0.214027 0)
(0.248498 0.221226 0)
(0.211275 0.226919 0)
(0.166541 0.227608 0)
(0.117264 0.223653 0)
(0.0709442 0.229185 0)
(0.0220358 0.229209 0)
(3 4.27304e-15 0)
(3 -9.73388e-15 0)
(3 -5.48575e-15 0)
(3 -5.63272e-14 0)
(3 -1.10199e-13 0)
(3 -8.53662e-14 0)
(3 -2.37778e-14 0)
(3 3.44484e-14 0)
(3 3.89291e-14 0)
(3 2.092e-14 0)
(3 -3.08671e-14 0)
(3 -2.03656e-14 0)
(3 -1.46707e-14 0)
(3 2.94442e-14 0)
(3 5.57447e-14 0)
(3 7.19183e-14 0)
(3 6.95433e-14 0)
(3 6.17965e-14 0)
(3 3.74135e-14 0)
(3 1.71634e-14 0)
(3 2.19523e-14 0)
(3 2.32771e-14 0)
(3 4.54302e-14 0)
(3 1.13228e-14 0)
(3 -7.21197e-15 0)
(3 7.58113e-14 0)
(3 1.43665e-13 0)
(3 1.03481e-13 0)
(3 9.03969e-14 0)
(3 9.18634e-14 0)
(2.54798 0.180401 0)
(0.816661 0.270483 0)
(0.626478 0.19814 0)
(0.596745 0.190745 0)
(0.561525 0.208305 0)
(0.523504 0.220624 0)
(0.483788 0.222892 0)
(0.433896 0.225741 0)
(0.385045 0.231882 0)
(0.347281 0.24322 0)
(0.311505 0.251104 0)
(0.286648 0.256492 0)
(0.25735 0.264988 0)
(0.219342 0.271195 0)
(0.173856 0.271253 0)
(0.123524 0.266608 0)
(0.0758398 0.271616 0)
(0.0270299 0.273098 0)
(3 -5.87434e-15 0)
(3 -6.56099e-16 0)
(3 -2.32975e-14 0)
(3 -2.47555e-14 0)
(3 -1.5133e-14 0)
(3 9.18787e-15 0)
(3 6.6397e-14 0)
(3 8.04807e-14 0)
(3 6.80766e-14 0)
(3 3.78242e-14 0)
(3 4.07485e-14 0)
(3 5.27885e-14 0)
(3 2.1392e-14 0)
(3 7.26668e-14 0)
(3 5.41675e-14 0)
(3 9.5771e-14 0)
(3 3.43066e-14 0)
(3 -3.25904e-14 0)
(3 -1.94754e-14 0)
(3 1.009e-14 0)
(3 4.38849e-15 0)
(3 3.37487e-14 0)
(3 1.77777e-14 0)
(3 -1.46783e-14 0)
(3 1.31843e-15 0)
(3 6.03704e-15 0)
(3 -4.85805e-15 0)
(3 1.99771e-15 0)
(3 1.56344e-14 0)
(3 -1.41937e-14 0)
(2.81019 0.144285 0)
(0.904414 0.287054 0)
(0.641311 0.219381 0)
(0.606581 0.23012 0)
(0.564375 0.251809 0)
(0.527333 0.259556 0)
(0.493728 0.258982 0)
(0.449008 0.261603 0)
(0.401529 0.269707 0)
(0.361654 0.28261 0)
(0.32345 0.292255 0)
(0.296013 0.299261 0)
(0.265739 0.309605 0)
(0.227415 0.317261 0)
(0.181883 0.317959 0)
(0.130783 0.313519 0)
(0.0799957 0.316244 0)
(0.034567 0.319474 0)
(3 -1.35742e-14 0)
(3 -8.25238e-15 0)
(3 6.95235e-15 0)
(3 1.9084e-14 0)
(3 3.67756e-14 0)
(3 4.28627e-14 0)
(3 1.0031e-13 0)
(3 1.18967e-13 0)
(3 6.6321e-14 0)
(3 2.82578e-14 0)
(3 2.09518e-14 0)
(3 3.16074e-14 0)
(3 2.76554e-14 0)
(3 -3.14958e-14 0)
(3 -4.54477e-14 0)
(3 -6.46605e-14 0)
(3 -6.42687e-15 0)
(3 -9.7536e-16 0)
(3 -9.54583e-15 0)
(3 4.15536e-14 0)
(3 8.1677e-14 0)
(3 8.27687e-14 0)
(3 6.40183e-15 0)
(3 -5.65146e-14 0)
(3 -8.08994e-14 0)
(3 -1.44677e-13 0)
(3 -1.44588e-13 0)
(3 -1.16563e-13 0)
(3 -6.88185e-14 0)
(3 -6.10218e-14 0)
(2.98039 0.0320196 0)
(1.02453 0.292715 0)
(0.658759 0.245672 0)
(0.607186 0.27545 0)
(0.562163 0.29498 0)
(0.53556 0.29456 0)
(0.509091 0.292814 0)
(0.467646 0.297202 0)
(0.419163 0.3083 0)
(0.376066 0.322747 0)
(0.335471 0.333676 0)
(0.30634 0.341817 0)
(0.276351 0.354308 0)
(0.239111 0.364495 0)
(0.194457 0.367289 0)
(0.141744 0.364351 0)
(0.0865999 0.364282 0)
(0.0389801 0.369579 0)
(3 -5.94522e-15 0)
(3 -2.37352e-14 0)
(3 -2.0797e-14 0)
(3 -2.53195e-14 0)
(3 -9.8763e-15 0)
(3 -9.08187e-15 0)
(3 2.30969e-16 0)
(3 1.80618e-14 0)
(3 7.87411e-15 0)
(3 2.71696e-15 0)
(3 -2.67529e-14 0)
(3 4.42261e-15 0)
(3 -3.19842e-14 0)
(3 -1.0714e-13 0)
(3 -8.95524e-14 0)
(3 -8.743e-14 0)
(3 -9.19833e-14 0)
(3 -7.62509e-14 0)
(3 -6.31055e-14 0)
(3 -2.49762e-14 0)
(3 3.23491e-14 0)
(3 3.24952e-14 0)
(3 -1.80129e-14 0)
(3 -1.03504e-13 0)
(3 -1.72943e-13 0)
(3 -1.77536e-13 0)
(3 -1.48843e-13 0)
(3 -9.3407e-14 0)
(3 -5.04627e-14 0)
(3 -3.79364e-14 0)
(3.00081 0.000850457 0)
(1.20371 0.310093 0)
(0.666005 0.285333 0)
(0.603788 0.320342 0)
(0.571681 0.329704 0)
(0.553206 0.324071 0)
(0.528596 0.326084 0)
(0.487501 0.334467 0)
(0.436984 0.348506 0)
(0.391089 0.363523 0)
(0.349068 0.374821 0)
(0.318976 0.383506 0)
(0.289541 0.398687 0)
(0.253262 0.412661 0)
(0.209129 0.419524 0)
(0.155278 0.419917 0)
(0.0965944 0.419642 0)
(0.0331666 0.42366 0)
(3 -7.03834e-16 0)
(3 -2.26478e-15 0)
(3 -5.35912e-14 0)
(3 -4.08316e-14 0)
(3 -1.63805e-14 0)
(3 -2.79674e-14 0)
(3 -6.0267e-14 0)
(3 -7.87034e-14 0)
(3 -4.276e-14 0)
(3 -3.93002e-14 0)
(3 -9.79022e-15 0)
(3 -2.38654e-14 0)
(3 -2.52692e-14 0)
(3 -4.22433e-14 0)
(3 -3.49702e-14 0)
(3 1.14832e-14 0)
(3 1.99813e-14 0)
(3 1.82788e-14 0)
(3 1.07435e-14 0)
(3 -2.89964e-14 0)
(3 -2.64602e-14 0)
(3 -3.93973e-14 0)
(3 -8.35358e-14 0)
(3 -1.12029e-13 0)
(3 -1.25975e-13 0)
(3 -1.21542e-13 0)
(3 -7.56886e-14 0)
(3 -4.70397e-14 0)
(3 -6.23739e-14 0)
(3 -6.58832e-14 0)
(3 7.87822e-07 0)
(1.46085 0.350383 0)
(0.690811 0.338779 0)
(0.617651 0.3607 0)
(0.595532 0.355322 0)
(0.576301 0.352222 0)
(0.550527 0.360923 0)
(0.507689 0.37404 0)
(0.455195 0.390121 0)
(0.40771 0.404273 0)
(0.365898 0.415261 0)
(0.335656 0.424491 0)
(0.307377 0.442886 0)
(0.272372 0.461755 0)
(0.228801 0.47362 0)
(0.174083 0.478407 0)
(0.110718 0.483025 0)
(0.0341917 0.486379 0)
(3 -5.20919e-15 0)
(3 -2.12546e-14 0)
(3 -1.90464e-14 0)
(3 -7.00777e-15 0)
(3 3.34428e-14 0)
(3 2.67402e-14 0)
(3 -3.64268e-14 0)
(3 -8.46002e-14 0)
(3 -6.79606e-14 0)
(3 -2.17752e-14 0)
(3 2.18187e-14 0)
(3 -1.09187e-14 0)
(3 -3.11078e-14 0)
(3 -1.44839e-14 0)
(3 1.71751e-14 0)
(3 6.1077e-14 0)
(3 7.12463e-14 0)
(3 9.53286e-14 0)
(3 9.17502e-14 0)
(3 3.41547e-14 0)
(3 8.44635e-15 0)
(3 -6.92125e-15 0)
(3 -1.97319e-14 0)
(3 2.48649e-14 0)
(3 2.53087e-14 0)
(3 2.028e-14 0)
(3 1.70645e-14 0)
(3 -7.50864e-14 0)
(3 -6.66997e-14 0)
(3 -5.94697e-14 0)
(3 3.50513e-11 0)
(1.82718 0.387145 0)
(0.751341 0.39474 0)
(0.654761 0.385719 0)
(0.629596 0.378529 0)
(0.603054 0.382755 0)
(0.572154 0.399691 0)
(0.526671 0.416566 0)
(0.473995 0.432091 0)
(0.427799 0.443431 0)
(0.388377 0.453776 0)
(0.358091 0.464536 0)
(0.330192 0.487299 0)
(0.294711 0.512921 0)
(0.248977 0.532313 0)
(0.191016 0.543749 0)
(0.122387 0.556899 0)
(0.0322449 0.560989 0)
(3 1.37891e-14 0)
(3 1.43725e-14 0)
(3 1.32021e-14 0)
(3 9.6626e-15 0)
(3 3.64595e-14 0)
(3 2.03712e-14 0)
(3 8.24859e-15 0)
(3 -1.34653e-14 0)
(3 4.94472e-15 0)
(3 5.73034e-14 0)
(3 5.97153e-14 0)
(3 8.78323e-16 0)
(3 -1.85798e-14 0)
(3 -1.65905e-14 0)
(3 -2.23209e-14 0)
(3 -5.51831e-14 0)
(3 -4.56432e-14 0)
(3 -1.46053e-14 0)
(3 1.77823e-14 0)
(3 7.40379e-14 0)
(3 3.16716e-14 0)
(3 1.45335e-14 0)
(3 2.69185e-14 0)
(3 7.14942e-14 0)
(3 1.41707e-13 0)
(3 1.30268e-13 0)
(3 3.54896e-14 0)
(3 -2.57704e-14 0)
(3 -3.31376e-15 0)
(3 8.42543e-15 0)
(3 4.9292e-15 0)
(2.32578 0.349343 0)
(0.852884 0.43389 0)
(0.700622 0.415278 0)
(0.663007 0.410729 0)
(0.628088 0.424918 0)
(0.588171 0.446724 0)
(0.541618 0.461769 0)
(0.495902 0.471288 0)
(0.455073 0.47853 0)
(0.418487 0.489846 0)
(0.387012 0.505216 0)
(0.358394 0.534199 0)
(0.32322 0.567711 0)
(0.278716 0.594031 0)
(0.221107 0.612357 0)
(0.146088 0.640237 0)
(0.0475099 0.65026 0)
(3 3.3188e-15 0)
(3 3.14032e-15 0)
(3 -5.18961e-15 0)
(3 -1.1586e-14 0)
(3 -3.12154e-14 0)
(3 -1.16975e-14 0)
(3 -2.68463e-14 0)
(3 1.84532e-14 0)
(3 1.18711e-13 0)
(3 1.30625e-13 0)
(3 1.1384e-13 0)
(3 3.66852e-14 0)
(3 2.94452e-14 0)
(3 6.8718e-16 0)
(3 -5.88134e-14 0)
(3 -5.09047e-14 0)
(3 -4.41932e-14 0)
(3 -1.84836e-14 0)
(3 2.51692e-14 0)
(3 5.85273e-14 0)
(3 4.1355e-14 0)
(3 2.32656e-14 0)
(3 9.18554e-14 0)
(3 8.40013e-14 0)
(3 6.21432e-14 0)
(3 3.38521e-14 0)
(3 3.00202e-14 0)
(3 6.38996e-15 0)
(3 -1.33621e-14 0)
(3 3.91383e-15 0)
(3 -4.96001e-14 0)
(2.83377 0.188253 0)
(0.986792 0.455927 0)
(0.731587 0.455519 0)
(0.678592 0.457252 0)
(0.631048 0.47792 0)
(0.594871 0.49725 0)
(0.56433 0.502363 0)
(0.530384 0.501881 0)
(0.494206 0.508549 0)
(0.458307 0.523685 0)
(0.424993 0.545916 0)
(0.39383 0.582245 0)
(0.35697 0.624714 0)
(0.30881 0.661819 0)
(0.243012 0.69643 0)
(0.159163 0.745004 0)
(0.0631374 0.766923 0)
(3 -1.78774e-14 0)
(3 -4.2328e-14 0)
(3 -5.91272e-14 0)
(3 -9.06588e-14 0)
(3 -1.03551e-13 0)
(3 -6.28621e-14 0)
(3 -2.93193e-14 0)
(3 8.19669e-14 0)
(3 1.3202e-13 0)
(3 8.05078e-14 0)
(3 1.6694e-14 0)
(3 7.69433e-15 0)
(3 3.03798e-14 0)
(3 7.00879e-14 0)
(3 1.15682e-15 0)
(3 -3.23791e-14 0)
(3 -2.17577e-16 0)
(3 1.06739e-14 0)
(3 4.3538e-14 0)
(3 3.36998e-14 0)
(3 6.38196e-14 0)
(3 6.56318e-14 0)
(3 1.23044e-13 0)
(3 1.08645e-13 0)
(3 8.77113e-14 0)
(3 8.68971e-14 0)
(3 1.43913e-13 0)
(3 9.35987e-14 0)
(3 1.70438e-14 0)
(3 -4.75691e-15 0)
(3 -3.21231e-14 0)
(3.02747 0.0238388 0)
(1.12996 0.459374 0)
(0.725363 0.498439 0)
(0.673203 0.506939 0)
(0.647483 0.526676 0)
(0.626539 0.534517 0)
(0.607104 0.530015 0)
(0.578425 0.526723 0)
(0.542358 0.53719 0)
(0.503506 0.55888 0)
(0.465757 0.590147 0)
(0.429039 0.635724 0)
(0.390849 0.689711 0)
(0.347813 0.740342 0)
(0.293977 0.791106 0)
(0.211636 0.859466 0)
(0.131477 0.893503 0)
(3 2.91845e-15 0)
(3 2.18422e-14 0)
(3 1.59049e-14 0)
(3 -2.38784e-14 0)
(3 -8.3184e-14 0)
(3 -8.98041e-14 0)
(3 -3.04153e-14 0)
(3 4.04626e-14 0)
(3 1.763e-14 0)
(3 1.70706e-14 0)
(3 1.13395e-14 0)
(3 -4.09526e-14 0)
(3 -6.11829e-14 0)
(3 -1.68168e-14 0)
(3 1.44985e-14 0)
(3 -3.82436e-14 0)
(3 -7.03813e-14 0)
(3 -7.29969e-14 0)
(3 -3.71249e-14 0)
(3 2.06857e-14 0)
(3 5.13588e-14 0)
(3 1.16203e-13 0)
(3 4.54202e-14 0)
(3 3.45369e-14 0)
(3 1.03114e-13 0)
(3 1.10566e-13 0)
(3 6.53244e-14 0)
(3 -1.41737e-14 0)
(3 -1.2703e-13 0)
(3 -1.55011e-13 0)
(3 -1.48763e-13 0)
(3.00139 0.000184811 0)
(1.4474 0.512065 0)
(0.746962 0.551366 0)
(0.700305 0.536549 0)
(0.691351 0.546079 0)
(0.67955 0.552607 0)
(0.66254 0.550964 0)
(0.630429 0.552159 0)
(0.589528 0.571914 0)
(0.54229 0.604862 0)
(0.498826 0.643571 0)
(0.463877 0.693352 0)
(0.43723 0.751336 0)
(0.406633 0.804746 0)
(0.361265 0.893129 0)
(0.255654 1.03235 0)
(0.18734 1.14543 0)
(3 7.97823e-15 0)
(3 4.48598e-14 0)
(3 9.49262e-14 0)
(3 1.09616e-13 0)
(3 6.90768e-14 0)
(3 5.37333e-14 0)
(3 4.48793e-14 0)
(3 5.38933e-14 0)
(3 2.72568e-14 0)
(3 8.90606e-14 0)
(3 5.76293e-14 0)
(3 3.42779e-14 0)
(3 -9.12655e-15 0)
(3 -2.59941e-14 0)
(3 2.80867e-14 0)
(3 4.46587e-14 0)
(3 -1.57398e-16 0)
(3 -2.14581e-14 0)
(3 -1.09604e-14 0)
(3 3.28755e-14 0)
(3 -4.05647e-16 0)
(3 1.08696e-14 0)
(3 -1.60676e-14 0)
(3 -6.53435e-15 0)
(3 3.99585e-14 0)
(3 7.39943e-16 0)
(3 -1.51682e-15 0)
(3 -8.65173e-15 0)
(3 -7.87867e-15 0)
(3 -2.29004e-14 0)
(3 -7.05068e-14 0)
(3 1.08509e-08 0)
(2.04826 0.504237 0)
(0.846866 0.586208 0)
(0.759364 0.543014 0)
(0.748601 0.562399 0)
(0.729833 0.582442 0)
(0.70843 0.588452 0)
(0.66775 0.594475 0)
(0.615979 0.619199 0)
(0.570235 0.658044 0)
(0.534391 0.696924 0)
(0.509657 0.74188 0)
(0.497755 0.802326 0)
(0.475064 0.873678 0)
(0.467654 1.01035 0)
(0.464762 1.19418 0)
(0.610618 1.48764 0)
(3 -1.25841e-14 0)
(3 2.78583e-15 0)
(3 4.38746e-14 0)
(3 6.7351e-14 0)
(3 1.5512e-13 0)
(3 1.93388e-13 0)
(3 1.82321e-13 0)
(3 1.49286e-13 0)
(3 9.4824e-14 0)
(3 4.95516e-14 0)
(3 -3.08666e-14 0)
(3 -1.50852e-14 0)
(3 3.84331e-14 0)
(3 -1.43829e-14 0)
(3 -1.6854e-14 0)
(3 4.29798e-15 0)
(3 4.14291e-14 0)
(3 2.75196e-14 0)
(3 3.70998e-14 0)
(3 5.31031e-14 0)
(3 8.20132e-14 0)
(3 6.45291e-14 0)
(3 -1.12451e-14 0)
(3 -3.46699e-14 0)
(3 -5.76448e-14 0)
(3 -1.6004e-15 0)
(3 -1.89575e-14 0)
(3 7.55283e-15 0)
(3 6.47335e-14 0)
(3 5.90458e-14 0)
(3 4.09937e-15 0)
(3 -1.90142e-12 0)
(2.80634 0.259968 0)
(1.03148 0.593611 0)
(0.810913 0.569071 0)
(0.780912 0.605771 0)
(0.739016 0.629121 0)
(0.710058 0.640197 0)
(0.679602 0.647485 0)
(0.645031 0.665542 0)
(0.613906 0.696586 0)
(0.589773 0.734638 0)
(0.572227 0.780038 0)
(0.573482 0.847531 0)
(0.572137 0.937195 0)
(0.60689 1.07418 0)
(0.705133 1.24713 0)
(1.03197 1.47821 0)
(3 1.11932e-15 0)
(3 -1.01755e-14 0)
(3 -3.45922e-15 0)
(3 2.31515e-14 0)
(3 4.91013e-14 0)
(3 7.2004e-14 0)
(3 5.40488e-14 0)
(3 1.94066e-14 0)
(3 1.27346e-14 0)
(3 -3.19452e-15 0)
(3 -4.25771e-14 0)
(3 -4.89056e-14 0)
(3 -4.24292e-14 0)
(3 -1.34197e-14 0)
(3 -5.16886e-14 0)
(3 -3.21494e-14 0)
(3 -8.21862e-15 0)
(3 1.98235e-14 0)
(3 3.12824e-14 0)
(3 3.32547e-14 0)
(3 7.35712e-14 0)
(3 7.55426e-14 0)
(3 3.35732e-14 0)
(3 -1.06268e-14 0)
(3 -4.78249e-15 0)
(3 -2.28593e-14 0)
(3 -4.7973e-14 0)
(3 -3.95746e-15 0)
(3 1.03993e-14 0)
(3 -3.48994e-15 0)
(3 2.65545e-14 0)
(3 -2.73203e-13 0)
(3.0466 0.0234787 0)
(1.24008 0.5773 0)
(0.805727 0.607838 0)
(0.767429 0.652853 0)
(0.739785 0.673081 0)
(0.728048 0.680075 0)
(0.716707 0.683299 0)
(0.695473 0.699392 0)
(0.674589 0.727896 0)
(0.660736 0.766831 0)
(0.647541 0.811972 0)
(0.658733 0.882852 0)
(0.67571 0.974157 0)
(0.743881 1.09172 0)
(0.904097 1.24391 0)
(1.25335 1.38734 0)
(3 -1.64024e-15 0)
(3 -3.60588e-14 0)
(3 -3.2707e-14 0)
(3 1.38137e-14 0)
(3 2.97543e-14 0)
(3 2.80835e-14 0)
(3 4.38494e-14 0)
(3 -2.82987e-14 0)
(3 -5.46562e-14 0)
(3 3.40015e-15 0)
(3 4.46552e-14 0)
(3 5.9368e-14 0)
(3 -2.27806e-14 0)
(3 -1.14091e-14 0)
(3 5.54541e-15 0)
(3 2.59889e-14 0)
(3 2.14096e-14 0)
(3 2.92478e-14 0)
(3 1.09301e-14 0)
(3 -2.9312e-14 0)
(3 -3.22472e-14 0)
(3 -8.08528e-14 0)
(3 -6.44059e-14 0)
(3 -1.58993e-14 0)
(3 2.8812e-14 0)
(3 -3.24527e-14 0)
(3 -7.59733e-14 0)
(3 -8.54565e-14 0)
(3 -6.86917e-14 0)
(3 -4.85246e-14 0)
(3 2.08561e-14 0)
(3 3.41039e-14 0)
(3.00129 0.000140058 0)
(1.77271 0.594429 0)
(0.851059 0.655143 0)
(0.787557 0.680941 0)
(0.769735 0.700774 0)
(0.765565 0.703439 0)
(0.76808 0.704321 0)
(0.76025 0.71864 0)
(0.745548 0.74768 0)
(0.736352 0.793081 0)
(0.723414 0.84157 0)
(0.738934 0.911902 0)
(0.774091 0.992969 0)
(0.863502 1.09018 0)
(1.04259 1.20649 0)
(1.34189 1.29952 0)
(3 -6.62297e-15 0)
(3 1.75427e-14 0)
(3 1.91934e-14 0)
(3 -9.1886e-15 0)
(3 -4.83009e-16 0)
(3 6.30767e-15 0)
(3 3.52088e-14 0)
(3 1.04969e-14 0)
(3 -2.34791e-14 0)
(3 -2.52455e-14 0)
(3 1.27786e-13 0)
(3 1.38152e-13 0)
(3 6.15438e-14 0)
(3 1.2441e-15 0)
(3 3.65807e-14 0)
(3 5.52768e-14 0)
(3 3.73605e-14 0)
(3 -8.89493e-15 0)
(3 -3.40524e-14 0)
(3 -8.44331e-14 0)
(3 -1.00656e-13 0)
(3 -1.39363e-13 0)
(3 -1.34517e-13 0)
(3 -6.07937e-14 0)
(3 -2.8347e-14 0)
(3 -2.71395e-14 0)
(3 -9.22514e-14 0)
(3 -1.87118e-13 0)
(3 -1.60773e-13 0)
(3 -8.25976e-14 0)
(3 5.87312e-16 0)
(3 4.04567e-15 0)
(3 1.20327e-07 0)
(2.66052 0.364417 0)
(1.03679 0.683665 0)
(0.851755 0.69338 0)
(0.828822 0.717872 0)
(0.81679 0.722929 0)
(0.820095 0.721567 0)
(0.815573 0.739649 0)
(0.801392 0.774368 0)
(0.794675 0.825506 0)
(0.789562 0.873218 0)
(0.808632 0.933515 0)
(0.860839 1.00291 0)
(0.96431 1.08463 0)
(1.13438 1.16788 0)
(1.38625 1.22888 0)
(3 1.99265e-14 0)
(3 4.93038e-14 0)
(3 4.91976e-14 0)
(3 1.11949e-14 0)
(3 -2.72034e-15 0)
(3 -6.12535e-15 0)
(3 -3.00591e-14 0)
(3 -3.26776e-14 0)
(3 -5.12852e-14 0)
(3 -4.87303e-14 0)
(3 -2.27096e-14 0)
(3 -1.54377e-15 0)
(3 1.37594e-14 0)
(3 6.30658e-14 0)
(3 8.33127e-14 0)
(3 7.97297e-14 0)
(3 5.0929e-14 0)
(3 1.44964e-14 0)
(3 -3.36468e-14 0)
(3 -4.69188e-14 0)
(3 -4.79197e-14 0)
(3 -4.60947e-14 0)
(3 -3.33633e-14 0)
(3 -1.71585e-14 0)
(3 -1.6874e-14 0)
(3 -2.40636e-14 0)
(3 -2.54763e-14 0)
(3 -9.85001e-14 0)
(3 -1.23045e-13 0)
(3 -3.25596e-14 0)
(3 6.29291e-14 0)
(3 4.50848e-14 0)
(3 7.54919e-12 0)
(3.06794 0.038815 0)
(1.30544 0.665143 0)
(0.889816 0.739773 0)
(0.859282 0.758122 0)
(0.844954 0.761348 0)
(0.847407 0.759532 0)
(0.84733 0.774411 0)
(0.843154 0.80124 0)
(0.845194 0.844212 0)
(0.851993 0.890261 0)
(0.876905 0.941296 0)
(0.935266 0.997611 0)
(1.03999 1.06233 0)
(1.19346 1.12086 0)
(1.39908 1.15959 0)
(3 4.46179e-15 0)
(3 2.26894e-14 0)
(3 -1.16874e-14 0)
(3 -2.81092e-14 0)
(3 -3.91024e-14 0)
(3 -4.5922e-14 0)
(3 -5.00359e-14 0)
(3 -6.16309e-14 0)
(3 -1.02889e-13 0)
(3 -1.00513e-13 0)
(3 -8.73354e-14 0)
(3 -6.82547e-14 0)
(3 -3.65319e-14 0)
(3 -1.91346e-14 0)
(3 -4.93844e-15 0)
(3 4.78918e-14 0)
(3 6.92421e-14 0)
(3 5.44656e-14 0)
(3 -6.03736e-14 0)
(3 -1.1599e-13 0)
(3 -1.05687e-13 0)
(3 -4.59231e-14 0)
(3 7.39731e-14 0)
(3 1.01023e-13 0)
(3 6.52572e-14 0)
(3 6.62808e-14 0)
(3 1.04534e-13 0)
(3 8.59863e-14 0)
(3 4.64528e-14 0)
(3 8.43681e-14 0)
(3 2.64184e-14 0)
(3 -1.44646e-14 0)
(3 -2.41755e-13 0)
(3.00306 0.000300264 0)
(1.91017 0.644181 0)
(0.955122 0.781595 0)
(0.903386 0.761591 0)
(0.889831 0.773463 0)
(0.8886 0.779809 0)
(0.889393 0.796112 0)
(0.888091 0.822309 0)
(0.894321 0.859885 0)
(0.910035 0.901123 0)
(0.943383 0.946174 0)
(1.00543 0.993504 0)
(1.10521 1.04356 0)
(1.24237 1.08712 0)
(1.41067 1.11327 0)
(3 -1.27686e-14 0)
(3 -2.72553e-14 0)
(3 -2.21462e-14 0)
(3 -1.33898e-14 0)
(3 -5.56845e-14 0)
(3 -5.44355e-14 0)
(3 -4.85537e-14 0)
(3 -3.99444e-14 0)
(3 -3.97025e-14 0)
(3 -5.36386e-14 0)
(3 -4.62431e-14 0)
(3 1.72018e-15 0)
(3 3.67721e-14 0)
(3 7.3909e-16 0)
(3 -2.72274e-14 0)
(3 -2.17945e-14 0)
(3 -1.63022e-14 0)
(3 -3.1098e-14 0)
(3 -3.42684e-14 0)
(3 -1.16953e-13 0)
(3 -1.73198e-13 0)
(3 -1.47752e-13 0)
(3 -1.41132e-14 0)
(3 -3.48443e-15 0)
(3 -3.39382e-15 0)
(3 2.86294e-14 0)
(3 6.6428e-14 0)
(3 8.19999e-14 0)
(3 1.02921e-13 0)
(3 8.49717e-14 0)
(3 -2.16034e-14 0)
(3 -1.25582e-13 0)
(3 -3.26273e-13 0)
(3 3.95976e-07 0)
(2.89558 0.257627 0)
(1.19211 0.773806 0)
(0.979815 0.785562 0)
(0.951237 0.791163 0)
(0.928991 0.806334 0)
(0.921559 0.829334 0)
(0.923917 0.854624 0)
(0.938608 0.884188 0)
(0.965657 0.912617 0)
(1.00551 0.944986 0)
(1.06874 0.981763 0)
(1.15985 1.01804 0)
(1.27855 1.04996 0)
(1.42126 1.07009 0)
(3 -2.1031e-15 0)
(3 -4.13004e-14 0)
(3 -4.61898e-14 0)
(3 -4.17701e-14 0)
(3 -4.76818e-14 0)
(3 -4.15953e-14 0)
(3 -7.33578e-14 0)
(3 -1.10324e-13 0)
(3 -5.52661e-14 0)
(3 -2.11252e-14 0)
(3 1.15167e-14 0)
(3 1.95557e-14 0)
(3 3.87808e-14 0)
(3 3.06858e-14 0)
(3 -3.91633e-14 0)
(3 -7.47583e-14 0)
(3 -7.60064e-14 0)
(3 -6.90334e-14 0)
(3 -5.41376e-14 0)
(3 -7.82248e-14 0)
(3 -4.97467e-14 0)
(3 -1.54335e-14 0)
(3 -8.92436e-14 0)
(3 -7.57491e-14 0)
(3 -5.36219e-14 0)
(3 -3.51731e-14 0)
(3 2.64298e-14 0)
(3 2.25303e-14 0)
(3 4.0007e-14 0)
(3 -8.36752e-15 0)
(3 -3.44548e-14 0)
(3 -5.47115e-14 0)
(3 -5.71666e-14 0)
(3 -3.91653e-09 0)
(3.03656 0.0118497 0)
(1.56593 0.744412 0)
(1.00541 0.839517 0)
(0.974682 0.835936 0)
(0.959739 0.846935 0)
(0.962302 0.85252 0)
(0.970677 0.869026 0)
(0.989532 0.889062 0)
(1.02176 0.913056 0)
(1.06505 0.9412 0)
(1.12632 0.973861 0)
(1.20945 1.00417 0)
(1.31214 1.02997 0)
(1.43443 1.04556 0)
(3 -5.09864e-15 0)
(3 -1.2514e-14 0)
(3 -5.95485e-14 0)
(3 -8.53902e-14 0)
(3 -6.35677e-14 0)
(3 -9.30121e-14 0)
(3 -1.14497e-13 0)
(3 -1.3217e-13 0)
(3 -9.05837e-14 0)
(3 -4.30188e-14 0)
(3 -2.31807e-14 0)
(3 -3.19323e-14 0)
(3 -7.67426e-14 0)
(3 -5.50194e-14 0)
(3 -8.43324e-14 0)
(3 -1.34908e-13 0)
(3 -1.13949e-13 0)
(3 -1.43949e-13 0)
(3 -1.2681e-13 0)
(3 -1.07054e-13 0)
(3 1.50968e-14 0)
(3 9.94992e-14 0)
(3 3.0325e-15 0)
(3 -1.29439e-14 0)
(3 3.74901e-15 0)
(3 2.09477e-14 0)
(3 -9.45e-15 0)
(3 1.02298e-14 0)
(3 -1.48698e-14 0)
(3 -9.68033e-14 0)
(3 -4.63801e-14 0)
(3 6.68758e-15 0)
(3 2.43831e-14 0)
(3 -2.35863e-10 0)
(3.00046 9.11101e-05 0)
(2.52156 0.48912 0)
(1.15289 0.83475 0)
(1.03396 0.849011 0)
(1.01858 0.86168 0)
(1.01186 0.879241 0)
(1.01799 0.893575 0)
(1.0366 0.909609 0)
(1.07187 0.926938 0)
(1.11784 0.94473 0)
(1.17723 0.965523 0)
(1.25073 0.98691 0)
(1.33952 1.0065 0)
(1.44576 1.01991 0)
(3 2.27752e-15 0)
(3 1.84906e-14 0)
(3 4.95584e-15 0)
(3 4.26608e-15 0)
(3 3.07324e-14 0)
(3 1.43871e-15 0)
(3 -1.6882e-14 0)
(3 -1.591e-14 0)
(3 -2.06622e-14 0)
(3 1.26667e-14 0)
(3 -1.65286e-14 0)
(3 -2.59676e-14 0)
(3 -5.35718e-14 0)
(3 -5.29783e-14 0)
(3 -4.49818e-14 0)
(3 -9.43958e-14 0)
(3 -1.21938e-13 0)
(3 -7.81501e-14 0)
(3 -7.00947e-14 0)
(3 -1.76227e-14 0)
(3 1.91457e-14 0)
(3 2.01828e-14 0)
(3 -1.87716e-14 0)
(3 -3.59558e-14 0)
(3 2.02911e-14 0)
(3 5.20797e-14 0)
(3 4.82779e-14 0)
(3 1.76601e-14 0)
(3 -1.01088e-14 0)
(3 -1.16588e-13 0)
(3 -1.14502e-13 0)
(3 -4.22502e-14 0)
(3 -2.13658e-14 0)
(3 -2.48473e-11 0)
(3 4.48989e-08 0)
(3.06509 0.053928 0)
(1.48143 0.801897 0)
(1.07147 0.898332 0)
(1.05518 0.90319 0)
(1.04958 0.918389 0)
(1.06353 0.920841 0)
(1.08815 0.92011 0)
(1.12248 0.926628 0)
(1.16618 0.940007 0)
(1.22103 0.959361 0)
(1.28569 0.981324 0)
(1.36406 0.99928 0)
(1.45643 1.00941 0)
(3 -2.62315e-15 0)
(3 1.20065e-14 0)
(3 4.42193e-14 0)
(3 4.31716e-14 0)
(3 3.20503e-14 0)
(3 3.88208e-14 0)
(3 3.23166e-14 0)
(3 3.09095e-14 0)
(3 3.47351e-14 0)
(3 -2.1272e-14 0)
(3 -5.10444e-14 0)
(3 -4.34186e-14 0)
(3 -4.46538e-14 0)
(3 -5.9451e-14 0)
(3 -5.04608e-14 0)
(3 -4.86152e-14 0)
(3 -3.81958e-14 0)
(3 4.32691e-14 0)
(3 9.15335e-14 0)
(3 8.40236e-14 0)
(3 -5.84428e-15 0)
(3 -1.0979e-13 0)
(3 -1.10368e-13 0)
(3 -7.3407e-14 0)
(3 -3.80246e-14 0)
(3 -5.03915e-14 0)
(3 -8.0367e-14 0)
(3 -9.44779e-14 0)
(3 -5.95056e-14 0)
(3 -5.15066e-14 0)
(3 -1.12536e-13 0)
(3 -1.26821e-13 0)
(3 -5.07042e-14 0)
(3 -3.9085e-13 0)
(3 -4.82738e-11 0)
(3.0034 0.000849109 0)
(2.34983 0.596749 0)
(1.19332 0.90629 0)
(1.10596 0.910979 0)
(1.10719 0.914487 0)
(1.11373 0.931407 0)
(1.13225 0.941134 0)
(1.16298 0.948543 0)
(1.20407 0.957074 0)
(1.25542 0.968367 0)
(1.31603 0.979619 0)
(1.38727 0.988317 0)
(1.46982 0.992927 0)
(3 -8.21301e-15 0)
(3 -1.30661e-14 0)
(3 -3.01798e-15 0)
(3 9.64695e-15 0)
(3 1.99676e-14 0)
(3 2.89943e-14 0)
(3 2.44494e-14 0)
(3 3.0181e-14 0)
(3 1.89215e-14 0)
(3 -5.67596e-14 0)
(3 -1.11255e-13 0)
(3 -1.28077e-13 0)
(3 -6.57954e-14 0)
(3 1.53795e-14 0)
(3 3.33736e-14 0)
(3 4.71807e-14 0)
(3 1.03935e-13 0)
(3 7.10303e-14 0)
(3 2.98726e-14 0)
(3 -1.35587e-14 0)
(3 -2.82492e-14 0)
(3 -8.68338e-14 0)
(3 -6.75744e-14 0)
(3 -9.8933e-14 0)
(3 -1.55288e-13 0)
(3 -1.69886e-13 0)
(3 -1.5709e-13 0)
(3 -6.02701e-14 0)
(3 -2.44323e-14 0)
(3 -1.07635e-14 0)
(3 -3.4488e-14 0)
(3 -2.06501e-14 0)
(3 3.36441e-14 0)
(3 -1.16905e-13 0)
(3 -2.43378e-11 0)
(3 2.11252e-06 0)
(3.05469 0.0863101 0)
(1.53212 0.866648 0)
(1.14577 0.949576 0)
(1.14679 0.950673 0)
(1.15509 0.957598 0)
(1.17317 0.959477 0)
(1.20395 0.958235 0)
(1.24363 0.961666 0)
(1.29136 0.969998 0)
(1.34414 0.980936 0)
(1.40547 0.990309 0)
(1.47945 0.993702 0)
(3 6.0157e-15 0)
(3 -1.56287e-14 0)
(3 -4.78891e-14 0)
(3 -1.41879e-14 0)
(3 3.35507e-14 0)
(3 5.80223e-14 0)
(3 9.54407e-14 0)
(3 8.46917e-14 0)
(3 5.65954e-14 0)
(3 1.93435e-14 0)
(3 3.99554e-16 0)
(3 3.44865e-14 0)
(3 7.20553e-14 0)
(3 7.16247e-14 0)
(3 1.03506e-13 0)
(3 6.08914e-14 0)
(3 2.01753e-14 0)
(3 2.21094e-14 0)
(3 -6.84059e-14 0)
(3 -9.75923e-14 0)
(3 -3.70372e-14 0)
(3 2.05638e-14 0)
(3 -7.18507e-15 0)
(3 -7.65352e-14 0)
(3 -8.59344e-14 0)
(3 -1.03493e-13 0)
(3 -1.80069e-14 0)
(3 3.88267e-14 0)
(3 1.83586e-14 0)
(3 2.1598e-14 0)
(3 2.65651e-14 0)
(3 6.50695e-14 0)
(3 -4.68907e-14 0)
(3 8.85985e-14 0)
(3 -1.0853e-12 0)
(3 2.13942e-10 0)
(3.00524 0.00199844 0)
(2.44457 0.597332 0)
(1.28779 0.956167 0)
(1.19444 0.948767 0)
(1.21046 0.950247 0)
(1.21964 0.966953 0)
(1.24029 0.979489 0)
(1.27297 0.987626 0)
(1.31596 0.992221 0)
(1.36545 0.994443 0)
(1.42401 0.992913 0)
(1.49353 0.988332 0)
(3 1.1081e-14 0)
(3 3.54138e-15 0)
(3 -1.24214e-15 0)
(3 -6.25807e-15 0)
(3 -3.88868e-15 0)
(3 8.05742e-14 0)
(3 1.2172e-13 0)
(3 1.49626e-13 0)
(3 1.39511e-13 0)
(3 8.71116e-14 0)
(3 1.18677e-13 0)
(3 1.47378e-13 0)
(3 1.50284e-13 0)
(3 1.54805e-13 0)
(3 1.59153e-13 0)
(3 1.25388e-13 0)
(3 4.74986e-14 0)
(3 5.69196e-14 0)
(3 2.95481e-14 0)
(3 -6.19368e-15 0)
(3 5.29003e-14 0)
(3 6.1982e-14 0)
(3 -1.94219e-14 0)
(3 -4.10014e-14 0)
(3 -5.19862e-14 0)
(3 -8.70541e-14 0)
(3 -4.71383e-14 0)
(3 -3.80662e-14 0)
(3 -4.77563e-15 0)
(3 8.95637e-14 0)
(3 1.48653e-13 0)
(3 1.01307e-13 0)
(3 2.95583e-15 0)
(3 3.82729e-14 0)
(3 2.43499e-14 0)
(3 6.02032e-14 0)
(3.00001 7.82208e-06 0)
(3.04699 0.0694809 0)
(1.68134 0.894875 0)
(1.22984 0.989791 0)
(1.23101 0.987572 0)
(1.249 0.990811 0)
(1.2762 0.988388 0)
(1.3091 0.988649 0)
(1.34792 0.994382 0)
(1.39143 0.999857 0)
(1.44238 1.00084 0)
(1.50428 0.997541 0)
(3 6.43964e-15 0)
(3 2.29734e-14 0)
(3 2.46938e-14 0)
(3 -1.75741e-14 0)
(3 -2.37838e-14 0)
(3 -7.80719e-15 0)
(3 3.63004e-15 0)
(3 4.98541e-15 0)
(3 -3.89285e-15 0)
(3 7.36874e-14 0)
(3 6.27159e-14 0)
(3 -1.51362e-15 0)
(3 -2.90439e-14 0)
(3 -1.15629e-14 0)
(3 4.61347e-14 0)
(3 9.72017e-14 0)
(3 9.37254e-14 0)
(3 7.687e-14 0)