/*--------------------------------*- C++ -*----------------------------------*\
  =========                 |
  \\      /  F ield         | OpenFOAM: The Open Source CFD Toolbox
   \\    /   O peration     | Website:  https://openfoam.org
    \\  /    A nd           | Version:  10
     \\/     M anipulation  |
\*---------------------------------------------------------------------------*/
FoamFile
{
    format      ascii;
    class       surfaceScalarField;
    location    "63";
    object      phi;
}
// * * * * * * * * * * * * * * * * * * * * * * * * * * * * * * * * * * * * * //

dimensions      [0 3 -1 0 0 0 0];

internalField   nonuniform List<scalar> 
17370
(
-0.0916063
0.0960093
0.284608
-0.0775945
0.0594197
0.36495
-0.0430419
0.0316221
0.427588
-0.0223183
0.016266
0.505304
-0.0116734
0.00880021
0.602275
-0.00658989
0.00510559
0.720542
-0.0038691
0.0029889
0.863787
-0.00221577
0.00163715
1.03603
-0.00110495
0.000683213
1.24292
-0.000271153
-0.000123412
1.49159
0.000512456
-0.000927181
1.49161
0.00133249
-0.00183756
1.2432
0.00238764
-0.00312939
1.03638
0.00398518
-0.00520253
0.864124
0.00667573
-0.00887689
0.721259
0.0117401
-0.0163178
0.603792
0.0223546
-0.0316411
0.508726
0.0430421
-0.0594087
0.432535
0.0775876
-0.096003
0.365191
0.0916211
0.19739
-0.127092
0.088024
0.039068
-0.364357
0.354031
-0.0714741
0.0817995
-0.446654
0.454256
-0.0791685
0.0715666
-0.521012
0.529111
-0.0637128
0.0556131
-0.612992
0.620761
-0.0482255
0.0404558
-0.727165
0.733686
-0.0338439
0.027323
-0.867582
0.872435
-0.0221186
0.0172654
-1.03857
1.04191
-0.0135655
0.0102243
-1.24472
1.24713
-0.00767144
0.00526292
-1.49284
1.49486
-0.00329609
0.00127859
-1.49269
1.49452
0.000543326
-0.00236583
-1.2441
1.24602
0.00434144
-0.00625457
-1.03761
1.04008
0.0085908
-0.0110691
-0.866186
0.869812
0.014325
-0.0179504
-0.724593
0.729745
0.0227332
-0.0278847
-0.609063
0.615631
0.0343556
-0.0409235
-0.515122
0.522457
0.048642
-0.0559766
-0.43988
0.447656
0.0639971
-0.0717733
-0.374705
0.377355
0.079265
-0.0819146
-0.256895
0.224432
0.0715642
-0.0391013
-0.0688134
0.0592028
0.00961055
-0.0521004
0.0589247
-0.37484
0.368016
-0.0580754
0.054232
-0.453949
0.457792
-0.0487441
0.0441838
-0.527621
0.532181
-0.0396331
0.0357363
-0.620806
0.624703
-0.0315218
0.0275245
-0.734664
0.738662
-0.0231644
0.0192737
-0.873961
0.877851
-0.0152244
0.0117635
-1.04337
1.04683
-0.0082397
0.00520301
-1.24865
1.25169
-0.00199103
-0.000993865
-1.49695
1.49993
0.00395642
-0.00710719
-1.49742
1.50057
0.0100539
-0.0134553
-1.25006
1.25346
0.0167903
-0.0206942
-1.04564
1.04955
0.0244562
-0.0286886
-0.87713
0.881362
0.0325833
-0.0366973
-0.738975
0.743089
0.0405115
-0.044981
-0.625964
0.630433
0.0494732
-0.0548944
-0.53501
0.540432
0.0586604
-0.0594178
-0.45807
0.458827
0.0524659
-0.0320716
-0.336754
0.31636
0.00967565
-0.0686563
0.0589807
-0.0534153
0.0493056
0.00410973
-0.0332314
0.0436496
-0.358574
0.348155
-0.047321
0.0467312
-0.459588
0.460177
-0.0438003
0.0405858
-0.536141
0.539355
-0.0369067
0.0335499
-0.628406
0.631763
-0.0299132
0.0266686
-0.742046
0.745291
-0.0232108
0.0200083
-0.88135
0.884552
-0.0164093
0.0130519
-1.05026
1.05362
-0.00934668
0.00593665
-1.25496
1.25837
-0.0021406
-0.0014796
-1.50328
1.5069
0.00506788
-0.0087713
-1.50406
1.50776
0.0120548
-0.0155865
-1.25702
1.26055
0.0187653
-0.0221575
-1.05325
1.05664
0.0251764
-0.0284515
-0.884967
0.888242
0.0315489
-0.035041
-0.746768
0.75026
0.0382758
-0.0418281
-0.634548
0.638101
0.0449328
-0.0477403
-0.54457
0.547377
0.048202
-0.0443525
-0.456937
0.453088
0.0337156
-0.01639
-0.297033
0.279707
0.00418179
-0.0531279
0.0489461
-0.0461383
0.043585
0.00255326
-0.0230311
0.0333722
-0.337571
0.32723
-0.0390983
0.0400419
-0.459932
0.458989
-0.038786
0.0364544
-0.542016
0.544347
-0.0338082
0.0312579
-0.634736
0.637286
-0.0282759
0.0254226
-0.748381
0.751235
-0.0221782
0.0191579
-0.887613
0.890634
-0.0157995
0.0126586
-1.0568
1.05994
-0.00909426
0.00568777
-1.26176
1.26517
-0.0017715
-0.00202966
-1.51064
1.51444
0.00578955
-0.0095809
-1.51154
1.51533
0.0128198
-0.0161568
-1.264
1.26734
0.0190639
-0.0221525
-1.05985
1.06293
0.0249302
-0.027928
-0.891431
0.894429
0.0305786
-0.0333601
-0.753433
0.756214
0.035743
-0.0382198
-0.641047
0.643524
0.0404064
-0.0414717
-0.549205
0.55027
0.0403294
-0.0343132
-0.447952
0.441936
0.0236531
-0.0103887
-0.264505
0.251241
0.00264262
-0.0456982
0.0430555
-0.0414694
0.0396719
0.00179747
-0.0169238
0.0261972
-0.317372
0.308098
-0.0327813
0.0348929
-0.457435
0.455324
-0.0344506
0.0327455
-0.546383
0.548088
-0.0305107
0.0283759
-0.639605
0.641739
-0.0259299
0.023543
-0.753843
0.756229
-0.0207182
0.0179623
-0.893498
0.896254
-0.0147675
0.0117235
-1.06299
1.06603
-0.0082488
0.00492536
-1.2685
1.27182
-0.00107896
-0.00267219
-1.51821
1.52196
0.0063701
-0.0100587
-1.51907
1.52276
0.0131694
-0.0163553
-1.2706
1.27379
0.0191018
-0.0219503
-1.06595
1.0688
0.0243924
-0.0268983
-0.897205
0.899711
0.0290244
-0.0312141
-0.758646
0.760835
0.0331359
-0.0351522
-0.645742
0.647758
0.0366461
-0.0368281
-0.550841
0.551023
0.0344111
-0.027402
-0.435328
0.428319
0.0177007
-0.00749239
-0.239646
0.229438
0.00190693
-0.0408411
0.0389342
-0.0381254
0.0367773
0.00134811
-0.0129204
0.020904
-0.299472
0.291489
-0.0276551
0.0305646
-0.45278
0.449871
-0.0307604
0.0296264
-0.549534
0.550668
-0.0276176
0.0256814
-0.643806
0.645742
-0.0234579
0.0213054
-0.758482
0.760635
-0.0187846
0.0163044
-0.898814
0.901295
-0.0133712
0.0105042
-1.06894
1.07181
-0.0071627
0.00393682
-1.27506
1.27829
-0.000195854
-0.00343869
-1.52563
1.52926
0.00700711
-0.0105498
-1.52637
1.52991
0.0135098
-0.0164901
-1.27689
1.27987
0.0189841
-0.0214823
-1.07152
1.07402
0.0235695
-0.0256904
-0.902012
0.904133
0.0275137
-0.0294113
-0.762866
0.764763
0.0310782
-0.0328252
-0.649616
0.651363
0.0336506
-0.0330915
-0.550836
0.550277
0.0297452
-0.0224117
-0.42109
0.413756
0.0138784
-0.00579503
-0.220393
0.21231
0.00148164
-0.0372672
0.0357855
-0.0356002
0.0345631
0.0010371
-0.0100913
0.0168468
-0.284143
0.277387
-0.0233445
0.0267138
-0.44671
0.443341
-0.0274846
0.0267817
-0.551579
0.552281
-0.0250052
0.0232115
-0.647646
0.649439
-0.0211368
0.0191187
-0.76272
0.764738
-0.016744
0.0144135
-0.903636
0.905967
-0.0116722
0.00898441
-1.07452
1.07721
-0.00582283
0.00273812
-1.2814
1.28449
0.000861897
-0.00436084
-1.5328
1.5363
0.00777737
-0.011133
-1.53335
1.5367
0.0138885
-0.0166039
-1.28273
1.28545
0.0188325
-0.0210375
-1.0764
1.07861
0.0228812
-0.0247592
-0.906146
0.908024
0.0263685
-0.0280387
-0.766539
0.768209
0.0294987
-0.0309146
-0.652961
0.654377
0.0312327
-0.0299457
-0.549369
0.548082
0.0259745
-0.0187106
-0.406433
0.399169
0.0112649
-0.00467151
-0.205042
0.198449
0.00119944
-0.0344619
0.0332624
-0.0336524
0.0328454
0.000807003
-0.00799419
0.0136736
-0.271198
0.265518
-0.0196922
0.0232642
-0.439859
0.436287
-0.0245158
0.0240603
-0.552891
0.553346
-0.0225556
0.0208713
-0.651227
0.652911
-0.0188927
0.0169644
-0.766709
0.768637
-0.0146912
0.0124567
-0.908187
0.910421
-0.00982446
0.00725109
-1.07976
1.08234
-0.00423584
0.00129214
-1.28745
1.29039
0.0021427
-0.00547578
-1.53969
1.54302
0.00870908
-0.0118449
-1.53993
1.54307
0.0143834
-0.0168536
-1.28805
1.29052
0.0188645
-0.0208374
-1.08075
1.08272
0.0224734
-0.0241362
-0.909814
0.911477
0.0255627
-0.0270436
-0.769776
0.771257
0.0283123
-0.0293505
-0.655583
0.656621
0.0292973
-0.0273414
-0.546466
0.54451
0.0229656
-0.0159646
-0.392033
0.385032
0.00942828
-0.00389477
-0.192437
0.186903
0.00100429
-0.0321734
0.0311692
-0.0321361
0.0315068
0.000629317
-0.00637883
0.0111383
-0.260326
0.255566
-0.0165698
0.0201471
-0.432709
0.429132
-0.0217263
0.0214979
-0.553722
0.55395
-0.0202275
0.0186059
-0.654611
0.656232
-0.0166848
0.0148074
-0.770536
0.772414
-0.0125954
0.0104229
-0.912552
0.914724
-0.0078652
0.0053678
-1.0848
1.08729
-0.00244945
-0.000377979
-1.29322
1.29605
0.0036666
-0.00683245
-1.54624
1.5494
0.00987477
-0.0127947
-1.54607
1.54899
0.0151369
-0.0173946
-1.29289
1.29514
0.0192096
-0.0209643
-1.08466
1.08641
0.0224042
-0.0238676
-0.913063
0.914526
0.0251284
-0.0264362
-0.772644
0.773952
0.0275583
-0.0281788
-0.65744
0.658061
0.0277557
-0.0252372
-0.54229
0.539771
0.0206137
-0.0139442
-0.378207
0.371538
0.00812809
-0.00335277
-0.181788
0.177013
0.000868919
-0.0302433
0.0293744
-0.0309568
0.0304712
0.000485652
-0.00508036
0.00904662
-0.251228
0.247262
-0.0138452
0.0172782
-0.425632
0.422199
-0.0190444
0.0190083
-0.554121
0.554158
-0.017937
0.0163515
-0.657899
0.659484
-0.0144554
0.012595
-0.774276
0.776136
-0.0104034
0.00825634
-0.916801
0.918948
-0.00573817
0.00329011
-1.08968
1.09213
-0.000443218
-0.0023064
-1.29878
1.30153
0.00547015
-0.00848437
-1.55245
1.55547
0.0113487
-0.0140659
-1.55178
1.5545
0.0162194
-0.0182675
-1.2973
1.29935
0.0198892
-0.021432
-1.08815
1.08969
0.022688
-0.0239707
-0.915925
0.917207
0.0250841
-0.026235
-0.77517
0.776321
0.0271695
-0.0274111
-0.658483
0.658725
0.0265926
-0.0235986
-0.537031
0.534037
0.0188268
-0.012482
-0.36505
0.358705
0.0072157
-0.00297925
-0.17254
0.168304
0.00077719
-0.0285614
0.0277843
-0.0300528
0.0296885
0.000364314
-0.00399384
0.00726356
-0.243666
0.240397
-0.0114171
0.0145955
-0.418905
0.415727
-0.0164227
0.0165418
-0.554162
0.554043
-0.0155561
0.0140445
-0.661108
0.662619
-0.0121459
0.0102709
-0.777993
0.779868
-0.00806314
0.00590784
-0.921004
0.923159
-0.00339305
0.000961043
-1.09447
1.09691
0.00184986
-0.00454119
-1.30418
1.30687
0.00761018
-0.0104984
-1.55837
1.56126
0.0132056
-0.0157341
-1.55709
1.55962
0.017706
-0.0195499
-1.3013
1.30314
0.020983
-0.0223174
-1.09123
1.09257
0.0233922
-0.0244988
-0.91843
0.919536
0.0254673
-0.026449
-0.777378
0.77836
0.0271261
-0.0270764
-0.658838
0.658789
0.0258296
-0.022414
-0.530848
0.527432
0.0175392
-0.0114656
-0.352522
0.346448
0.00659914
-0.00273345
-0.164283
0.160417
0.000718853
-0.0270463
0.0263275
-0.029384
0.0291277
0.000256261
-0.00304273
0.00568423
-0.237461
0.234819
-0.00919299
0.0120338
-0.412734
0.409893
-0.0138083
0.0140122
-0.553933
0.553729
-0.0130715
0.0116067
-0.664189
0.665654
-0.009684
0.0077655
-0.781746
0.783665
-0.00550582
0.00330787
-0.925226
0.927424
-0.000758531
-0.00169282
-1.09924
1.10169
0.00450324
-0.0071686
-1.30947
1.31214
0.0101729
-0.0129598
-1.56405
1.56684
0.0155277
-0.0178782
-1.56203
1.56438
0.0196727
-0.0213138
-1.30488
1.30652
0.0225578
-0.0236795
-1.09393
1.09505
0.0245686
-0.0254981
-0.920587
0.921516
0.0263234
-0.0271322
-0.77924
0.780049
0.0275199
-0.0271951
-0.658596
0.658272
0.0255003
-0.0216793
-0.523834
0.520013
0.0167036
-0.0108191
-0.340505
0.334621
0.00621932
-0.0025891
-0.1567
0.15307
0.000687159
-0.0256352
0.0249481
-0.0289279
0.0287741
0.000153789
-0.00216318
0.00421561
-0.232491
0.230438
-0.00707516
0.00950829
-0.407276
0.404843
-0.0111218
0.0113306
-0.553583
0.553374
-0.0104003
0.00894294
-0.667214
0.668671
-0.00696824
0.00497639
-0.785592
0.787584
-0.00263011
0.000358862
-0.929535
0.931806
0.00226599
-0.00476968
-1.10405
1.10656
0.00761627
-0.0102859
-1.31472
1.31739
0.0132529
-0.0159561
-1.56953
1.57223
0.0183952
-0.0205741
-1.5666
1.56878
0.0221953
-0.0236365
-1.30806
1.3095
0.0246869
-0.0255815
-1.09622
1.09712
0.0262683
-0.0270035
-0.92238
0.923116
0.0276773
-0.0283433
-0.780744
0.78141
0.0284196
-0.0277218
-0.657728
0.65703
0.0255839
-0.0213626
-0.516035
0.511814
0.0162633
-0.0104769
-0.32883
0.323044
0.00602884
-0.00252516
-0.149534
0.14603
0.000676535
-0.0242778
0.0236013
-0.0286761
0.0286259
5.02441e-05
-0.00130637
0.00278484
-0.228688
0.22721
-0.00498165
0.00694416
-0.402667
0.400705
-0.00829411
0.00842729
-0.553276
0.553142
-0.00746306
0.00597853
-0.670262
0.671746
-0.00391554
0.00181919
-0.789588
0.791684
0.000651444
-0.00303851
-0.933994
0.936381
0.00577728
-0.00837147
-1.10898
1.11157
0.0112934
-0.0140008
-1.31999
1.3227
0.0169622
-0.019604
-1.57485
1.57749
0.0219263
-0.0239353
-1.57083
1.57284
0.0253793
-0.0266158
-1.31082
1.31205
0.0274675
-0.0281287
-1.09809
1.09875
0.0286059
-0.0291334
-0.923787
0.924314
0.0296426
-0.0301019
-0.781888
0.782347
0.0298871
-0.0287541
-0.656096
0.654963
0.0261328
-0.0214804
-0.507447
0.502794
0.0162034
-0.0104097
-0.317308
0.311515
0.00600493
-0.00253156
-0.142576
0.139103
0.000684446
-0.0229335
0.0222491
-0.0286315
0.0286912
-5.97137e-05
-0.000425867
0.00132584
-0.226034
0.225134
-0.00283258
0.00425947
-0.399032
0.397605
-0.00524243
0.00521389
-0.553179
0.553207
-0.00415812
0.00259309
-0.673415
0.67498
-0.000408355
-0.00183302
-0.793796
0.796038
0.0044765
-0.0070175
-0.938684
0.941225
0.00991659
-0.0126415
-1.11409
1.11682
0.0156802
-0.0184588
-1.32534
1.32812
0.0214445
-0.0240437
-1.58004
1.58264
0.0262589
-0.0280976
-1.57471
1.57655
0.0293562
-0.0303728
-1.31314
1.31416
0.0310117
-0.0314307
-1.09951
1.09993
0.0316894
-0.0319949
-0.924775
0.92508
0.0323155
-0.0325003
-0.782506
0.782691
0.0320043
-0.03032
-0.653596
0.651912
0.0271755
-0.0220439
-0.498003
0.492872
0.016515
-0.0105997
-0.305725
0.299809
0.0061334
-0.00260164
-0.135638
0.132106
0.00070901
-0.0215661
0.0208571
-0.0288066
0.0289814
-0.000174758
0.000495947
-0.000207658
-0.224551
0.224263
-0.000558921
0.0013718
-0.396499
0.395686
-0.00187654
0.00160337
-0.553471
0.553745
-0.000396338
-0.00132163
-0.67679
0.678508
0.00368744
-0.00612108
-0.798304
0.800738
0.00898624
-0.0117286
-0.943684
0.946426
0.0148396
-0.0177408
-1.11947
1.12237
0.0209419
-0.0238272
-1.33084
1.33372
0.0268667
-0.0294392
-1.58516
1.58773
0.0315507
-0.0332121
-1.57825
1.57991
0.0342767
-0.0350536
-1.315
1.31578
0.0354644
-0.0356251
-1.10045
1.10061
0.0356479
-0.0357129
-0.925305
0.92537
0.0358361
-0.0356657
-0.782498
0.782327
0.0347953
-0.032506
-0.650047
0.647758
0.0287683
-0.0230753
-0.487589
0.481896
0.0171964
-0.0110345
-0.293844
0.287682
0.00640318
-0.00272957
-0.128543
0.124869
0.000748397
-0.0201431
0.0193947
-0.0292373
0.029556
-0.000318608
0.00150451
-0.0018594
-0.224324
0.224679
0.00193923
-0.00185121
-0.395192
0.395104
0.00195537
-0.00258358
-0.554372
0.555
0.00401698
-0.00592675
-0.680527
0.682437
0.00852529
-0.0112019
-0.803194
0.805871
0.0143489
-0.0173492
-0.949091
0.952092
0.0207326
-0.0238613
-1.12521
1.12834
0.0272738
-0.0303021
-1.33655
1.33958
0.0334238
-0.0359832
-1.59022
1.59278
0.0379885
-0.0394516
-1.58141
1.58287
0.0403018
-0.0408232
-1.31635
1.31688
0.0409873
-0.0408655
-1.10083
1.10071
0.0406285
-0.040432
-0.925323
0.925126
0.0403502
-0.0397094
-0.781716
0.781076
0.0383816
-0.0353955
-0.645318
0.642332
0.0309706
-0.0246023
-0.476025
0.469657
0.0182528
-0.0117081
-0.281413
0.274868
0.00680689
-0.00291088
-0.121128
0.117232
0.00080107
-0.0186358
0.0178348
-0.0299448
0.0304407
-0.000495882
0.00279031
-0.0038995
-0.225425
0.226534
0.00484668
-0.0055585
-0.395338
0.39605
0.0063801
-0.00747371
-0.556103
0.557197
0.00922538
-0.011406
-0.684726
0.686907
0.0143213
-0.0173129
-0.808577
0.811568
0.0208164
-0.0241384
-0.95502
0.958342
0.0278581
-0.0312663
-1.13142
1.13483
0.0349378
-0.03814
-1.34256
1.34576
0.0413593
-0.0438995
-1.59524
1.59778
0.0457769
-0.0470168
-1.58415
1.58539
0.0476074
-0.0478582
-1.31714
1.31739
0.0477556
-0.0473249
-1.10062
1.10019
0.0468046
-0.046329
-0.92476
0.924285
0.0459278
-0.0448376
-0.780007
0.778916
0.0429151
-0.0390918
-0.639211
0.635387
0.0338451
-0.026649
-0.463072
0.455876
0.0196851
-0.0126105
-0.268156
0.261081
0.00733394
-0.00313909
-0.113234
0.109039
0.000864676
-0.0170189
0.0161542
-0.0310046
0.031722
-0.00071739
0.00429156
-0.00629176
-0.228055
0.230055
0.00829872
-0.00991993
-0.397145
0.398766
0.0115678
-0.0132422
-0.55893
0.560605
0.0154465
-0.0179956
-0.689556
0.692105
0.0213322
-0.0247219
-0.814599
0.817988
0.0286683
-0.0323866
-0.961601
0.965319
0.0365175
-0.0402633
-1.13819
1.14194
0.0442415
-0.0476433
-1.34891
1.35231
0.0509663
-0.0534721
-1.60021
1.60272
0.0551895
-0.0561614
-1.58644
1.58741
0.0564509
-0.0563803
-1.3173
1.31723
0.0559731
-0.0551997
-1.09972
1.09895
0.0543671
-0.0535683
-0.923567
0.922768
0.0527646
-0.0511634
-0.7774
0.775799
0.0485046
-0.0436807
-0.631446
0.626622
0.0374437
-0.0292306
-0.448413
0.4402
0.0214857
-0.0137239
-0.253773
0.246011
0.00796742
-0.00340398
-0.10471
0.100146
0.000935528
-0.0152719
0.0143364
-0.0325004
0.0335056
-0.00100515
0.00617261
-0.00922851
-0.232463
0.235519
0.012511
-0.0151931
-0.400881
0.403563
0.0178101
-0.0201912
-0.563129
0.56551
0.0229876
-0.0260232
-0.695223
0.698258
0.0299082
-0.0338004
-0.821428
0.825321
0.0382947
-0.0424949
-0.968987
0.973187
0.0471155
-0.0512512
-1.14565
1.14978
0.0555678
-0.0591735
-1.35565
1.35925
0.0625777
-0.0650036
-1.60508
1.60751
0.0665004
-0.0671311
-1.58814
1.58877
0.067059
-0.0665976
-1.31669
1.31623
0.0658514
-0.0646888
-1.09807
1.09691
0.0635048
-0.0623905
-0.921662
0.920548
0.0610548
-0.058842
-0.773762
0.771549
0.055291
-0.0492422
-0.621674
0.615626
0.0417941
-0.0323313
-0.431662
0.422199
0.0236181
-0.0150082
-0.237953
0.229343
0.00867577
-0.00368855
-0.0954251
0.0904378
0.001008
-0.0133832
0.0123752
-0.0345578
0.0359613
-0.00140351
0.00863345
-0.0130399
-0.238973
0.243379
0.0178156
-0.0217388
-0.406913
0.410836
0.0254993
-0.0287398
-0.569028
0.572269
0.0323059
-0.0359882
-0.701988
0.70567
0.040587
-0.0451141
-0.829269
0.833797
0.0502734
-0.055039
-0.977349
0.982115
0.0602124
-0.0647655
-1.15387
1.15843
0.0694147
-0.0731834
-1.36276
1.36653
0.0765859
-0.0788273
-1.60973
1.61197
0.0799917
-0.0801746
-1.5891
1.58928
0.0796703
-0.0787086
-1.31518
1.31422
0.0775708
-0.0759929
-1.09555
1.09397
0.0744472
-0.0729175
-0.919019
0.91749
0.0710487
-0.068054
-0.76886
0.765865
0.0633778
-0.0558103
-0.609433
0.601865
0.0468747
-0.0358872
-0.412348
0.401361
0.0260039
-0.0163924
-0.220381
0.210769
0.00940782
-0.00396698
-0.0852811
0.0798403
0.00107392
-0.0113533
0.0102794
-0.0373773
0.0393411
-0.00196376
0.0120488
-0.0181804
-0.248102
0.254234
0.0247579
-0.0301339
-0.415742
0.421118
0.0352467
-0.0395407
-0.577025
0.581319
0.0440876
-0.0486188
-0.710195
0.714726
0.0541339
-0.0594383
-0.838378
0.843682
0.0653743
-0.0707678
-0.986847
0.992241
0.0765167
-0.0814627
-1.1629
1.16785
0.0863681
-0.0901908
-1.37013
1.37395
0.0934367
-0.0953294
-1.61392
1.61582
0.0959962
-0.0955713
-1.58907
1.58865
0.0945208
-0.0929559
-1.31261
1.31105
0.0913377
-0.0893218
-1.09205
1.09003
0.0873956
-0.0853082
-0.915405
0.913317
0.0829167
-0.0788772
-0.762272
0.758233
0.072783
-0.0633318
-0.594115
0.584664
0.0525764
-0.0397542
-0.389933
0.377111
0.0284985
-0.0177603
-0.200773
0.190034
0.0100856
-0.00420233
-0.0742394
0.0683561
0.00112224
-0.00920042
0.00807819
-0.0412776
0.0441123
-0.00283473
0.0170114
-0.0254012
-0.260594
0.268984
0.0342212
-0.0413533
-0.428032
0.435164
0.0481118
-0.0536714
-0.587603
0.593162
0.0594862
-0.0651241
-0.72026
0.725898
0.0717543
-0.077951
-0.849016
0.855213
0.0847205
-0.0907278
-0.997582
1.00359
0.0969663
-0.102167
-1.17264
1.17784
0.107122
-0.110773
-1.37748
1.38113
0.113585
-0.114864
-1.61728
1.61856
0.114791
-0.113543
-1.58772
1.58648
0.111778
-0.109503
-1.30877
1.3065
0.107321
-0.104806
-1.08749
1.08497
0.10247
-0.0997076
-0.91048
0.907718
0.0966596
-0.0912662
-0.753459
0.748065
0.083401
-0.0716178
-0.574952
0.563169
0.0586571
-0.043676
-0.363827
0.348846
0.0308726
-0.0189428
-0.178927
0.166997
0.0106027
-0.0043473
-0.0623553
0.0560999
0.00113952
-0.00696553
0.00582602
-0.0468387
0.0511476
-0.00430899
0.0247064
-0.0361739
-0.277605
0.289072
0.0479106
-0.0573726
-0.444814
0.454276
0.0661563
-0.0731803
-0.601362
0.608386
0.0805277
-0.0876675
-0.732545
0.739685
0.0954759
-0.102482
-0.861384
0.86839
0.109916
-0.116314
-1.00944
1.01584
0.122721
-0.127835
-1.18271
1.18783
0.132426
-0.135508
-1.38428
1.38737
0.137446
-0.137716
-1.61919
1.61946
0.136562
-0.134227
-1.58458
1.58225
0.131573
-0.128451
-1.30343
1.30031
0.125616
-0.122549
-1.08173
1.07866
0.119715
-0.116232
-0.904071
0.900588
0.112224
-0.105043
-0.741727
0.734546
0.0949098
-0.0802605
-0.550975
0.536325
0.0646941
-0.0472731
-0.333457
0.316036
0.0328192
-0.019735
-0.154813
0.141729
0.0108383
-0.00435112
-0.0498194
0.0433322
0.00111132
-0.00471571
0.00360439
-0.0551341
0.0625335
-0.00739946
0.0382195
-0.0541681
-0.30129
0.317238
0.0699861
-0.0826695
-0.46774
0.480424
0.0936383
-0.102021
-0.618749
0.627132
0.110866
-0.119271
-0.747447
0.755852
0.127983
-0.135383
-0.875181
0.882581
0.142898
-0.149083
-1.0218
1.02799
0.154979
-0.159364
-1.19229
1.19668
0.162911
-0.164802
-1.38963
1.39152
0.165276
-0.164071
-1.61881
1.61761
0.161468
-0.157735
-1.57911
1.57538
0.153953
-0.149789
-1.29628
1.29212
0.14622
-0.142597
-1.07458
1.07096
0.139125
-0.134814
-0.895961
0.89165
0.12937
-0.119732
-0.726045
0.716407
0.106644
-0.0884894
-0.520981
0.502827
0.0700225
-0.0500754
-0.29838
0.278433
0.0340467
-0.0200066
-0.128691
0.114651
0.0107434
-0.00420676
-0.0369953
0.0304586
0.00103557
-0.00254589
0.00151032
-0.0694264
0.0735707
-0.00414434
0.0292772
-0.0430939
-0.335663
0.34948
0.057104
-0.0687167
-0.498267
0.50988
0.0790946
-0.0887376
-0.639337
0.64898
0.0994706
-0.109292
-0.763859
0.77368
0.120201
-0.129924
-0.88911
0.898833
0.140275
-0.149468
-1.03323
1.04242
0.159032
-0.167188
-1.19996
1.20812
0.175219
-0.181542
-1.39224
1.39856
0.187031
-0.190424
-1.61519
1.61858
0.191694
-0.191425
-1.57063
1.57036
0.190065
-0.187963
-1.28696
1.28486
0.186191
-0.184024
-1.06586
1.06369
0.181847
-0.17764
-0.885548
0.881341
0.170036
-0.155636
-0.704922
0.690522
0.135903
-0.109614
-0.4837
0.457411
0.0842798
-0.0581658
-0.258487
0.232373
0.0383488
-0.02185
-0.10128
0.0847816
0.0114119
-0.00434417
-0.024439
0.0173713
0.00104207
-0.000555069
-0.000487003
-0.0807502
0.0789081
0.00184213
0.00750862
-0.0166126
-0.366106
0.37521
0.0272528
-0.0354726
-0.526178
0.534397
0.0437938
-0.0519515
-0.661172
0.66933
0.0618343
-0.0710272
-0.783182
0.792375
0.0808048
-0.0897352
-0.908
0.916931
0.0992052
-0.10727
-1.05131
1.05938
0.115835
-0.122759
-1.21607
1.22299
0.1295
-0.13449
-1.40454
1.40953
0.13821
-0.14001
-1.62111
1.62291
0.139693
-0.137819
-1.56933
1.56746
0.134855
-0.131021
-1.28199
1.27815
0.127545
-0.123765
-1.05915
1.05537
0.120044
-0.114568
-0.872439
0.866963
0.106418
-0.0935234
-0.672073
0.659178
0.0783059
-0.0599831
-0.429582
0.41126
0.0440152
-0.0292467
-0.206812
0.192044
0.0188639
-0.0106734
-0.0694335
0.061243
0.00562688
-0.00218164
-0.0107096
0.00726432
0.000473663
0.00158699
-0.00206065
-0.0821985
0.0792892
0.00290929
-0.00173765
-0.00354007
-0.386655
0.391932
0.0108003
-0.0167242
-0.546804
0.552728
0.0228701
-0.0300176
-0.679617
0.686765
0.0385559
-0.0465332
-0.800708
0.808685
0.0552426
-0.0630256
-0.925111
0.932894
0.0710187
-0.0781722
-1.06724
1.0744
0.0855399
-0.0915557
-1.22944
1.23545
0.096917
-0.100612
-1.41379
1.41748
0.103203
-0.103722
-1.62392
1.62444
0.102134
-0.0989854
-1.56488
1.56173
0.0949944
-0.0902496
-1.27393
1.26918
0.0855039
-0.0804689
-1.04962
1.04458
0.0755939
-0.069409
-0.857243
0.851058
0.0619487
-0.0513399
-0.643098
0.632489
0.0404181
-0.028734
-0.391326
0.379642
0.0199901
-0.0128892
-0.176967
0.169866
0.00837882
-0.00498699
-0.053205
0.0498132
0.00279232
-0.00108292
-0.00396632
0.00225691
0.000243022
0.00272228
-0.0029653
-0.0809126
0.0781499
0.00276263
-0.0054246
0.00290416
-0.40033
0.40285
0.00178557
-0.00625517
-0.56201
0.56648
0.0114273
-0.0174088
-0.69483
0.700812
0.0246805
-0.0314949
-0.816048
0.822862
0.0389222
-0.0455798
-0.940137
0.946795
0.0527882
-0.0588179
-1.08109
1.08712
0.0651947
-0.0699076
-1.24101
1.24573
0.0743467
-0.0772157
-1.42089
1.42376
0.0787373
-0.0780772
-1.62441
1.62375
0.0757422
-0.0718712
-1.55792
1.55405
0.0672324
-0.0614064
-1.26398
1.25816
0.0559396
-0.0499859
-1.03802
1.03206
0.0441695
-0.0378591
-0.841061
0.83475
0.0310757
-0.0230135
-0.618983
0.610921
0.0158239
-0.00959777
-0.366888
0.360662
0.0059607
-0.00368134
-0.161859
0.15958
0.00250841
-0.00178428
-0.04571
0.0449859
0.00119361
-0.00041099
-0.000504439
-0.000278182
8.64852e-05
0.00349433
-0.00358082
-0.0793542
0.0768927
0.00246142
-0.00661854
0.00573236
-0.409399
0.410285
-0.00229428
-0.000908085
-0.574169
0.577371
0.00509393
-0.0105079
-0.707561
0.712975
0.0165953
-0.022555
-0.828991
0.834951
0.0289594
-0.0347071
-0.952983
0.95873
0.0408435
-0.0461536
-1.09299
1.0983
0.0514766
-0.0556985
-1.25026
1.25448
0.0593462
-0.0615296
-1.4262
1.42838
0.0623389
-0.0610524
-1.62282
1.62153
0.0581571
-0.053552
-1.54939
1.54478
0.048463
-0.0423009
-1.25212
1.24596
0.03637
-0.029706
-1.025
1.01833
0.0235704
-0.0170575
-0.825245
0.818732
0.0112956
-0.0051505
-0.600404
0.594259
0.000714229
0.00195723
-0.352534
0.349862
-0.00262609
0.00224912
-0.155525
0.155902
-0.00151215
0.000700682
-0.0434638
0.0442753
-0.000222351
0.000139551
0.000851842
-0.000769042
-4.37518e-05
0.00394778
-0.00390403
-0.0778799
0.0757582
0.00212168
-0.00655501
0.00620821
-0.415546
0.415893
-0.00418098
0.00161186
-0.583463
0.586032
0.0024096
-0.00701914
-0.718311
0.722921
0.0122279
-0.0173836
-0.840129
0.845284
0.0230512
-0.0281539
-0.96411
0.969213
0.0337178
-0.038314
-1.1033
1.1079
0.0430219
-0.0467226
-1.25837
1.26207
0.0497856
-0.051476
-1.43024
1.43193
0.0517709
-0.0504338
-1.62007
1.61873
0.047151
-0.0423807
-1.53966
1.53489
0.0370252
-0.0305853
-1.2395
1.23306
0.0246379
-0.0175821
-1.011
1.00395
0.0112032
-0.00472636
-0.809924
0.803447
-0.000453842
0.00510261
-0.585709
0.58106
-0.00796973
0.00887166
-0.344545
0.343644
-0.00787094
0.00614928
-0.154479
0.156201
-0.00448471
0.00267159
-0.0444704
0.0462835
-0.00138521
0.000629957
0.000431876
0.000323373
-0.000171817
0.00405426
-0.00388245
-0.0767236
0.0750561
0.00166746
-0.00572076
0.00573264
-0.420027
0.420015
-0.00413564
0.00223458
-0.591515
0.593416
0.00149595
-0.0056444
-0.727562
0.731711
0.0105635
-0.0149807
-0.85004
0.854457
0.0199313
-0.0244236
-0.974267
0.97876
0.0296562
-0.0337801
-1.1125
1.11663
0.0378882
-0.0413035
-1.26555
1.26896
0.0443963
-0.0457979
-1.43359
1.43499
0.0459662
-0.0443741
-1.61693
1.61534
0.0412739
-0.0361864
-1.52984
1.52476
0.0309798
-0.0247106
-1.22641
1.22014
0.0186491
-0.0118392
-0.996628
0.989818
0.00549512
0.000981398
-0.795185
0.788709
-0.00547696
0.00951788
-0.573586
0.569545
-0.0118363
0.0119848
-0.339881
0.339732
-0.0105325
0.008388
-0.156183
0.158328
-0.00628327
0.00397915
-0.0475065
0.0498106
-0.002237
0.000953395
-0.00125749
0.0025411
-0.000254937
0.00382777
-0.00357283
-0.0760599
0.0747401
0.00131981
-0.00467437
0.00482952
-0.423502
0.423347
-0.00345649
0.00165855
-0.598465
0.600263
0.0019
-0.00557853
-0.735824
0.739503
0.00976677
-0.0140017
-0.858809
0.863044
0.018542
-0.0231347
-0.983039
0.987632
0.0275896
-0.0314793
-1.12082
1.12471
0.0356513
-0.0387522
-1.27223
1.27533
0.0412773
-0.0429971
-1.43626
1.43798
0.0432165
-0.0417665
-1.61375
1.6123
0.0386832
-0.0340277
-1.51984
1.51518
0.029019
-0.0229501
-1.21356
1.20749
0.0171639
-0.0105523
-0.982706
0.976094
0.00443779
0.00165101
-0.781055
0.774966
-0.00638091
0.00994775
-0.562713
0.559146
-0.0119482
0.0123653
-0.336803
0.336386
-0.0111778
0.00899897
-0.158772
0.160951
-0.00689293
0.00451702
-0.0514023
0.0537782
-0.00264096
0.00113389
-0.00372878
0.00523586
-0.000313924
0.00338381
-0.00306989
-0.0759199
0.074816
0.00110388
-0.00341491
0.0033472
-0.426565
0.426633
-0.00226611
0.000516395
-0.604794
0.606544
0.00288158
-0.00641484
-0.743448
0.746981
0.0104077
-0.0142119
-0.867047
0.870851
0.0188369
-0.0226062
-0.991625
0.995395
0.026989
-0.0306559
-1.12873
1.13239
0.0346626
-0.0379072
-1.27838
1.28163
0.040652
-0.0420826
-1.43943
1.44086
0.0425549
-0.041417
-1.61075
1.60961
0.0388885
-0.0344626
-1.51041
1.50599
0.0298243
-0.0240903
-1.20155
1.19582
0.0186479
-0.0123269
-0.969193
0.962872
0.00662986
-0.000605883
-0.767746
0.761722
-0.00408768
0.00766928
-0.552738
0.549157
-0.00969239
0.0103493
-0.333647
0.33299
-0.00979036
0.00818249
-0.161099
0.162707
-0.0064511
0.00434852
-0.0553133
0.0574159
-0.0026154
0.00115263
-0.00646355
0.00792631
-0.000342229
0.00281179
-0.00246956
-0.0760596
0.075285
0.000774611
-0.00226563
0.00174204
-0.429687
0.430211
-0.000821493
-0.00108516
-0.610312
0.612219
0.00410195
-0.00747464
-0.750522
0.753894
0.0112788
-0.0151915
-0.874499
0.878411
0.0191718
-0.0230755
-0.99935
1.00325
0.0273898
-0.0308182
-1.13647
1.13989
0.0348778
-0.0380383
-1.28464
1.28781
0.0407965
-0.042712
-1.44267
1.44459
0.0436193
-0.0427147
-1.60849
1.60759
0.0403866
-0.0366347
-1.50174
1.49799
0.0325132
-0.0271475
-1.19002
1.18465
0.0219958
-0.0163076
-0.956485
0.950797
0.0106193
-0.00505092
-0.754862
0.749293
0.000300232
0.00355966
-0.543119
0.53926
-0.0056563
0.00681857
-0.329946
0.328784
-0.00687715
0.00612103
-0.16251
0.163266
-0.00496995
0.00346953
-0.058511
0.0600114
-0.00215869
0.000976213
-0.00894966
0.0101321
-0.000311505
0.00221752
-0.00190602
-0.0766217
0.0760096
0.000612065
-0.00129211
0.00086039
-0.433022
0.433454
0.000624279
-0.00246711
-0.615937
0.61778
0.00562312
-0.00885025
-0.757049
0.760276
0.0124885
-0.0159818
-0.881973
0.885467
0.0200666
-0.0236358
-1.00714
1.01071
0.0278783
-0.0317225
-1.14376
1.1476
0.0353967
-0.0388638
-1.29099
1.29445
0.0420154
-0.0439959
-1.44638
1.44836
0.0452467
-0.0450979
-1.6069
1.60675
0.043187
-0.0400461
-1.49412
1.49097
0.0361576
-0.0313279
-1.1794
1.17457
0.0267011
-0.021312
-0.944746
0.939357
0.0161194
-0.0107173
-0.742758
0.737356
0.00604489
-0.00166185
-0.533353
0.52897
-0.000980886
0.00262955
-0.325354
0.323705
-0.00343233
0.00343949
-0.162469
0.162462
-0.00298973
0.00221836
-0.0604721
0.0612435
-0.00145686
0.000704704
-0.0107999
0.0115521
-0.000232989
0.00170456
-0.00147157
-0.0774658
0.077038
0.000427789
-0.000246052
-0.000367691
-0.436508
0.437122
0.00182434
-0.00396927
-0.621203
0.623348
0.00703007
-0.010087
-0.763321
0.766378
0.0138042
-0.0171344
-0.888922
0.892252
0.021048
-0.0247286
-1.01474
1.01842
0.0288608
-0.0326583
-1.15128
1.15507
0.0365409
-0.0400206
-1.29782
1.3013
0.0433437
-0.0460585
-1.45062
1.45333
0.0477354
-0.0478619
-1.60653
1.60665
0.0466266
-0.0438193
-1.48773
1.48493
0.0405394
-0.0363466
-1.16977
1.16558
0.03189
-0.0268534
-0.933746
0.92871
0.0219422
-0.0165545
-0.731174
0.725786
0.0119477
-0.00721937
-0.523403
0.518675
0.00403812
-0.0015845
-0.319765
0.317312
0.000182727
0.000637289
-0.160899
0.160079
-0.0009559
0.000897199
-0.0609989
0.0610576
-0.000677301
0.000374514
-0.0117781
0.0120808
-0.000138934
0.00134932
-0.00121038
-0.0785476