/*--------------------------------*- C++ -*----------------------------------*\
  =========                 |
  \\      /  F ield         | OpenFOAM: The Open Source CFD Toolbox
   \\    /   O peration     | Website:  https://openfoam.org
    \\  /    A nd           | Version:  10
     \\/     M anipulation  |
\*---------------------------------------------------------------------------*/
FoamFile
{
    format      ascii;
    class       volScalarField;
    location    "3.5";
    object      p;
}
// * * * * * * * * * * * * * * * * * * * * * * * * * * * * * * * * * * * * * //

dimensions      [1 -1 -2 0 0 0 0];

internalField   nonuniform List<scalar> 
16128
(
1
1
1
1
1
1
1
1
1
1
1
1
1
1
1
1
1
1
1
1
1
1
1
1
4.47066
10.2062
10.5088
10.6042
10.7219
10.8303
10.9336
11.0315
11.1257
11.2165
11.305
11.3905
11.4703
11.5432
11.611
11.6757
11.739
11.7989
11.8524
11.8973
11.9365
11.9666
11.9872
12.0076
1
1
1
1
1
1
1
1
1
1
1
1
1
1
1
1
1
1
1
1
1
1
1
1
4.39099
10.1573
10.5049
10.6023
10.7197
10.8275
10.9301
11.0275
11.1211
11.2116
11.2995
11.3842
11.4629
11.5352
11.6028
11.6672
11.7295
11.7877
11.8395
11.8835
11.9224
11.952
11.9717
11.993
1
1
1
1
1
1
1
1
1
1
1
1
1
1
1
1
1
1
1
1
1
1
1
1
4.21806
10.0962
10.4948
10.5923
10.7095
10.8172
10.9199
11.0173
11.1108
11.201
11.2883
11.3722
11.4502
11.5225
11.5905
11.6547
11.7155
11.7712
11.8208
11.8636
11.9015
11.9303
11.946
11.9657
1
1
1
1
1
1
1
1
1
1
1
1
1
1
1
1
1
1
1
1
1
1
1
1
3.96625
10.0023
10.4834
10.5801
10.6965
10.8033
10.9053
11.0018
11.0944
11.1838
11.2699
11.3525
11.4293
11.5012
11.5691
11.6327
11.6917
11.7447
11.7924
11.8345
11.8721
11.901
11.908
11.9265
1
1
1
1
1
1
1
1
1
1
1
1
1
1
1
1
1
1
1
1
1
1
1
1
3.64527
9.86369
10.4711
10.5652
10.6803
10.786
10.8869
10.9824
11.0735
11.1618
11.2464
11.3277
11.4032
11.4744
11.5419
11.6046
11.6616
11.7115
11.7566
11.798
11.8357
11.8671
11.8535
11.8786
1
1
1
1
1
1
1
1
1
1
1
1
1
1
1
1
1
1
1
1
1
1
1
1
3.26635
9.66359
10.458
10.5459
10.6594
10.7634
10.863
10.9569
11.0462
11.1328
11.2155
11.2951
11.3689
11.439
11.5056
11.5673
11.6224
11.6697
11.7122
11.7507
11.7814
11.8068
11.8014
11.8223
1
1
1
1
1
1
1
1
1
1
1
1
1
1
1
1
1
1
1
1
1
1
1
1
2.84245
9.38321
10.4447
10.5217
10.6331
10.734
10.8316
10.9239
11.0113
11.0959
11.1765
11.2542
11.326
11.394
11.4586
11.5183
11.5714
11.6166
11.6572
11.6927
11.7176
11.7387
11.734
11.7619
1
1
1
1
1
1
1
1
1
1
1
1
1
1
1
1
1
1
1
1
1
1
1
1
2.39767
9.0129
10.4441
10.499
10.6102
10.7063
10.8008
10.8905
10.9752
11.0565
11.1334
11.2072
11.2754
11.3398
11.4011
11.4581
11.5091
11.5527
11.592
11.6261
11.6486
11.6671
11.6383
11.6823
1
1
1
1
1
1
1
1
1
1
1
1
1
1
1
1
1
1
1
1
1
1
1
1
1.94035
8.51955
10.4499
10.4763
10.5841
10.6719
10.7633
10.8512
10.934
11.0126
11.0863
11.1558
11.2199
11.2794
11.3357
11.3881
11.4349
11.4745
11.5096
11.5393
11.557
11.5719
11.535
11.5919
1
1
1
1
1
1
1
1
1
1
1
1
1
1
1
1
1
1
1
1
1
1
1
1
1.51235
7.93342
10.4489
10.4338
10.5431
10.627
10.7177
10.8029
10.8836
10.9598
11.0312
11.0967
11.1571
11.2116
11.2621
11.3086
11.35
11.3849
11.4149
11.4397
11.4523
11.4601
11.4124
11.4699
1
1
1
1
1
1
1
1
1
1
1
1
1
1
1
1
1
1
1
1
1
1
1
1
1.14259
7.20502
10.4102
10.4029
10.4952
10.57
10.6559
10.7408
10.8211
10.895
10.9639
11.0261
11.0831
11.1331
11.1776
11.2171
11.251
11.2783
11.2987
11.3148
11.3186
11.3185
11.2637
11.3286
1
1
1
1
1
1
1
1
1
1
1
1
1
1
1
1
1
1
1
1
1
1
1
1
1.00482
6.33288
10.2107
10.2885
10.4
10.493
10.5835
10.6638
10.7413
10.8157
10.8848
10.9447
10.9979
11.0432
11.0813
11.1128
11.137
11.1554
11.1665
11.1745
11.1671
11.1514
11.0801
11.1286
1
1
1
1
1
1
1
1
1
1
1
1
1
1
1
1
1
1
1
1
1
1
1
1
1.00002
5.35221
10.0136
10.2036
10.3225
10.4257
10.5153
10.5964
10.6685
10.7328
10.7927
10.8483
10.897
10.9372
10.9685
10.992
11.0058
11.0127
11.008
10.9953
10.9617
10.9231
10.8337
10.894
1
1
1
1
1
1
1
1
1
1
1
1
1
1
1
1
1
1
1
1
1
1
1
1
1
4.2941
9.66866
10.1359
10.2595
10.3677
10.4504
10.5174
10.5761
10.6309
10.6853
10.7352
10.7779
10.8125
10.8376
10.853
10.8531
10.8447
10.8194
10.7871
10.734
10.672
10.5431
10.5178
1
1
1
1
1
1
1
1
1
1
1
1
1
1
1
1
1
1
1
1
1
1
1
1
1
3.239
9.1875
10.0771
10.2073
10.3181
10.3946
10.4524
10.5003
10.5417
10.5792
10.6178
10.6526
10.677
10.6924
10.6964
10.6805
10.6544
10.6042
10.539
10.4296
10.2767
10.0591
9.99239
1
1
1
1
1
1
1
1
1
1
1
1
1
1
1
1
1
1
1
1
1
1
1
1
1
2.14937
8.40495
10.1666
10.1984
10.2666
10.3228
10.3721
10.4159
10.4519
10.4793
10.5027
10.5224
10.5341
10.5364
10.523
10.4896
10.4385
10.3525
10.2404
10.0701
9.87166
9.55128
9.49753
1
1
1
1
1
1
1
1
1
1
1
1
1
1
1
1
1
1
1
1
1
1
1
1
1
1.23943
7.50814
10.2734
10.1376
10.1713
10.2342
10.2851
10.3261
10.3559
10.3748
10.386
10.3917
10.3907
10.3731
10.3416
10.2851
10.2045
10.0806
9.9241
9.66641
9.29762
8.38945
6.34819
1
1
1
1
1
1
1
1
1
1
1
1
1
1
1
1
1
1
1
1
1
1
1
1
1
1.00676
6.25629
9.94629
9.96391
10.0551
10.1237
10.1809
10.2233
10.2502
10.2633
10.2661
10.2573
10.2395
10.2039
10.1533
10.0707
9.95959
9.79262
9.56871
9.21076
8.59313
7.62056
5.36011
1
1
1
1
1
1
1
1
1
1
1
1
1
1
1
1
1
1
1
1
1
1
1
1
1
0.999963
4.70661
9.53534
9.88627
9.98636
10.0333
10.0785
10.1177
10.1393
10.1467
10.1424
10.1198
10.0861
10.032
9.96157
9.85309
9.71159
9.50293
9.21338
8.78288
8.1089
7.00045
5.08462
1
1
1
1
1
1
1
1
1
1
1
1
1
1
1
1
1
1
1
1
1
1
1
1
1
0.999991
3.18774
8.94195
9.85734
9.91881
9.96781
9.9941
10.0177
10.0282
10.0273
10.0142
9.98019
9.9322
9.85878
9.76684
9.63535
9.46411
9.22065
8.88676
8.40216
7.72209
6.58623
5.06893
1
1
1
1
1
1
1
1
1
1
1
1
1
1
1
1
1
1
1
1
1
1
1
1
1
0.999998
1.83448
8.10563
9.88997
9.84599
9.8856
9.91203
9.92604
9.92598
9.91267
9.88642
9.84088
9.7789
9.68788
9.5753
9.42381
9.22551
8.9573
8.59671
8.09492
7.42278
6.36718
5.16606
1
1
1
1
1
1
1
1
1
1
1
1
1
1
1
1
1
1
1
1
1
1
1
1
1
1
1.08048
6.6759
9.84072
9.77436
9.77982
9.81373
9.82252
9.81639
9.79366
9.75668
9.70101
9.62652
9.5215
9.39091
9.22141
9.00257
8.71811
8.34229
7.84327
7.19542
6.27353
5.28821
1
1
1
1
1
1
1
1
1
1
1
1
1
1
1
1
1
1
1
1
1
1
1
1
1
1
1.0004
4.86663
9.29592
9.61985
9.69213
9.71835
9.71681
9.7041
9.67354
9.6282
9.5626
9.47631
9.36012
9.21514
9.03073
8.7986
8.50618
8.12743
7.63967
7.03054
6.2428
5.42227
1
1
1
1
1
1
1
1
1
1
1
1
1
1
1
1
1
1
1
1
1
1
1
1
1
1
0.999995
2.90729
8.65778
9.61262
9.61413
9.63462
9.63057
9.60593
9.56329
9.50721
9.43051
9.33305
9.2069
9.05063
8.85491
8.61386
8.31858
7.94687
7.48291
6.91647
6.23197
5.53774
1
1
1
1
1
1
1
1
1
1
1
1
1
1
1
1
1
1
1
1
1
1
1
1
1
1
0.999999
1.37046
7.59618
9.71468
9.56949
9.52718
9.51871
9.49032
9.44307
9.38147
9.29763
9.19288
9.05961
8.89586
8.6937
8.44818
8.15405
7.79145
7.35926
6.8334
6.23298
5.64021
1
1
1
1
1
1
1
1
1
1
1
1
1
1
1
1
1
1
1
1
1
1
1
1
1
1
1
1.01381
5.8312
9.25117
9.36871
9.42029
9.41104
9.37489
9.32408
9.25841
9.16962
9.05865
8.92012
8.75158
8.5466
8.30082
8.01155
7.65581
7.2536
6.77372
6.24148
5.72259
1
1
1
1
1
1
1
1
1
1
1
1
1
1
1
1
1
1
1
1
1
1
1
1
1
1
1
0.999908
3.5093
8.69652
9.32083
9.33384
9.32484
9.28744
9.22904
9.152
9.05361
8.93461
8.79002
8.61816
8.41366
8.17188
7.88729
7.54161
7.16431
6.72622
6.25656
5.78894
1
1
1
1
1
1
1
1
1
1
1
1
1
1
1
1
1
1
1
1
1
1
1
1
1
1
1
0.999976
1.5844
7.79496
9.45854
9.29149
9.22143
9.17784
9.11561
9.03561
8.93462
8.81229
8.66583
8.49249
8.28867
8.05515
7.77314
7.44697
7.09129
6.68588
6.26999
5.83532
1
1
1
1
1
1
1
1
1
1
1
1
1
1
1
1
1
1
1
1
1
1
1
1
1
1
1
0.999996
1.03242
5.96935
9.03101
9.08826
9.10459
9.07136
9.0069
8.92553
8.82292
8.69902
8.55168
8.37975
8.18052
7.94843
7.67362
7.37084
7.03676
6.66134
6.28473
5.87827
1
1
1
1
1
1
1
1
1
1
1
1
1
1
1
1
1
1
1
1
1
1
1
1
1
1
1
1
0.999926
3.35498
8.42002
9.05075
9.03204
8.99142
8.92656
8.83823
8.72809
8.59865
8.44827
8.27579
8.07923
7.8501
7.5871
7.30412
6.9886
6.64314
6.29477
5.91232
1
1
1
1
1
1
1
1
1
1
1
1
1
1
1
1
1
1
1
1
1
1
1
1
1
1
1
1
0.999977
1.38147
7.32948
9.19212
9.00473
8.90361
8.82687
8.73449
8.62519
8.49916
8.35174
8.18158
7.98625
7.76588
7.51642
7.24877
6.94904
6.63085
6.30443
5.94661
1
1
1
1
1
1
1
1
1
1
1
1
1
1
1
1
1
1
1
1
1
1
1
1
1
1
1
1
0.999996
1.01308
5.23541
8.69109
8.78088
8.78147
8.72087
8.63204
8.52791
8.40655
8.26324
8.09697
7.90629
7.69048
7.45289
7.19781
6.91331
6.61644
6.30953
5.97595
1
1
1
1
1
1
1
1
1
1
1
1
1
1
1
1
1
1
1
1
1
1
1
1
1
1
1
1
1
0.999927
2.52199
8.00689
8.77325
8.7301
8.65499
8.56453
8.4596
8.33711
8.19246
8.02575
7.8379
7.62616
7.39733
7.15339
6.88371
6.60248
6.31502
6.00461
1
1
1
1
1
1
1
1
1
1
1
1
1
1
1
1
1
1
1
1
1
1
1
1
1
1
1
1
1
0.999981
1.17383
6.28728
8.74153
8.65794
8.57618
8.48476
8.38265
8.26183
8.1176
7.9529
7.76989
7.56646
7.3475
7.1145
6.85728
6.58797
6.31792
6.02789
1
1
1
1
1
1
1
1
1
1
1
1
1
1
1
1
1
1
1
1
1
1
1
1
1
1
1
1
1
0.999997
1.00215
3.52115
8.09425
8.52175
8.47626
8.41219
8.31936
8.19929
8.0542
7.89123
7.7127
7.51648
7.30516
7.08006
6.83386
6.57762
6.32211
6.04964
1
1
1
1
1
1
1
1
1
1
1
1
1
1
1
1
1
1
1
1
1
1
1
1
1
1
1
1
1
1
0.999993
1.41285
6.79184
8.61861
8.47035
8.37998
8.2711
8.1406
7.993
7.8318
7.65768
7.46826
7.26435
7.04742
6.81314
6.56985
6.32535
6.06904
1
1
1
1
1
1
1
1
1
1
1
1
1
1
1
1
1
1
1
1
1
1
1
1
1
1
1
1
1
1
0.999998
1.01384
4.25646
8.12651
8.31897
8.28229
8.18984
8.06778
7.92789
7.77318
7.60566
7.42368
7.22717
7.01832
6.79577
6.56392
6.32888
6.08695
1
1
1
1
1
1
1
1
1
1
1
1
1
1
1
1
1
1
1
1
1
1
1
1
1
1
1
1
1
1
1
1
1.65737
7.01411
8.4423
8.28224
8.15749
8.02742
7.88533
7.73122
7.5654
7.38607
7.19335
6.99066
6.77851
6.55747
6.33189
6.10233
1
1
1
1
1
1
1
1
1
1
1
1
1
1
1
1
1
1
1
1
1
1
1
1
1
1
1
1
1
1
1
1
1.03423
4.65323
8.05627
8.14736
8.06738
7.95779
7.82802
7.68089
7.51918
7.34449
7.15824
6.96342
6.76142
6.55137
6.33536
6.11528
1
1
1
1
1
1
1
1
1
1
1
1
1
1
1
1
1
1
1
1
1
1
1
1
1
1
1
1
1
1
1
1
1.00009
1.82799
7.01616
8.23267
8.06294
7.9308
7.7962
7.64798
7.48827
7.31803
7.13808
6.94934
6.75298
6.54973
6.3408
6.12772
1
1
1
1
1
1
1
1
1
1
1
1
1
1
1
1
1
1
1
1
1
1
1
1
1
1
1
1
1
1
1
1
1
1.05217
4.73225
7.90691
7.954
7.86531
7.74596
7.60566
7.45046
7.28429
7.109
6.92556
6.73554
6.54022
6.34081
6.13882
1
1
1
1
1
1
1
1
1
1
1
1
1
1
1
1
1
1
1
1
1
1
1
1
1
1
1
1
1
1
1
1
1
1.00025
1.87965
6.80949
7.99261
7.84878
7.72025
7.57749
7.42153
7.25798
7.08788
6.91132
6.72938
6.54267
6.35158
6.15776
1
1
1
1
1
1
1
1
1
1
1
1
1
1
1
1
1
1
1
1
1
1
1
1
1
1
1
1
1
1
1
1
1
1
1.05757
4.45246
7.69776
7.78236
7.66992
7.53576
7.38595
7.22976
7.06695
6.89777
6.72301
6.54382
6.36002
6.17131
1
1
1
1
1
1
1
1
1
1
1
1
1
1
1
1
1
1
1
1
1
1
1
1
1
1
1
1
1
1
1
1
1
1
1.00038
1.76877
6.45042
7.79219
7.65067
7.51625
7.3651
7.21112
7.05345
6.89139
6.72395
6.5514
6.37385
6.19047
1
1
1
1
1
1
1
1
1
1
1
1
1
1
1
1
1
1
1
1
1
1
1
1
1
1
1
1
1
1
1
1
1
1
1
1.04424
3.84368
7.40957
7.60036
7.47129
7.3311
7.18856
7.0422
6.88876
6.72781
6.55966
6.3849
6.20607
1
1
1
1
1
1
1
1
1
1
1
1
1
1
1
1
1
1
1
1
1
1
1
1
1
1
1
1
1
1
1
1
1
1
1
1.00032
1.53465
5.91916
7.62696
7.46699
7.33519
7.19641
7.0499
6.89409
6.73214
6.5657
6.39453
6.22069
1
1
1
1
1
1
1
1
1
1
1
1
1
1
1
1
1
1
1
1
1
1
1
1
1
1
1
1
1
1
1
1
1
1
1
1
1.02238
2.99568
6.93139
7.43725
7.31321
7.18213
7.03475
6.88201
6.72411
6.56314
6.40081
6.23439
1
1
1
1
1
1
1
1
1
1
1
1
1
1
1
1
1
1
1
1
1
1
1
1
1
1
1
1
1
1
1
1
1
1
1
1
1.00016
1.27448
5.11335
7.45275
7.32877
7.18977
7.03463
6.88541
6.73224
6.57383
6.41475
6.25334
1
1
1
1
1
1
1
1
1
1
1
1
1
1
1
1
1
1
1
1
1
1
1
1
1
1
1
1
1
1
1
1
1
1
1
1
1
1.00666
2.24166
6.42204
7.2947
7.14255
7.01254
6.87096
6.72424
6.57264
6.41609
6.25883
1
1
1
1
1
1
1
1
1
1
1
1
1
1
1
1
1
1
1
1
1
1
1
1
1
1
1
1
1
1
1
1
1
1
1
1
1
1.00003
1.10924
3.96447
7.03205
7.1592
7.031
6.89137
6.74482
6.59489
6.44127
6.28568
1
1
1
1
1
1
1
1
1
1
1
1
1
1
1
1
1
1
1
1
1
1
1
1
1
1
1
1
1
1
1
1
1
1
1
1
1
1
1.00158
1.60077
5.53429
7.17979
7.03251
6.88938
6.74509
6.59892
6.45093
6.302
1
1
1
1
1
1
1
1
1
1
1
1
1
1
1
1
1
1
1
1
1
1
1
1
1
1
1
1
1
1
1
1
1
1
1
1
1
1
1.00001
1.02844
2.6957
6.45109
7.01782
6.88377
6.74782
6.60986
6.46737
6.32044
1
1
1
1
1
1
1
1
1
1
1
1
1
1
1
1
1
1
1
1
1
1
1
1
1
1
1
1
1
1
1
1
1
1
1
1
1
1
1
1.00027
1.1988
4.26795
6.83779
6.9121
6.77981
6.63854
6.49545
6.34775
1
1
1
1
1
1
1
1
1
1
1
1
1
1
1
1
1
1
1
1
1
1
1
1
1
1
1
1
1
1
1
1
1
1
1
1
1
1
1
1
1.00432
1.75658
5.48992
6.88497
6.78462
6.64328
6.5025
6.36095
1
1
1
1
1
1
1
1
1
1
1
1
1
1
1
1
1
1
1
1
1
1
1
1
1
1
1
1
1
1
1
1
1
1
1
1
1
1
1
1
1.00002
1.04394
2.75322
6.23344
6.77679
6.65972
6.5162
6.37915
1
1
1
1
1
1
1
1
1
1
1
1
1
1
1
1
1
1
1
1
1
1
1
1
1
1
1
1
1
1
1
1
1
1
1
1
1
1
1
1
1
1.00051
1.21507
4.05999
6.52666
6.68527
6.55391
6.41099
1
1
1
1
1
1
1
1
1
1
1
1
1
1
1
1
1
1
1
1
1
1
1
1
1
1
1
1
1
1
1
1
1
1
1
1
1
1
1
1
1
1
1.00524
1.6729
5.109
6.62002
6.57612
6.437
1
1
1
1
1
1
1
1
1
1
1
1
1
1
1
1
1
1
1
1
1
1
1
1
1
1
1
1
1
1
1
1
1
1
1
1
1
1
1
1
1
1
1.00003
1.03626
2.44583
5.80791
6.55232
6.46057
1
1
1
1
1
1
1
1
1
1
1
1
1
1
1
1
1
1
1
1
1
1
1
1
1
1
1
1
1
1
1
1
1
1
1
1
1
1
1
1
1
1
1
1.00042
1.15128
3.44279
6.18475
6.49105
1
1
1
1
1
1
1
1
1
1
1
1
1
1
1
1
1
1
1
1
1
1
1
1
1
1
1
1
1
1
1
1
1
1
1
1
1
1
1
1
1
1
1
1
1.00317
1.4309
4.43671
6.30956
1
1
1
1
1
1
1
1
1
1
1
1
1
1
1
1
1
1
1
1
1
1
1
1
1
1
1
1
1
1
1
1
1
1
1
1
1
1
1
1
1
1
1
1
1.00002
1.01734
1.9365
5.14597
1
1
1
1
1
1
1
1
1
1
1
1
1
1
1
1
1
1
1
1
1
1
1
1
1
1
1
1
1
1
1
1
1
1
1
1
1
1
1
1
1
1
1
1
1
1.00017
1.06816
2.61996
1
1
1
1
1
1
1
1
1
1
1
1
1
1
1
1
1
1
1
1
1
1
1
1
1
1
1
1
1
1
1
1
1
1
1
1
1
1
1
1
1
1
1
1
1
1
1.00107
1.19457
1
1
1
1
1
1
1
1
1
1
1
1
1
1
1
1
1
1
1
1
1
1
1
1
1
1
1
1
1
1
1
1
1
1
1
1
1
1
1
1
1
1
1
1
1
1
1
1.00494
1
1
1
1
1
1
1
1
1
1
1
1
1
1
1
1
1
1
1
1
1
1
1
1
1
1
1
1
1
1
1
1
1
1
1
1
1
1
1
1
1
1
1
1
1
1
1
1.00003
1
1
1
1
1
1
1
1
1
1
1
1
1
1
1
1
1
1
1
1
1
1
1
1
1
1
1
1
1
1
1
1
1
1
1
1
1
1
1
1
1
1
1
1
1
1
1
1
1
1
1
1
1
1
1
1
1
1
1
1
1
1
1
1
1
1
1
1
1
1
1
1
1
1
1
1
1
1
1
1
1
1
1
1
1
1
1
1
1
1
1
1
1
1
1
1
1
1
1
1
1
1
1
1
1
1
1
1
1
1
1
1
1
1
1
1
1
1
1
1
1
1
1
1
1
1
1
1
1
1
1
1
1
1
1
1
1
1
1
1
1
1
1
1
1
1
1
1
1
1
1
1
1
1
1
1
1
1
1
1
1
1
1
1
1
1
1
1
1
1
1
1
1
1
1
1
1
1
1
1
1
1
1
1
1
1
1
1
1
1
1
1
1
1
1
1
1
1
1
1
1
1
1
1
1
1
1
1
1
1
1
1
1
1
1
1
1
1
1
1
1
1
1
1
1
1
1
1
1
1
1
1
1
1
1
1
1
1
1
1
1
1
1
1
1
1
1
1
1
1
1
1
1
1
1
1
1
1
1
1
1
1
1
1
1
1
1
1
1
1
1
1
1
1
1
1
1
1
1
1
1
1
1
1
1
1
1
1
1
1
1
1
1
1
1
1
1
1
1
1
1
1
1
1
1
1
1
1
1
1
1
1
1
1
1
1
1
1
1
1
1
1
1
1
1
1
1
1
1
1
1
1
1
1
1
1
1
1
1
1
1
1
1
1
1
1
1
1
1
1
1
1
1
1
1
1
1
1
1
1
1
1
1
1
1
1
1
1
1
1
1
1
1
1
1
1
1
1
1
1
1
1
1
1
1
1
1
1
1
1
1
1
1
1
1
1
1
1
1
1
1
1
1
1
1
1
1
1
1
1
1
1
1
1
1
1
1
1
1
1
1
1
1
1
1
1
1
1
1
1
1
1
1
1
1
1
1
1
1
1
1
1
1
1
1
1
1
1
1
1
1
1
1
1
1
1
1
1
1
1
1
1
1
1
1
1
1
1
1
1
1
1
1
1
1
1
1
1
1
1
1
1
1
1
1
1
1
1
1
1
1
1
1
1
1
1
1
1
1
1
1
1
1
1
1
1
1
1
1
1
1
1
1
1
1
1
1
1
1
1
1
1
1
1
1
1
1
1
1
1
1
1
1
1
1
1
1
1
1
1
1
1
1
1
1
1
1
1
1
1
1
1
1
1
1
1
1
1
1
1
1
1
1
1
1
1
1
1
1
1
1
1
1
1
1
1
1
1
1
1
1
1
1
1
1
1
1
1
1
1
1
1
1
1
1
1
1
1
1
1
1
1
1
1
1
1
1
1
1
1
1
1
1
1
1
1
1
1
1
1
1
1
1
1
1
1
1
1
1
1
1
1
1
1
1
1
1
1
1
1
1
1
1
1
1
1
1
1
1
1
1
1
1
1
1
1
1
1
1
1
1
1
1
1
1
1
1
1
1
1
1
1
1
1
1
1
1
1
1
1
1
1
1
1
1
1
1
1
1
1
1
1
1
1
1
1
1
1
1
1
1
1
1
1
1
1
1
1
1
1
1
1
1
1
1
1
1
1
1
1
1.16989
0.150625
0.0618181
0.0518554
0.048708
0.0615756
0.0871211
0.139947
0.228209
0.295335
0.337534
0.406383
0.477496
0.52195
0.597672
0.700908
0.808467
0.876638
0.936346
0.958839
0.960139
0.968946
0.97618
1.00147
1.04574
1.07577
1.0954
1.09926
1.09983
1.11588
1.15367
1.20068
1.21849
1.22456
1.19994
1.17286
1.17995
1.21924
1.28378
1.31091
1.32022
1.29389
1.25736
1.25441
1.26213
1.28405
1.30593
1.31577
1.31873
1.31833
1.3218
1.33227
1.34246
1.34512
1.32831
1.31585
1.31134
1.32103
1.34691
2.90315
5.04274
5.50617
5.67261
5.75088
5.77879
5.80326
5.82082
5.85085
5.8744
5.87706
5.86327
5.85608
5.87165
5.8994
5.91391
5.89829
5.85207
5.79523
5.74382
5.69966
5.65502
5.60267
5.54814
5.50286
5.47134
5.44388
5.40658
5.35597
5.29772
5.24114
5.19804
5.17513
5.17112
5.17738
5.18221
5.17474
5.14785
5.10264
5.0457
4.98659
4.93612
4.90195
4.88146
4.86329
4.837
4.79755
4.74743
4.69588
4.65491
4.62833
4.61131
4.59316
4.56418
4.5166
4.45599
4.39358
4.33541
4.29099
4.26269
4.24383
4.22774
4.20775
4.17691
4.13546
4.08999
4.04334
3.99739
3.95357
3.91412
3.8807
3.85065
3.82151
3.79375
3.76736
3.74048
3.71052
3.67638
3.63956
3.60222
3.56602
3.53385
3.50619
3.48112
3.45884
3.44026
3.42263
3.40276
3.37917
3.35295
3.32651
3.30003
3.27191
3.24174
3.21013
3.17805
3.14605
3.11515
3.08733
3.06483
3.04465
3.02098
2.99473
2.96447
2.93222
2.9032
2.87737
2.86167
2.85766
2.86141
2.86773
2.87102
2.86595
2.85082
2.81669
2.75534
2.68088
2.60667
2.54757
2.51309
2.49898
2.50694
2.51427
2.51425
2.51025
2.50216
2.49083
2.47218
2.4372
2.39712
2.36788
2.34739
2.32409
2.03952
0.845984
0.508569
0.355398
0.209129
0.135135
0.14499
0.174518
0.179033
0.192
0.216829
0.2565
0.340159
0.402602
0.434688
0.472586
0.539425
0.631837
0.718699
0.793833
0.862852
0.921482
0.959125
0.979992
1.00207
1.02492
1.05008
1.08327
1.1101
1.14211
1.1566
1.15738
1.1522
1.15273
1.16911
1.20328
1.24285
1.26728
1.2709
1.26381
1.25402
1.25251
1.26619
1.29566
1.31555
1.31871
1.31081
1.30606
1.31133
1.32358
1.33022
1.33203
1.32375
1.30605
1.30222
1.31756
1.34875
1.37113
1.36786
2.08415
4.73372
5.72603
5.83007
5.83633
5.80987
5.79695
5.78047
5.80094
5.84185
5.88635
5.90738
5.89933
5.88296
5.87296
5.87078
5.86919
5.84969
5.80304
5.74421
5.68734
5.63916
5.60161
5.56999
5.54095
5.50803
5.46291
5.41035
5.35882
5.31027
5.26605
5.23052
5.20415
5.18098
5.157
5.1335
5.11112
5.08827
5.06416
5.04036
5.01475
4.9815
4.94229
4.89726
4.84745
4.80092
4.76166
4.72947
4.70142
4.6748
4.6464
4.61244
4.57341
4.53216
4.49102
4.44993
4.4052
4.36071
4.3201
4.28401
4.25233
4.22432
4.19729
4.16511
4.12517
4.08258
4.03732
3.99116
3.94905
3.91387
3.88874
3.86621
3.8387
3.80755
3.77198
3.73198
3.6939
3.65814
3.62405
3.59197
3.56373
3.54126
3.52286
3.49977
3.47215
3.44308
3.41564
3.39154
3.37158
3.35191
3.32886
3.30301
3.27328
3.23908
3.20437
3.172
3.1445
3.12288
3.10319
3.08127
3.05579
3.02886
3.00011
2.96859
2.93433
2.90202
2.88008
2.8666
2.86366
2.87288
2.88025
2.87294
2.85126
2.81734
2.76699
2.70946
2.65832
2.6226
2.5921
2.5543
2.5263
2.5131
2.50561
2.50193
2.49621
2.48649
2.47199
2.45268
2.43256
2.41515
2.39078
2.35693
2.32299
2.93404
1.74941
1.11272
0.846666
0.60925
0.360196
0.330918
0.333507
0.308471
0.295592
0.302964
0.324322
0.345026
0.359351
0.357449
0.351313
0.362919
0.419477
0.515772
0.625029
0.722372
0.794216
0.862463
0.901312
0.943528
0.984367
1.02597
1.0873
1.1442
1.16505
1.1631
1.15991
1.15931
1.16797
1.20546
1.24169
1.24792
1.23979
1.23282
1.23434
1.25838
1.29165
1.31058
1.31584
1.31171
1.30054
1.29848
1.31409
1.33821
1.34276
1.33265
1.30605
1.29353
1.29411
1.31983
1.36116
1.37077
1.36703
1.34239
1.48974
4.0753
6.37843
6.32858
6.04246
5.92218
5.82449
5.77585
5.75939
5.77962
5.84058
5.90979
5.93333
5.90288
5.8583
5.82885
5.82014
5.82191
5.79814
5.74075
5.67671
5.62419
5.59385
5.58358
5.57517
5.54227
5.48413
5.42363
5.37103
5.33036
5.29958
5.27298
5.24465
5.20882
5.16383
5.1137
5.06789
5.03616
5.02015
5.01836
5.02452
5.01722
4.97024
4.90707
4.83913
4.77988
4.73516
4.71331
4.70727
4.69054
4.65367
4.60522
4.55559
4.50848
4.46803
4.43423
4.40415
4.37309
4.33967
4.30685
4.27247
4.23328
4.1931
4.15214
4.10691
4.05979
4.01462
3.97568
3.94376
3.9231
3.9068
3.88284
3.85356
3.8157
3.76763
3.71549
3.67024
3.63671
3.60923
3.58678
3.57177
3.55724
3.53464
3.5082
3.47859
3.44343
3.40959
3.38653
3.36729
3.34698
3.32056
3.28776
3.25293
3.21976
3.19233
3.17236
3.15649
3.13928
3.11808
3.08795
3.04666
3.00687
2.97524
2.94926
2.9289
2.91547
2.91335
2.91464
2.90934
2.89552
2.86363
2.81718
2.7688
2.72951
2.69944
2.67768
2.66384
2.65631
2.64273
2.61644
2.57191
2.53604
2.52364
2.51191
2.49659
2.47802
2.45923
2.44168
2.4269
2.41067
2.38834
2.35855
2.32211
3.52668
2.49069
1.77209
1.36544
1.05224
0.77853
0.672368
0.605013
0.493332
0.438385
0.445452
0.452701
0.444464
0.431263
0.417984
0.40103
0.40515
0.416952
0.430201
0.461314
0.520469
0.58208
0.65864
0.739001
0.814427
0.883347
0.939893
1.00683
1.08659
1.10866
1.1164
1.12692
1.13674
1.15751
1.19767
1.22717
1.23041
1.22545
1.22571
1.23937
1.27093
1.29093
1.29348
1.28983
1.27725
1.27805
1.29185
1.32039
1.3338
1.33299
1.31833
1.29632
1.29301
1.30445
1.3322
1.35117
1.35247
1.3433
1.32563
1.33746
3.37354
6.7707
6.84704
6.30784
6.09779
5.9645
5.8592
5.78621
5.7593
5.79998
5.88424
5.93851
5.91659
5.85826
5.80718
5.77792
5.77208
5.77247
5.74211
5.69626
5.65028
5.61176
5.58394
5.55648
5.51701
5.47343
5.43197
5.39493
5.3623
5.32927
5.29079
5.24902
5.20668
5.16165
5.11369
5.07089
5.03828
5.01709
5.00516
5.00018
4.98805
4.94479
4.8917
4.83426
4.77885
4.74152
4.72183
4.70937
4.68147
4.63972
4.59351
4.53982
4.49032
4.45295
4.41966
4.39203
4.37333
4.35635
4.32871
4.29021
4.23976
4.17952
4.12468
4.07908
4.0415
4.01135
3.99023
3.97295
3.94851
3.91837
3.8836
3.8408
3.79467
3.7504
3.70922
3.67056
3.63729
3.61317
3.59338
3.57666
3.55604
3.53078
3.50577
3.4795
3.44952
3.41586
3.38332
3.35551
3.32677
3.29487
3.26469
3.23975
3.21958
3.20413
3.18996
3.17198
3.14954
3.1196
3.07598
3.02918
2.99441
2.97224
2.95683
2.94962
2.95438
2.95257
2.93682
2.90758
2.86266
2.81264
2.76312
2.72333
2.69307
2.67452
2.66696
2.67753
2.68398
2.67484
2.65847
2.62532
2.56672
2.51623
2.48999
2.47088
2.45098
2.4345
2.42365
2.41385
2.40102
2.38602
2.36846
2.33215
3.9968
3.03796
2.35124
1.9154
1.51162
1.15171
1.02317
0.926908
0.792541
0.690948
0.649145
0.596921
0.568961
0.566114
0.543635
0.503305
0.493388
0.489865
0.482664
0.489079
0.496121
0.498897
0.507621
0.525546
0.560901
0.621625
0.707396
0.812151
0.940362
1.01316
1.05294
1.08478
1.10464
1.13121
1.1685
1.1952
1.21055
1.22712
1.23432
1.24507
1.2613
1.27049
1.26989
1.26375
1.26355
1.27079
1.28752
1.30965
1.31601
1.31619
1.31285
1.30881
1.31024
1.31805
1.32844
1.33243
1.33083
1.32589
1.33189
1.37358
2.72796
6.83605
7.24478
6.50602
6.21649
6.08607
5.96394
5.85302
5.77689
5.79165
5.87279
5.92652
5.91592
5.86586
5.80374
5.76249
5.74479
5.74571
5.7368
5.70765
5.66937
5.61974
5.56771
5.52108
5.47897
5.45067
5.43448
5.41037
5.37001
5.32149
5.26937
5.2252
5.18875
5.16239
5.14085
5.10984
5.06671
5.02073
4.98161
4.94645
4.91962
4.90149
4.87311
4.83912
4.80458
4.76838
4.73461
4.70073
4.66479
4.62595
4.58109
4.52539
4.46869
4.42878
4.39821
4.37489
4.36545
4.35351
4.3243
4.28711
4.23413
4.16431
4.10851
4.07477
4.05043
4.03837
4.0281
4.00248
3.96133
3.90087
3.8432
3.80209
3.77017
3.74381
3.71942
3.69232
3.65846
3.61936
3.5902
3.567
3.54543
3.52561
3.50632
3.48616
3.46245
3.42909
3.38113
3.3332
3.29971
3.27576
3.25799
3.24393
3.23626
3.2284
3.21148
3.1881
3.14869
3.09315
3.04672
3.01696
3.00054
2.9896
2.98601
2.99193
2.98767
2.96761
2.93232
2.88092
2.81602
2.75835
2.72039
2.69479
2.68129
2.6757
2.68438
2.70303
2.70526
2.6954
2.68043
2.6526
2.59479
2.51963
2.47312
2.45182
2.44062
2.43216
2.42344
2.41302
2.4014
2.38865
2.37777
2.35045
4.34665
3.50165
2.81568
2.3549
1.96867
1.60192
1.39057
1.23043
1.05834
0.963859
0.908406
0.827342
0.731797
0.703783
0.672258
0.62438
0.603975
0.591281
0.564272
0.556531
0.557609
0.549046
0.53863
0.538618
0.53423
0.536303
0.552
0.591631
0.667057
0.768847
0.852616
0.931433
1.00035
1.04862
1.08373
1.12101
1.16859
1.21162
1.24045
1.25108
1.25661
1.25354
1.24454
1.24423
1.25077
1.26211
1.27927
1.29553
1.30419
1.30838
1.31147
1.31462
1.31722
1.31943
1.32004
1.31768
1.32008
1.32895
1.39261
1.63943
2.33322
5.88605
7.35959
6.75259
6.35292
6.11401
5.96722
5.89
5.83806
5.84129
5.89623
5.91977
5.9
5.84726
5.7903
5.74042
5.7062
5.69047
5.68535
5.67391
5.65007
5.6091
5.55118
5.49869
5.46003
5.43576
5.424
5.39189
5.34579
5.29375
5.24655
5.21302
5.18984
5.18184
5.16541
5.13141
5.0823
5.00992
4.94654
4.90876
4.88107
4.87339
4.87325
4.8553
4.82715
4.78836
4.73406
4.67921
4.63746
4.59867
4.55536
4.50336
4.44755
4.40598
4.37824
4.35992
4.35187
4.33464
4.30611
4.27097
4.22389
4.16841
4.12354
4.09471
4.07786
4.06704
4.04195
4.00484
3.94756
3.87252
3.81419
3.78204
3.76023
3.74465
3.73051
3.70946
3.68004
3.63344
3.58678
3.55653
3.535
3.51713
3.5025
3.48496
3.46463
3.43426
3.38068
3.32046
3.28366
3.264
3.249
3.24406
3.24787
3.23615
3.21569
3.18367
3.13132
3.07183
3.03111
3.01401
3.00416
3.00144
3.00694
3.00373
2.98497
2.95698
2.91492
2.8505
2.78386
2.73827
2.70815
2.69342
2.68547
2.68799
2.71079
2.72313
2.71218
2.69571
2.67394
2.64354
2.60434
2.55132
2.48861
2.44681
2.42537
2.41205
2.4009
2.39147
2.38443
2.37885
2.37558
2.35496
4.62981
3.87181
3.24779
2.77131
2.34901
2.01172
1.78058
1.57549
1.35181
1.20335
1.13434
1.04914
0.944951
0.868357
0.814257
0.769401
0.752516
0.732267
0.696828
0.664807
0.651791
0.635872
0.601997
0.585298
0.576956
0.570503
0.572855
0.578621
0.586393
0.599655
0.623573
0.665595
0.737031
0.821071
0.903529
0.978422
1.05562
1.1518
1.20971
1.22607
1.24502
1.25068
1.239
1.23072
1.24162
1.26361
1.27637
1.28002
1.28353
1.29107
1.30153
1.30768
1.31198
1.31262
1.31063
1.31349
1.32526
1.38858
1.72802
2.39116
2.64384
3.9814
6.49678
6.86435
6.53782
6.23009
5.96862
5.89355
5.88152
5.89438
5.89993
5.88931
5.84786
5.80455
5.77478
5.75518
5.73159
5.70126
5.67213
5.64792
5.62387
5.59307
5.55357
5.50456
5.46442
5.43429
5.4119
5.37681
5.33406
5.28674
5.24701
5.21793
5.19853
5.18739
5.16135
5.12656
5.08174
5.0176
4.95043
4.90929
4.88377
4.8752
4.87243
4.84892
4.81698
4.7754
4.71712
4.65312
4.60318
4.56419
4.52658
4.48674
4.44614
4.41063
4.38383
4.36356
4.34063
4.3145
4.285
4.2497
4.21349
4.18423
4.15791
4.1301
4.09879
4.06375
4.02121
3.97216
3.91855
3.86627
3.82319
3.79153
3.76966
3.75319
3.73486
3.71336
3.68106
3.63678
3.59377
3.55925
3.53289
3.51336
3.49624
3.47849
3.45607
3.42264
3.37455
3.32276
3.2898
3.27096
3.26053
3.26165
3.25408
3.23114
3.19885
3.1543
3.10529
3.06487
3.04396
3.03068
3.02319
3.02026
3.01303
2.99419
2.96763
2.93032
2.87921
2.82436
2.77865
2.74567
2.72699
2.71632
2.71361
2.71976
2.71337
2.696
2.67975
2.66285
2.6449
2.6272
2.60694
2.577
2.53041
2.46856
2.4237
2.40245
2.38957
2.37963
2.37396
2.37718
2.37949
2.35833
4.84131
4.16968
3.61517
3.14293
2.70866
2.38948
2.12711
1.88995
1.64863
1.48824
1.35902
1.24124
1.1454
1.06131
0.971012
0.912331
0.888
0.86229
0.836927
0.804178
0.768187
0.735336
0.687978
0.657537
0.653005
0.643448
0.63271
0.627498
0.622953
0.615612
0.606343
0.605949
0.611386
0.629306
0.672353
0.752368
0.850207
0.955972
1.04446
1.1055
1.15042
1.18137
1.19562
1.21278
1.24442
1.27719
1.28649
1.28514
1.27442
1.27264
1.27722
1.28313
1.28974
1.2944
1.30297
1.32646
1.40845
1.74458
2.38948
2.95327
2.99819
3.11296
4.44732
6.2779
6.58199
6.37169
6.10823
5.93766
5.90148
5.87748
5.86454
5.82943
5.79183
5.77015
5.76343
5.78583
5.78706
5.74688
5.68007
5.62614
5.59746
5.5745
5.54678
5.51414
5.47807
5.44557
5.40951
5.36849
5.32447
5.27878
5.24027
5.21063
5.18699
5.16603
5.13848
5.10641
5.07035
5.02867
4.97998
4.92964
4.89132
4.86132
4.83471
4.80572
4.77268
4.73441
4.6892
4.63457
4.58238
4.54215
4.51064
4.48384
4.46035
4.43698
4.40754
4.36967
4.32749
4.28759
4.25472
4.22928
4.20819
4.19238
4.17116
4.14094
4.0955
4.03746
3.98458
3.93875
3.90456
3.88046
3.85748
3.82988
3.79603
3.76021
3.72625
3.69182
3.65781
3.6274
3.60127
3.57422
3.54255
3.50976
3.48189
3.45591
3.42798
3.39523
3.36589
3.34514
3.32382
3.29944
3.2768
3.25478
3.22779
3.19777
3.16211
3.12225
3.09002
3.07612
3.06813
3.05932
3.04446
3.02327
2.99399
2.96244
2.92807
2.88776
2.84739
2.81331
2.79432
2.78051
2.768
2.75535
2.74107
2.7222
2.69413
2.66613
2.64544
2.63142
2.61973
2.60686
2.59235
2.57628
2.55154
2.50769
2.45064
2.40877
2.38934
2.37846
2.36975
2.36464
2.36569
2.34941
5.01989
4.42904
3.92729
3.45758
3.03805
2.72604
2.43923
2.16867
1.92818
1.75934
1.5998
1.43054
1.32635
1.25397
1.16804
1.08763
1.03317
0.982854
0.955752
0.932768
0.892027
0.845775
0.792759
0.751662
0.7436
0.739752
0.728695
0.711559
0.69707
0.673202
0.63217
0.616558
0.617732
0.626169
0.63651
0.652432
0.677035
0.71487
0.775254
0.846308
0.919048
0.99473
1.07339
1.14447
1.20806
1.25349
1.27399
1.28295
1.28653
1.27808
1.25951
1.25764
1.26043
1.27345
1.30588
1.45663
1.80605
2.45082
2.8899
3.05523
3.07584
3.05606
3.23786
4.51306
6.09481
6.35892
6.24831
6.04558
5.93155
5.87351
5.84565
5.80949
5.76814
5.7436
5.73908
5.7652
5.77835
5.75101
5.6935
5.61194
5.55653
5.52464
5.50164
5.49467
5.48214
5.44728
5.40437
5.35558
5.30658
5.26243
5.22394
5.19039
5.16075
5.13249
5.1056
5.07676
5.04736
5.018
4.98607
4.9446
4.89254
4.83957
4.79475
4.75657
4.72445
4.69614
4.66255
4.62319
4.5832
4.54882
4.52225
4.50257
4.48544
4.4609
4.427
4.37497
4.31262
4.26491
4.23486
4.21169
4.19717
4.18653
4.16331
4.12786
4.07302
4.00782
3.95842
3.92975
3.91167
3.90402
3.89143
3.86613
3.82635
3.7637
3.70182
3.65979
3.63528
3.6177
3.5999
3.57893
3.55013
3.5102
3.46865
3.43453
3.40666
3.38739
3.37691
3.37099
3.35465
3.32795
3.28599
3.23818
3.19483
3.16018
3.12946
3.10738
3.09792
3.09821
3.09343
3.07808
3.05318
3.01454
2.96866
2.92319
2.88557
2.85504
2.83258
2.82265
2.82138
2.81831
2.80526
2.78271
2.74631
2.70537
2.67176
2.64483
2.62432
2.60951
2.59801
2.5912
2.58468
2.57331
2.55433
2.52369
2.48594
2.44399
2.40625
2.38458
2.3736
2.36299
2.35135
2.32982
5.15616
4.6374
4.1778
3.7128
3.32844
3.01447
2.71672
2.42052
2.1933
1.9956
1.82749
1.64865
1.52156
1.43142
1.3398
1.26901
1.21269
1.14375
1.06804
1.03133
0.991943
0.940542
0.900875
0.866286
0.827983
0.818117
0.815885
0.801735
0.785705
0.762685
0.715211
0.676231
0.665279
0.657655
0.656632
0.663438
0.671732
0.671829
0.669105
0.673824
0.693865
0.752
0.845053
0.956543
1.06109
1.13512
1.19668
1.24757
1.26811
1.27094
1.26215
1.24198
1.24755
1.27878
1.43748
1.94946
2.47434
2.93002
3.01193
3.05762
3.08077
3.09133
3.11696
3.33674
4.48013
5.88169
6.19577
6.11397
5.97836
5.90584
5.8623
5.8354
5.7904
5.73783
5.71547
5.71594
5.72697
5.71836
5.68759
5.62116
5.5317
5.48224
5.45753
5.45387
5.45871
5.43333
5.39419
5.34425
5.29149
5.24841
5.21248
5.17787
5.14158
5.10563
5.0724
5.04152
5.0151
4.99063
4.96298
4.92816
4.88614
4.83741
4.78403
4.7352
4.69428
4.65926
4.63319
4.61217
4.59245
4.5718
4.54976
4.52389
4.49385
4.4597
4.4154
4.3606
4.30532
4.26126
4.22857
4.20375
4.18276
4.15845
4.13046
4.09419
4.04481
3.99181
3.95989
3.94004
3.93047
3.92263
3.90362
3.8783
3.8369
3.76728
3.69231
3.64698
3.62214
3.60306
3.58588
3.56701
3.54369
3.5094
3.46389
3.42749
3.40912
3.40063
3.39932
3.38585
3.36348
3.3322
3.28608
3.22989
3.17977
3.13915
3.11692
3.10969
3.11681
3.11402
3.09781
3.07599
3.04338
3.00086
2.95258
2.90594
2.86649
2.84437
2.83697
2.84426
2.84961
2.83666
2.81614
2.78316
2.73825
2.69302
2.65906
2.63515
2.61656
2.60069