/*--------------------------------*- C++ -*----------------------------------*\
  =========                 |
  \\      /  F ield         | OpenFOAM: The Open Source CFD Toolbox
   \\    /   O peration     | Website:  https://openfoam.org
    \\  /    A nd           | Version:  10
     \\/     M anipulation  |
\*---------------------------------------------------------------------------*/
FoamFile
{
    format      ascii;
    class       volScalarField;
    location    "3.5";
    object      T;
}
// * * * * * * * * * * * * * * * * * * * * * * * * * * * * * * * * * * * * * //

dimensions      [0 0 0 1 0 0 0];

internalField   nonuniform List<scalar> 
16128
(
1
1
1
1
1
1
1
1
1
1
1
1
1
1
1
1
1
1
1
1
1
1
1
1
1.99944
2.68738
2.6997
2.70434
2.71251
2.72221
2.7333
2.74474
2.755
2.7625
2.76686
2.76914
2.77096
2.77393
2.77924
2.78634
2.79315
2.79795
2.80078
2.80295
2.80579
2.80917
2.81209
2.81413
1
1
1
1
1
1
1
1
1
1
1
1
1
1
1
1
1
1
1
1
1
1
1
1
1.9874
2.68383
2.69957
2.70431
2.71242
2.72204
2.73307
2.74446
2.75468
2.76213
2.76642
2.76864
2.7704
2.77337
2.7787
2.78579
2.79252
2.79716
2.79988
2.80198
2.8048
2.80817
2.81107
2.81321
1
1
1
1
1
1
1
1
1
1
1
1
1
1
1
1
1
1
1
1
1
1
1
1
1.95795
2.67816
2.69884
2.70354
2.71156
2.7211
2.7321
2.74353
2.75379
2.76129
2.76556
2.76773
2.76946
2.77247
2.77788
2.78498
2.79157
2.79598
2.79853
2.80056
2.8033
2.80666
2.80945
2.81156
1
1
1
1
1
1
1
1
1
1
1
1
1
1
1
1
1
1
1
1
1
1
1
1
1.91268
2.66834
2.69745
2.70205
2.70993
2.71931
2.73021
2.74166
2.75208
2.75979
2.76417
2.76634
2.76801
2.77097
2.77637
2.78342
2.78986
2.79406
2.7965
2.79852
2.80125
2.80467
2.80705
2.80917
1
1
1
1
1
1
1
1
1
1
1
1
1
1
1
1
1
1
1
1
1
1
1
1
1.85135
2.65335
2.69551
2.69976
2.70742
2.71656
2.7273
2.73877
2.74947
2.75761
2.76234
2.76464
2.76626
2.7691
2.77434
2.78127
2.78758
2.79161
2.79396
2.79606
2.79893
2.80254
2.80344
2.80599
1
1
1
1
1
1
1
1
1
1
1
1
1
1
1
1
1
1
1
1
1
1
1
1
1.77208
2.63136
2.69358
2.69683
2.70403
2.71277
2.7232
2.73464
2.74565
2.75443
2.75974
2.76235
2.76396
2.76659
2.77154
2.77827
2.78449
2.78847
2.79082
2.79294
2.79549
2.79864
2.79993
2.80213
1
1
1
1
1
1
1
1
1
1
1
1
1
1
1
1
1
1
1
1
1
1
1
1
1.67361
2.60115
2.69204
2.69356
2.69982
2.70786
2.71781
2.72909
2.74041
2.74995
2.75611
2.75925
2.76095
2.76333
2.76783
2.77423
2.78037
2.78444
2.78693
2.78918
2.79163
2.79435
2.79528
2.79777
1
1
1
1
1
1
1
1
1
1
1
1
1
1
1
1
1
1
1
1
1
1
1
1
1.55655
2.5614
2.69098
2.69033
2.69567
2.70271
2.71192
2.72276
2.73417
2.74436
2.75146
2.75527
2.75715
2.75927
2.76323
2.76918
2.77525
2.77952
2.78227
2.78484
2.78753
2.78995
2.78862
2.79192
1
1
1
1
1
1
1
1
1
1
1
1
1
1
1
1
1
1
1
1
1
1
1
1
1.41171
2.50294
2.687
2.68603
2.69165
2.69753
2.7056
2.7156
2.72677
2.73746
2.7456
2.75031
2.75259
2.75454
2.75793
2.76328
2.76911
2.77344
2.7763
2.77895
2.78158
2.78371
2.78156
2.78559
1
1
1
1
1
1
1
1
1
1
1
1
1
1
1
1
1
1
1
1
1
1
1
1
1.24498
2.42884
2.68103
2.68003
2.68727
2.69251
2.6994
2.70799
2.71829
2.72905
2.73817
2.74402
2.74702
2.74899
2.75188
2.75656
2.76204
2.7664
2.7693
2.77194
2.77441
2.7761
2.77319
2.77724
1
1
1
1
1
1
1
1
1
1
1
1
1
1
1
1
1
1
1
1
1
1
1
1
1.07336
2.34866
2.67869
2.67772
2.6835
2.68771
2.69338
2.70051
2.70943
2.71951
2.72909
2.73606
2.74005
2.7423
2.74484
2.74885
2.75381
2.75801
2.76073
2.76296
2.76479
2.76622
2.76307
2.76763
1
1
1
1
1
1
1
1
1
1
1
1
1
1
1
1
1
1
1
1
1
1
1
1
1.00217
2.25781
2.67343
2.67346
2.67853
2.68367
2.68897
2.69437
2.70125
2.70991
2.71916
2.72677
2.73168
2.73438
2.73669
2.74005
2.74438
2.74833
2.75089
2.75264
2.75349
2.75431
2.7505
2.75388
1
1
1
1
1
1
1
1
1
1
1
1
1
1
1
1
1
1
1
1
1
1
1
1
1.00001
2.13452
2.6689
2.67417
2.67874
2.68331
2.68735
2.69148
2.69615
2.70209
2.70932
2.71651
2.72184
2.72496
2.72711
2.72994
2.7336
2.73697
2.73869
2.73913
2.73822
2.73786
2.73315
2.73732
1
1
1
1
1
1
1
1
1
1
1
1
1
1
1
1
1
1
1
1
1
1
1
1
1
1.96641
2.63834
2.67059
2.67731
2.683
2.68641
2.68887
2.69148
2.69511
2.70027
2.70606
2.71093
2.71406
2.71616
2.71847
2.72096
2.72332
2.72378
2.72327
2.72134
2.71959
2.71162
2.70868
1
1
1
1
1
1
1
1
1
1
1
1
1
1
1
1
1
1
1
1
1
1
1
1
1
1.75402
2.57039
2.65496
2.66956
2.67924
2.68408
2.6867
2.68863
2.69064
2.69329
2.69695
2.70051
2.70276
2.70428
2.70567
2.70649
2.7075
2.70657
2.70417
2.69848
2.69003
2.67505
2.66847
1
1
1
1
1
1
1
1
1
1
1
1
1
1
1
1
1
1
1
1
1
1
1
1
1
1.45602
2.44898
2.63929
2.65543
2.66686
2.67454
2.67975
2.68325
2.6856
2.68741
2.68925
2.6909
2.6918
2.69205
2.69157
2.69059
2.68945
2.68618
2.68066
2.67049
2.65863
2.64022
2.64492
1
1
1
1
1
1
1
1
1
1
1
1
1
1
1
1
1
1
1
1
1
1
1
1
1
1.10476
2.33284
2.6329
2.63197
2.6418
2.65507
2.66547
2.67278
2.67739
2.68003
2.68135
2.68174
2.68148
2.67984
2.67742
2.67396
2.66995
2.66361
2.65487
2.63808
2.61253
2.54845
2.4047
1
1
1
1
1
1
1
1
1
1
1
1
1
1
1
1
1
1
1
1
1
1
1
1
1
1.00282
2.2253
2.61572
2.61489
2.62282
2.634
2.64592
2.65633
2.66403
2.66906
2.67155
2.67153
2.6705
2.66761
2.66335
2.65712
2.64984
2.63943
2.62512
2.6001
2.55341
2.4786
2.27475
1
1
1
1
1
1
1
1
1
1
1
1
1
1
1
1
1
1
1
1
1
1
1
1
1
0.999992
2.0303
2.60089
2.6157
2.61903
2.62259
2.62934
2.63835
2.64675
2.65376
2.65834
2.65919
2.65819
2.65479
2.64925
2.64059
2.62995
2.6151
2.59462
2.56278
2.50966
2.41412
2.21327
1
1
1
1
1
1
1
1
1
1
1
1
1
1
1
1
1
1
1
1
1
1
1
1
1
0.999998
1.73349
2.53408
2.61413
2.61478
2.61676
2.61927
2.62391
2.6297
2.63608
2.64169
2.64401
2.64357
2.64039
2.63432
2.62416
2.61057
2.59169
2.56613
2.5282
2.4722
2.36714
2.19879
1
1
1
1
1
1
1
1
1
1
1
1
1
1
1
1
1
1
1
1
1
1
1
1
1
1
1.3372
2.39887
2.6061
2.60579
2.60922
2.61149
2.61374
2.61631
2.61971
2.62381
2.62643
2.62643
2.62384
2.61797
2.60742
2.59189
2.57018
2.54084
2.49944
2.44149
2.34008
2.20682
1
1
1
1
1
1
1
1
1
1
1
1
1
1
1
1
1
1
1
1
1
1
1
1
1
1
1.03234
2.25111
2.59842
2.59664
2.5987
2.60275
2.60443
2.60503
2.60556
2.60685
2.60801
2.60774
2.60528
2.59977
2.58955
2.57349
2.55055
2.51891
2.47581
2.41745
2.32672
2.21785
1
1
1
1
1
1
1
1
1
1
1
1
1
1
1
1
1
1
1
1
1
1
1
1
1
1
1.00017
2.033
2.55299
2.58026
2.58901
2.59348
2.59478
2.5946
2.59351
2.59232
2.59096
2.58912
2.58571
2.57997
2.57012
2.55463
2.53206
2.50017
2.45692
2.40013
2.321
2.23071
1
1
1
1
1
1
1
1
1
1
1
1
1
1
1
1
1
1
1
1
1
1
1
1
1
1
0.999999
1.64824
2.46335
2.56624
2.57557
2.58208
2.58486
2.58459
2.5829
2.58018
2.57651
2.5723
2.56695
2.55996
2.54979
2.53487
2.51352
2.4832
2.44209
2.38844
2.31869
2.24239
1
1
1
1
1
1
1
1
1
1
1
1
1
1
1
1
1
1
1
1
1
1
1
1
1
1
1
1.15124
2.31691
2.56236
2.55944
2.56396
2.56957
2.57144
2.57051
2.56792
2.56332
2.55738
2.54997
2.54109
2.52978
2.51478
2.49457
2.46631
2.42899
2.37952
2.31851
2.25357
1
1
1
1
1
1
1
1
1
1
1
1
1
1
1
1
1
1
1
1
1
1
1
1
1
1
1
1.00562
2.15311
2.52964
2.53577
2.54569
2.55179
2.55531
2.55592
2.55447
2.55035
2.54382
2.53506
2.52437
2.51145
2.49563
2.47586
2.44897
2.41554
2.37156
2.31833
2.26237
1
1
1
1
1
1
1
1
1
1
1
1
1
1
1
1
1
1
1
1
1
1
1
1
1
1
1
0.999981
1.7777
2.46677
2.52021
2.53002
2.53598
2.53966
2.54103
2.54008
2.5367
2.53053
2.52143
2.50975
2.49557
2.47871
2.45841
2.43219
2.40163
2.3628
2.31729
2.26835
1
1
1
1
1
1
1
1
1
1
1
1
1
1
1
1
1
1
1
1
1
1
1
1
1
1
1
0.999994
1.23228
2.33084
2.52426
2.5168
2.51844
2.52164
2.52337
2.52301
2.52075
2.51575
2.50752
2.496
2.48135
2.46406
2.44266
2.41719
2.38829
2.35304
2.31422
2.27015
1
1
1
1
1
1
1
1
1
1
1
1
1
1
1
1
1
1
1
1
1
1
1
1
1
1
1
0.999999
1.01305
2.16288
2.49681
2.4962
2.5011
2.50361
2.50505
2.505
2.50347
2.49959
2.49265
2.48231
2.46848
2.45101
2.42934
2.40485
2.37703
2.3442
2.30988
2.26981
1
1
1
1
1
1
1
1
1
1
1
1
1
1
1
1
1
1
1
1
1
1
1
1
1
1
1
1
1
1.73503
2.42568
2.48464
2.48845
2.48989
2.48991
2.48896
2.48668
2.4828
2.47662
2.46751
2.45501
2.43838
2.41768
2.39437
2.36741
2.33677
2.30487
2.26785
1
1
1
1
1
1
1
1
1
1
1
1
1
1
1
1
1
1
1
1
1
1
1
1
1
1
1
1
0.999996
1.14954
2.27553
2.49024
2.47943
2.47675
2.47516
2.47275
2.46962
2.4656
2.45986
2.45172
2.44044
2.42564
2.40685
2.38515
2.3594
2.33085
2.30055
2.26581
1
1
1
1
1
1
1
1
1
1
1
1
1
1
1
1
1
1
1
1
1
1
1
1
1
1
1
1
0.999999
1.00518
2.05311
2.4506
2.4571
2.46174
2.4603
2.4575
2.45398
2.44952
2.4436
2.43576
2.42541
2.41196
2.39527
2.37557
2.35171
2.32525
2.29661
2.26401
1
1
1
1
1
1
1
1
1
1
1
1
1
1
1
1
1
1
1
1
1
1
1
1
1
1
1
1
1
0.999985
1.5185
2.34181
2.44657
2.44821
2.44728
2.44497
2.4413
2.4362
2.42945
2.42101
2.41072
2.39795
2.38281
2.36512
2.34353
2.31924
2.29288
2.26275
1
1
1
1
1
1
1
1
1
1
1
1
1
1
1
1
1
1
1
1
1
1
1
1
1
1
1
1
1
0.999995
1.068
2.16004
2.43693
2.43314
2.43226
2.43061
2.4277
2.42279
2.41569
2.4068
2.39636
2.38403
2.36993
2.35379
2.33416
2.31197
2.28817
2.26077
1
1
1
1
1
1
1
1
1
1
1
1
1
1
1
1
1
1
1
1
1
1
1
1
1
1
1
1
1
0.999999
1.00086
1.74236
2.35461
2.41205
2.41372
2.4151
2.41383
2.40978
2.40293
2.39405
2.38356
2.37136
2.3576
2.34216
2.32406
2.30387
2.28238
2.25768
1
1
1
1
1
1
1
1
1
1
1
1
1
1
1
1
1
1
1
1
1
1
1
1
1
1
1
1
1
1
0.999998
1.15898
2.19022
2.4088
2.40054
2.4012
2.39961
2.39565
2.38945
2.38124
2.37125
2.35943
2.34595
2.33092
2.31384
2.29516
2.27535
2.2531
1
1
1
1
1
1
1
1
1
1
1
1
1
1
1
1
1
1
1
1
1
1
1
1
1
1
1
1
1
1
1
1.00538
1.87041
2.35573
2.37716
2.38121
2.38066
2.37836
2.37393
2.36729
2.35858
2.34775
2.33492
2.32043
2.30418
2.28648
2.26775
2.24741
1
1
1
1
1
1
1
1
1
1
1
1
1
1
1
1
1
1
1
1
1
1
1
1
1
1
1
1
1
1
1
1
1.24542
2.19933
2.37734
2.36942
2.36656
2.36329
2.35884
2.35292
2.34522
2.33543
2.32353
2.30991
2.29468
2.27794
2.26008
2.24108
1
1
1
1
1
1
1
1
1
1
1
1
1
1
1
1
1
1
1
1
1
1
1
1
1
1
1
1
1
1
1
1
1.01326
1.92783
2.33764
2.35245
2.34915
2.34607
2.34221
2.33699
2.33015
2.32149
2.31094
2.29868
2.28485
2.26941
2.25256
2.23453
1
1
1
1
1
1
1
1
1
1
1
1
1
1
1
1
1
1
1
1
1
1
1
1
1
1
1
1
1
1
1
1
1.00004
1.30071
2.18834
2.34789
2.33864
2.33393
2.32903
2.32312
2.3163
2.30831
2.2989
2.28788
2.27519
2.26088
2.24506
2.22792
1
1
1
1
1
1
1
1
1
1
1
1
1
1
1
1
1
1
1
1
1
1
1
1
1
1
1
1
1
1
1
1
1
1.0202
1.93198
2.31008
2.32512
2.32052
2.31533
2.3092
2.30215
2.29423
2.28532
2.27519
2.26369
2.25076
2.23644
2.22085
1
1
1
1
1
1
1
1
1
1
1
1
1
1
1
1
1
1
1
1
1
1
1
1
1
1
1
1
1
1
1
1
1
1.0001
1.31567
2.1569
2.31572
2.30867
2.30386
2.2974
2.28971
2.28143
2.27259
2.26302
2.25255
2.24097
2.22807
2.21391
1
1
1
1
1
1
1
1
1
1
1
1
1
1
1
1
1
1
1
1
1
1
1
1
1
1
1
1
1
1
1
1
1
1
1.02227
1.87739
2.27301
2.2988
2.29194
2.28504
2.27737
2.26925
2.26056
2.25124
2.24126
2.2305
2.2187
2.2056
1
1
1
1
1
1
1
1
1
1
1
1
1
1
1
1
1
1
1
1
1
1
1
1
1
1
1
1
1
1
1
1
1
1
1.00014
1.27839
2.10708
2.28559
2.27892
2.2737
2.2665
2.25853
2.24996
2.24086
2.23115
2.22078
2.20959
2.19727
1
1
1
1
1
1
1
1
1
1
1
1
1
1
1
1
1
1
1
1
1
1
1
1
1
1
1
1
1
1
1
1
1
1
1
1.01701
1.76085
2.22207
2.26823
2.26055
2.25386
2.24712
2.23971
2.23132
2.22195
2.21167
2.2005
2.18855
1
1
1
1
1
1
1
1
1
1
1
1
1
1
1
1
1
1
1
1
1
1
1
1
1
1
1
1
1
1
1
1
1
1
1
1.00011
1.19833
2.03771
2.25444
2.24688
2.24309
2.23785
2.23103
2.22266
2.21319
2.20291
2.19184
2.18015
1
1
1
1
1
1
1
1
1
1
1
1
1
1
1
1
1
1
1
1
1
1
1
1
1
1
1
1
1
1
1
1
1
1
1
1
1.00847
1.58307
2.14552
2.23277
2.22749
2.22388
2.21845
2.21147
2.20302
2.19351
2.18328
2.1722
1
1
1
1
1
1
1
1
1
1
1
1
1
1
1
1
1
1
1
1
1
1
1
1
1
1
1
1
1
1
1
1
1
1
1
1
1.00005
1.10417
1.93429
2.22053
2.2153
2.21038
2.20487
2.19945
2.19273
2.18445
2.17511
2.16483
1
1
1
1
1
1
1
1
1
1
1
1
1
1
1
1
1
1
1
1
1
1
1
1
1
1
1
1
1
1
1
1
1
1
1
1
1
1.00244
1.40412
2.07861
2.20142
2.19229
2.18857
2.18421
2.179
2.17248
2.16446
2.15541
1
1
1
1
1
1
1
1
1
1
1
1
1
1
1
1
1
1
1
1
1
1
1
1
1
1
1
1
1
1
1
1
1
1
1
1
1
1.00001
1.04169
1.76157
2.15172
2.18932
2.18096
2.1743
2.16813
2.16183
2.15481
2.14682
1
1
1
1
1
1
1
1
1
1
1
1
1
1
1
1
1
1
1
1
1
1
1
1
1
1
1
1
1
1
1
1
1
1
1
1
1
1
1.00054
1.21779
1.9651
2.17662
2.16898
2.16257
2.15618
2.14977
2.14317
2.13615
1
1
1
1
1
1
1
1
1
1
1
1
1
1
1
1
1
1
1
1
1
1
1
1
1
1
1
1
1
1
1
1
1
1
1
1
1
1
1
1.01063
1.50527
2.06667
2.1575
2.14972
2.14397
2.13833
2.13215
2.12535
1
1
1
1
1
1
1
1
1
1
1
1
1
1
1
1
1
1
1
1
1
1
1
1
1
1
1
1
1
1
1
1
1
1
1
1
1
1
1
1.00008
1.07518
1.79504
2.11903
2.14589
2.13779
2.13033
2.12328
2.11595
1
1
1
1
1
1
1
1
1
1
1
1
1
1
1
1
1
1
1
1
1
1
1
1
1
1
1
1
1
1
1
1
1
1
1
1
1
1
1
1
1.00151
1.26421
1.94428
2.13007
2.12629
2.11973
2.11304
2.10602
1
1
1
1
1
1
1
1
1
1
1
1
1
1
1
1
1
1
1
1
1
1
1
1
1
1
1
1
1
1
1
1
1
1
1
1
1
1
1
1
1.00001
1.01642
1.5114
2.02892
2.11536
2.10896
2.10218
2.09609
1
1
1
1
1
1
1
1
1
1
1
1
1
1
1
1
1
1
1
1
1
1
1
1
1
1
1
1
1
1
1
1
1
1
1
1
1
1
1
1
1
1.00016
1.08079
1.75009
2.0676
2.10506
2.09626
2.08841
1
1
1
1
1
1
1
1
1
1
1
1
1
1
1
1
1
1
1
1
1
1
1
1
1
1
1
1
1
1
1
1
1
1
1
1
1
1
1
1
1
1
1.00182
1.23625
1.88376
2.08603
2.08685
2.08019
1
1
1
1
1
1
1
1
1
1
1
1
1
1
1
1
1
1
1
1
1
1
1
1
1
1
1
1
1
1
1
1
1
1
1
1
1
1
1
1
1
1
1.00001
1.01337
1.43687
1.96655
2.07406
2.07006
1
1
1
1
1
1
1
1
1
1
1
1
1
1
1
1
1
1
1
1
1
1
1
1
1
1
1
1
1
1
1
1
1
1
1
1
1
1
1
1
1
1
1
1.00013
1.05658
1.63649
2.01215
2.0646
1
1
1
1
1
1
1
1
1
1
1
1
1
1
1
1
1
1
1
1
1
1
1
1
1
1
1
1
1
1
1
1
1
1
1
1
1
1
1
1
1
1
1
1
1.00107
1.15624
1.79011
2.02661
1
1
1
1
1
1
1
1
1
1
1
1
1
1
1
1
1
1
1
1
1
1
1
1
1
1
1
1
1
1
1
1
1
1
1
1
1
1
1
1
1
1
1
1
1.00001
1.00619
1.30894
1.87088
1
1
1
1
1
1
1
1
1
1
1
1
1
1
1
1
1
1
1
1
1
1
1
1
1
1
1
1
1
1
1
1
1
1
1
1
1
1
1
1
1
1
1
1
1
1.00005
1.02522
1.46874
1
1
1
1
1
1
1
1
1
1
1
1
1
1
1
1
1
1
1
1
1
1
1
1
1
1
1
1
1
1
1
1
1
1
1
1
1
1
1
1
1
1
1
1
1
1
1.00034
1.07215
1
1
1
1
1
1
1
1
1
1
1
1
1
1
1
1
1
1
1
1
1
1
1
1
1
1
1
1
1
1
1
1
1
1
1
1
1
1
1
1
1
1
1
1
1
1
1
1.00168
1
1
1
1
1
1
1
1
1
1
1
1
1
1
1
1
1
1
1
1
1
1
1
1
1
1
1
1
1
1
1
1
1
1
1
1
1
1
1
1
1
1
1
1
1
1
1
1.00001
1
1
1
1
1
1
1
1
1
1
1
1
1
1
1
1
1
1
1
1
1
1
1
1
1
1
1
1
1
1
1
1
1
1
1
1
1
1
1
1
1
1
1
1
1
1
1
1
1
1
1
1
1
1
1
1
1
1
1
1
1
1
1
1
1
1
1
1
1
1
1
1
1
1
1
1
1
1
1
1
1
1
1
1
1
1
1
1
1
1
1
1
1
1
1
1
1
1
1
1
1
1
1
1
1
1
1
1
1
1
1
1
1
1
1
1
1
1
1
1
1
1
1
1
1
1
1
1
1
1
1
1
1
1
1
1
1
1
1
1
1
1
1
1
1
1
1
1
1
1
1
1
1
1
1
1
1
1
1
1
1
1
1
1
1
1
1
1
1
1
1
1
1
1
1
1
1
1
1
1
1
1
1
1
1
1
1
1
1
1
1
1
1
1
1
1
1
1
1
1
1
1
1
1
1
1
1
1
1
1
1
1
1
1
1
1
1
1
1
1
1
1
1
1
1
1
1
1
1
1
1
1
1
1
1
1
1
1
1
1
1
1
1
1
1
1
1
1
1
1
1
1
1
1
1
1
1
1
1
1
1
1
1
1
1
1
1
1
1
1
1
1
1
1
1
1
1
1
1
1
1
1
1
1
1
1
1
1
1
1
1
1
1
1
1
1
1
1
1
1
1
1
1
1
1
1
1
1
1
1
1
1
1
1
1
1
1
1
1
1
1
1
1
1
1
1
1
1
1
1
1
1
1
1
1
1
1
1
1
1
1
1
1
1
1
1
1
1
1
1
1
1
1
1
1
1
1
1
1
1
1
1
1
1
1
1
1
1
1
1
1
1
1
1
1
1
1
1
1
1
1
1
1
1
1
1
1
1
1
1
1
1
1
1
1
1
1
1
1
1
1
1
1
1
1
1
1
1
1
1
1
1
1
1
1
1
1
1
1
1
1
1
1
1
1
1
1
1
1
1
1
1
1
1
1
1
1
1
1
1
1
1
1
1
1
1
1
1
1
1
1
1
1
1
1
1
1
1
1
1
1
1
1
1
1
1
1
1
1
1
1
1
1
1
1
1
1
1
1
1
1
1
1
1
1
1
1
1
1
1
1
1
1
1
1
1
1
1
1
1
1
1
1
1
1
1
1
1
1
1
1
1
1
1
1
1
1
1
1
1
1
1
1
1
1
1
1
1
1
1
1
1
1
1
1
1
1
1
1
1
1
1
1
1
1
1
1
1
1
1
1
1
1
1
1
1
1
1
1
1
1
1
1
1
1
1
1
1
1
1
1
1
1
1
1
1
1
1
1
1
1
1
1
1
1
1
1
1
1
1
1
1
1
1
1
1
1
1
1
1
1
1
1
1
1
1
1
1
1
1
1
1
1
1
1
1
1
1
1
1
1
1
1
1
1
1
1
1
1
1
1
1
1
1
1
1
1
1
1
1
1
1
1
1
1
1
1
1
1
1
1
1
1
1
1
1
1
1
1
1
1
1
1
1
1
1
1
1
1
1
1
1
1
1
1
1
1
1
1
1
1
1
1
1
1
1
1
1
1
1
1
1
1
1
1
1
1
1
1
1
1
1
1
1
1
1
1
1
1
1
1
1
1
1
1
1
1
1
1
1
1.44329
0.655789
0.675298
0.867159
0.863979
0.856145
0.842803
0.919644
1.04428
1.12611
1.1797
1.25443
1.31366
1.34408
1.38748
1.43494
1.47917
1.51625
1.55885
1.56654
1.55517
1.53584
1.52627
1.53778
1.57432
1.5922
1.59207
1.58144
1.57349
1.57692
1.59256
1.60755
1.60742
1.6027
1.58558
1.57589
1.5805
1.5981
1.61853
1.62121
1.62077
1.60825
1.5952
1.59338
1.59404
1.59933
1.60443
1.60572
1.6067
1.6077
1.61026
1.61408
1.61528
1.61283
1.60184
1.59628
1.59419
1.59733
1.60744
2.1439
2.57165
2.66515
2.70795
2.72579
2.72774
2.72698
2.72528
2.72411
2.72138
2.71633
2.71005
2.70562
2.70453
2.70529
2.70453
2.69913
2.68989
2.67983
2.67069
2.66261
2.6544
2.64482
2.63454
2.62527
2.61778
2.61062
2.60177
2.59076
2.57838
2.56604
2.55555
2.54805
2.54338
2.54007
2.53652
2.53088
2.52219
2.51122
2.49892
2.48666
2.47587
2.46767
2.46175
2.45615
2.44905
2.43968
2.42875
2.41801
2.40913
2.40258
2.39772
2.39271
2.38582
2.37601
2.36442
2.35279
2.34186
2.33308
2.32701
2.32272
2.31901
2.31456
2.30817
2.30001
2.29119
2.28215
2.2732
2.26461
2.25684
2.25017
2.24405
2.23805
2.23238
2.22704
2.22152
2.21525
2.20812
2.20044
2.19268
2.18535
2.17898
2.17336
2.16816
2.16352
2.15963
2.15573
2.15107
2.14561
2.13977
2.134
2.12823
2.12214
2.11563
2.10889
2.10207
2.09545
2.08915
2.08326
2.07826
2.07359
2.06796
2.06157
2.05438
2.04698
2.0405
2.03516
2.0324
2.03212
2.03337
2.03482
2.03516
2.03256
2.02707
2.01774
2.003
1.9856
1.96899
1.95606
1.94901
1.94655
1.94864
1.95056
1.95069
1.94967
1.94736
1.94412
1.93891
1.92994
1.92023
1.91341
1.90861
1.90248
1.7452
1.30191
1.15416
1.06345
0.92902
0.834112
0.854684
0.895234
0.892051
0.914455
0.952357
1.00501
1.09353
1.16267
1.19267
1.21618
1.25626
1.31579
1.37184
1.42072
1.45903
1.47845
1.48722
1.49764
1.5182
1.53499
1.54357
1.54942
1.55425
1.56593
1.57168
1.57084
1.5648
1.56022
1.56234
1.57652
1.59471
1.60169
1.60051
1.59401
1.58708
1.58594
1.5924
1.60401
1.60827
1.60713
1.60094
1.59726
1.59845
1.60284
1.60522
1.60537
1.60113
1.5925
1.58922
1.59326
1.60383
1.61051
1.60881
1.89708
2.50706
2.6834
2.72276
2.72972
2.72655
2.72146
2.71489
2.71265
2.71153
2.7105
2.70693
2.7007
2.6946
2.69051
2.68781
2.68504
2.67966
2.67099
2.66098
2.65128
2.64278
2.63563
2.62905
2.62261
2.61547
2.60635
2.59588
2.58525
2.57479
2.5647
2.55565
2.54778
2.54025
2.53253
2.5248
2.51725
2.50985
2.50237
2.49481
2.48692
2.47832
2.46938
2.45978
2.44958
2.4399
2.4313
2.42376
2.4168
2.41007
2.40314
2.39541
2.38704
2.37845
2.37005
2.36178
2.35298
2.34427
2.33626
2.32904
2.32257
2.31666
2.31082
2.30409
2.29612
2.2878
2.27915
2.27043
2.26242
2.25554
2.25033
2.24553
2.23989
2.23365
2.22654
2.2186
2.21094
2.20358
2.19655
2.18993
2.18405
2.17937
2.17554
2.17085
2.16535
2.15953
2.1539
2.14873
2.14418
2.13962
2.13439
2.12854
2.12184
2.11436
2.10706
2.10042
2.09474
2.09026
2.08617
2.08159
2.07604
2.06978
2.06288
2.05549
2.04792
2.04111
2.03639
2.03323
2.03239
2.03439
2.03551
2.03304
2.02695
2.01835
2.0065
1.99324
1.98187
1.97429
1.96777
1.95935
1.95289
1.94963
1.94766
1.94684
1.94541
1.9428
1.93901
1.93412
1.9291
1.92481
1.91892
1.91091
1.90225
1.91549
1.65544
1.45588
1.33974
1.22923
1.08057
1.05381
1.04681
1.01104
0.998471
1.00894
1.03409
1.0541
1.06758
1.06587
1.05841
1.06862
1.11458
1.18403
1.2543
1.31585
1.35601
1.38933
1.40734
1.42824
1.45041
1.47177
1.49791
1.52203
1.53182
1.5314
1.52918
1.52748
1.5294
1.54326
1.55825
1.56114
1.55745
1.55334
1.5536
1.56314
1.57691
1.58432
1.5859
1.58391
1.57795
1.57554
1.5796
1.58688
1.58811
1.58448
1.57551
1.57152
1.57218
1.58188
1.5936
1.59501
1.59277
1.58258
1.63973
2.35964
2.73583
2.75221
2.72638
2.71218
2.69783
2.68686
2.67906
2.67485
2.67306
2.67157
2.66659
2.65666
2.64753
2.64216
2.63987
2.63883
2.6342
2.62534
2.61552
2.60707
2.60156
2.59872
2.596
2.58972
2.57985
2.56936
2.55972
2.55154
2.54455
2.53788
2.53066
2.52226
2.51247
2.50203
2.49236
2.48457
2.47857
2.47414
2.47017
2.46467
2.45385
2.44172
2.4295
2.41915
2.41126
2.40644
2.40352
2.39854
2.39041
2.38043
2.37049
2.36152
2.35401
2.34753
2.34141
2.33519
2.32876
2.3224
2.31552
2.30763
2.29952
2.29142
2.28283
2.27407
2.26569
2.2584
2.25232
2.24812
2.24467
2.24004
2.23458
2.22751
2.21851
2.20871
2.19999
2.19318
2.18743
2.1826
2.17908
2.17572
2.17121
2.16628
2.16087
2.15437
2.14795
2.14342
2.13938
2.13474
2.12865
2.12131
2.11359
2.10635
2.10046
2.09625
2.0929
2.08932
2.08519
2.07937
2.07093
2.06241
2.05539
2.04944
2.04463
2.04118
2.04018
2.03979
2.03792
2.03423
2.02668
2.01584
2.00483
1.99565
1.98856
1.98364
1.9806
1.97867
1.97548
1.96979
1.96005
1.9519
1.94874
1.94574
1.94191
1.93743
1.93303
1.92909
1.92581
1.92202
1.91662
1.90955
1.90027
1.99201
1.81619
1.6548
1.54008
1.43158
1.32013
1.2744
1.235
1.1558
1.10714
1.11252
1.11968
1.11677
1.11182
1.10177
1.08264
1.08336
1.09132
1.1016
1.12625
1.1684
1.20878
1.2546
1.29706
1.33294
1.36338
1.38861
1.41873
1.45426
1.46658
1.47114
1.47544
1.47891
1.48703
1.5039
1.51474
1.5148
1.51257
1.51307
1.51977
1.53375
1.54224
1.54298
1.54118
1.53619
1.53617
1.54054
1.54976
1.55395
1.55357
1.54899
1.54332
1.54347
1.54967
1.55998
1.56385
1.56265
1.55724
1.55048
1.55485
2.1953
2.73315
2.75742
2.69623
2.66996
2.65214
2.63606
2.62068
2.60873
2.6041
2.60153
2.59744
2.58719
2.57491
2.56755
2.56412
2.56362
2.56391
2.56055
2.55496
2.5487
2.54299
2.53853
2.53398
2.52766
2.52064
2.51373
2.50725
2.50129
2.49524
2.48846
2.48131
2.47424
2.46697
2.45931
2.45185
2.44482
2.43829
2.4324
2.42713
2.42053
2.40988
2.39952
2.38989
2.38145
2.37577
2.37235
2.36964
2.36409
2.35598
2.34706
2.33724
2.32842
2.32172
2.31589
2.31117
2.30792
2.30486
2.29993
2.29298
2.28393
2.27326
2.26344
2.25511
2.24806
2.24221
2.23795
2.23454
2.23025
2.22527
2.21963
2.21268
2.20502
2.1975
2.19024
2.18306
2.17651
2.17131
2.16683
2.16306
2.15884
2.15418
2.15002
2.1459
2.1412
2.13569
2.12996
2.12461
2.11862
2.11165
2.10481
2.099
2.09426
2.09062
2.08755
2.08421
2.08032
2.07499
2.06689
2.05785
2.05091
2.04625
2.0426
2.04032
2.04048
2.03925
2.03512
2.02839
2.01782
2.00617
1.9951
1.98638
1.97983
1.9757
1.97396
1.97575
1.9766
1.97439
1.97098
1.96414
1.95148
1.93994
1.93357
1.929
1.92438
1.92068
1.91847
1.91653
1.91379
1.91038
1.90627
1.89734
2.05306
1.90348
1.77652
1.68434
1.57934
1.4601
1.41825
1.38014
1.31835
1.26387
1.24027
1.21033
1.19435
1.19291
1.1781
1.14954
1.14064
1.13819
1.13356
1.13745
1.14204
1.14416
1.15053
1.16387
1.18629
1.22155
1.26621
1.31648
1.37276
1.4035
1.41941
1.43117
1.43843
1.44884
1.46449
1.47644
1.48281
1.48722
1.48837
1.49254
1.50015
1.50492
1.50529
1.50396
1.50394
1.50645
1.51226
1.51979
1.52171
1.52173
1.52093
1.52066
1.52204
1.52641
1.52998
1.53035
1.52909
1.52675
1.52966
1.5448
1.9722
2.64882
2.71363
2.63043
2.5947
2.57812
2.56246
2.54503
2.52775
2.5221
2.52045
2.51595
2.50686
2.49522
2.48635
2.48219
2.48136
2.48283
2.48321
2.48152
2.47783
2.47177
2.46488
2.45847
2.45247
2.44802
2.44494
2.44067
2.43427
2.42697
2.41954
2.41354
2.40891
2.40578
2.40318
2.39886
2.39209
2.38387
2.37568
2.36722
2.35939
2.3531
2.34619
2.34003
2.33506
2.33051
2.32634
2.32173
2.31622
2.30971
2.30191
2.29241
2.28296
2.27643
2.27179
2.26862
2.26762
2.26621
2.26195
2.25612
2.2476
2.23623
2.22676
2.22059
2.21585
2.21314
2.21093
2.20664
2.20023
2.19091
2.18214
2.17611
2.17152
2.16764
2.16377
2.15909
2.15288
2.14545
2.13961
2.13495
2.13091
2.12767
2.12504
2.12263
2.11976
2.11504
2.10721
2.09872
2.09237
2.08731
2.08302
2.07928
2.07674
2.07439
2.07103
2.06723
2.06092
2.05162
2.04394
2.03923
2.0365
2.03429
2.03326
2.03396
2.03243
2.02705
2.0187
2.0073
1.99342
1.98133
1.97337
1.96807
1.96529
1.964
1.96534
1.96889
1.9694
1.9674
1.96421
1.95811
1.94548
1.92874
1.918
1.91322
1.9108
1.90902
1.90727
1.90525
1.90296
1.90038
1.89812
1.89197
2.09794
1.97362
1.85941
1.77333
1.68763
1.59235
1.53575
1.48521
1.41969
1.38139
1.35929
1.32546
1.27968
1.26399
1.24553
1.21822
1.207
1.19972
1.18339
1.17695
1.17707
1.17148
1.1658
1.16433
1.16069
1.16211
1.17243
1.1962
1.23928
1.29225
1.33066
1.36299
1.38991
1.40769
1.42146
1.43725
1.45556
1.46886
1.47689
1.48077
1.48462
1.4845
1.48246
1.48238
1.48457
1.48844
1.49437
1.50038
1.50377
1.50548
1.50669
1.50791
1.50907
1.51015
1.51027
1.50944
1.51027
1.51334
1.53503
1.61505
1.79922
2.4148
2.62371
2.5649
2.52224
2.49531
2.47903
2.46917
2.45901
2.45477
2.45395
2.44914
2.44086
2.43024
2.42175
2.41609
2.41353
2.41333
2.41448
2.41482
2.41349
2.4092
2.40234
2.39597
2.39097
2.38736
2.38508
2.37999
2.37318
2.3659
2.35967
2.35552
2.353
2.35262
2.35126
2.34749
2.34135
2.33136
2.32155
2.31438
2.30794
2.3042
2.30177
2.29759
2.2935
2.28892
2.28246
2.27554
2.26993
2.26425
2.25747
2.24924
2.24061
2.23444
2.23069
2.22862
2.22813
2.22634
2.22267
2.2177
2.21057
2.20184
2.19441
2.1893
2.18606
2.18389
2.17978
2.17409
2.16542
2.15407
2.14546
2.14106
2.13825
2.13629
2.13437
2.13112
2.12626
2.11822
2.10996
2.10456
2.10093
2.09828
2.09656
2.09471
2.09265
2.08889
2.08065
2.07047
2.06385
2.05979
2.05612
2.05423
2.05407
2.0511
2.04736
2.04243
2.03431
2.02509
2.01921
2.01739
2.01637
2.01614
2.01733
2.01643
2.0119
2.00539
1.99633
1.98314
1.96968
1.96059
1.95458
1.95152
1.94971
1.95017
1.95489
1.95738
1.95498
1.95136
1.94667
1.94013
1.93173
1.92055
1.90683
1.89734
1.89273
1.88999
1.88766
1.8858
1.88462
1.88384
1.88354
1.87952
2.1332
2.02794
1.93161
1.84914
1.76483
1.68984
1.63653
1.58204
1.51353
1.46531
1.44233
1.41058
1.36867
1.33545
1.30997
1.28862
1.28124
1.27113
1.25221
1.23411
1.22658
1.21773
1.19913
1.18865
1.18287
1.17834
1.17953
1.18294
1.1877
1.19615
1.2099
1.23375
1.27256
1.313
1.34837
1.37886
1.40953
1.44654
1.46605
1.47081
1.47739
1.47978
1.47576
1.47251
1.47614
1.48351
1.488
1.48955
1.49118
1.49423
1.49804
1.5001
1.50144
1.50157
1.50086
1.50194
1.5058
1.52659
1.6334
1.80672
1.86166
2.11042
2.45345
2.5144
2.48259
2.44971
2.42172
2.41338
2.41128
2.41156
2.40937
2.40462
2.3965
2.38894
2.38375
2.38099
2.3789
2.3766
2.37453
2.37288
2.37091
2.36769
2.3633
2.3579
2.35322
2.34927
2.34591
2.34073
2.33462
2.3282
2.32305
2.31948
2.31731
2.31633
2.31361
2.30979
2.30457
2.29651
2.28741
2.28105
2.27625
2.27352
2.27171
2.26731
2.2626
2.25718
2.24992
2.24178
2.2352
2.22983
2.22439
2.21854
2.21269
2.20781
2.20444
2.20215
2.19956
2.19651
2.19269
2.18764
2.18208
2.17729
2.17275
2.1679
2.16265
2.15706
2.15053
2.14316
2.13527
2.1277
2.12148
2.11698
2.11401
2.11182
2.10923
2.10607
2.10102
2.09383
2.08676
2.0811
2.07689
2.07403
2.07182
2.06977
2.06717
2.06271
2.05553
2.04721
2.04157
2.0379
2.03529
2.0347
2.03248
2.02772
2.02195
2.01478
2.00751
2.00207
2
1.99903
1.99876
1.99893
1.99803
1.99419
1.98835
1.98063
1.97047
1.95977
1.95075
1.9441
1.9403
1.93811
1.93758
1.93892
1.93781
1.93416
1.93047
1.92672
1.92291
1.91939
1.91544
1.90941
1.89968
1.88633
1.87654
1.87226
1.86994
1.8682
1.86738
1.86852
1.86932
1.86517
2.15867
2.06951
1.98859
1.91172
1.83194
1.7692
1.71413
1.65823
1.59471
1.55098
1.51232
1.47283
1.4395
1.40899
1.37332
1.34871
1.33866
1.32728
1.31551
1.30029
1.28313
1.26671
1.24246
1.22593
1.22307
1.2176
1.21153
1.20868
1.206
1.20145
1.19573
1.19547
1.19884
1.2097
1.23441
1.27622
1.32332
1.37083
1.40679
1.42868
1.44405
1.45499
1.46042
1.46676
1.47733
1.48781
1.49087
1.49039
1.48694
1.48651
1.4884
1.49053
1.4925
1.49369
1.49646
1.50423
1.53143
1.63393
1.80085
1.92199
1.93088
1.95218
2.17753
2.41434
2.45762
2.43747
2.40886
2.38973
2.3864
2.38464
2.3828
2.37762
2.37205
2.36817
2.36652
2.36824
2.36791
2.36296
2.35571
2.35001
2.34711
2.34473
2.34179
2.33812
2.33398
2.33006
2.32529
2.31962
2.31353
2.30738
2.30236
2.29871
2.296
2.2937
2.29052
2.28666
2.28219
2.27687
2.27044
2.26345
2.25769
2.25289
2.24866
2.24422
2.23952
2.23443
2.22861
2.22162
2.21476
2.20932
2.20494
2.20115
2.19788
2.19481
2.19114
2.18652
2.18124
2.17616
2.17179
2.16804
2.16451
2.16154
2.15758
2.15225
2.1448
2.13567
2.12759
2.12078
2.11589
2.11257
2.10937
2.10539
2.10036
2.095
2.08996
2.08477
2.07948
2.07472
2.07072
2.0666
2.06171
2.05666
2.05256
2.04891
2.04499
2.04027
2.03605
2.03299
2.02939
2.02486
2.02036
2.01584
2.01042
2.00472
1.99842
1.99208
1.98777
1.98691
1.98695
1.98684
1.98533
1.98214
1.9769
1.97078
1.96383
1.95571
1.94778
1.94118
1.93756
1.93483
1.93234
1.92988
1.92714
1.92337
1.9175
1.91167
1.90747
1.9048
1.90268
1.90036
1.89768
1.89462
1.88972
1.88091
1.86892
1.86006
1.85636
1.85461
1.85315
1.85256
1.85305
1.84963
2.18011
2.10419
2.03402
1.96148
1.89016
1.8342
1.77826
1.71989
1.66343
1.62233
1.57934
1.52851
1.49631
1.47335
1.44441
1.41548
1.39462
1.37387
1.36228
1.35305
1.33627
1.31608
1.29141
1.27116
1.2669
1.26495
1.25964
1.25126
1.24372
1.23091
1.2087
1.1998
1.20043
1.20508
1.21084
1.21973
1.23348
1.25481
1.28743
1.32216
1.35259
1.383
1.41476
1.44313
1.46669
1.48155
1.48733
1.4897
1.49092
1.4884
1.48272
1.48221
1.48286
1.4865
1.49686
1.54738
1.655
1.81545
1.90683
1.93805
1.94516
1.94201
1.9763
2.18625
2.38978
2.42549
2.41375
2.39099
2.37828
2.37338
2.37146
2.36747
2.36169
2.35793
2.3567
2.35858
2.35914
2.35509
2.34794
2.33836
2.33189
2.32845
2.32594
2.32512
2.32363
2.31922
2.31362
2.30708
2.30045
2.29455
2.28955
2.28535
2.28179
2.27847
2.27525
2.27167
2.26793
2.26408
2.25965
2.25377
2.24642
2.23884
2.23224
2.22688
2.22271
2.21913
2.21481
2.20978
2.20461
2.20008
2.19651
2.19384
2.19156
2.18847
2.18422
2.17745
2.16921
2.16288
2.1589
2.15558
2.15299
2.15061
2.1461
2.1398
2.13085
2.12065
2.11311
2.10885
2.10621
2.10521
2.10345
2.09965
2.09354
2.08373
2.07402
2.06783
2.06441
2.06194
2.05937
2.0563
2.05201
2.04588
2.03943
2.03436
2.03025
2.02739
2.02597
2.02523
2.02237
2.01739
2.00953
2.00042
1.99234
1.98635
1.98153
1.97848
1.97783
1.97912
1.97958
1.9783
1.97471
1.96798
1.9594
1.95069
1.94355
1.93775
1.93325
1.93102
1.93086
1.9304
1.92797
1.9236
1.91638
1.90809
1.90133
1.89609
1.89218
1.88942
1.88733
1.8862
1.88514
1.88314
1.8796
1.87357
1.86604
1.85739
1.84944
1.84506
1.84313
1.84117
1.83878
1.83404
2.19637
2.13128
2.06898
2.00026
1.93922
1.88624
1.83167
1.77201
1.7235
1.67847
1.63655
1.5887
1.55392
1.52774
1.49883
1.47578
1.45688
1.43254
1.40433
1.39079
1.37541
1.35442
1.33752
1.3224
1.30519
1.30078
1.29981
1.29329
1.28573
1.27473
1.25165
1.23158
1.22574
1.22152
1.22088
1.22439
1.22878
1.22897
1.22809
1.23079
1.24187
1.27268
1.31831
1.36757
1.41042
1.43858
1.46142
1.47831
1.4843
1.48553
1.48297
1.47653
1.47827
1.4885
1.541
1.69475
1.826
1.9198
1.93153
1.93856
1.94529
1.94858
1.95332
1.9934
2.18109
2.36549
2.40474
2.39523
2.37901
2.37158
2.36797
2.36565
2.35985
2.35267
2.34895
2.34821
2.34857
2.34683
2.34244
2.33408
2.32299
2.31682
2.31394
2.3136
2.31399
2.31037
2.3049
2.29812
2.29104
2.28534
2.28075
2.2765
2.27206
2.26756
2.26337
2.25951
2.25623
2.25305
2.24915
2.24412
2.23817
2.23137
2.22398
2.21727
2.21174
2.20721
2.20391
2.20114
2.19851
2.19587
2.19309
2.18981
2.186
2.18164
2.17587
2.16859
2.16129
2.15538
2.15083
2.14711
2.14363
2.13924
2.134
2.12764
2.11961
2.11138
2.10644
2.10347
2.10225
2.10132
2.09869
2.09481
2.08825
2.07724
2.06537
2.05819
2.05446
2.0519
2.04958
2.04692
2.04357
2.03858
2.03174
2.02629
2.02361
2.02242
2.0223
2.02002
2.01607
2.01045
2.00216
1.99202
1.98301
1.97602
1.97265
1.97187
1.97387
1.97425
1.97273
1.96998
1.96495
1.95776
1.94918
1.94063
1.93326
1.9289
1.92724
1.92847
1.92926
1.92663
1.92262
1.91616
1.90725
1.89828
1.89158
1.8869
1.88332
1.8803
1.87797
1.87594
1.87373
1.87104
1.86796
1.86498
1.86167
1.85722
1.85027
1.84113
1.83333
1.82782
1.82454
1.82069
2.21022
2.15485
2.09697
2.03367
1.98022
1.92829
1.87325
1.81987
1.77552
1.72964
1.68332
1.64254
1.61325
1.58426
1.5503
1.52392
1.50555