/*--------------------------------*- C++ -*----------------------------------*\
  =========                 |
  \\      /  F ield         | OpenFOAM: The Open Source CFD Toolbox
   \\    /   O peration     | Website:  https://openfoam.org
    \\  /    A nd           | Version:  10
     \\/     M anipulation  |
\*---------------------------------------------------------------------------*/
FoamFile
{
    format      ascii;
    class       volVectorField;
    location    "3.5";
    object      U;
}
// * * * * * * * * * * * * * * * * * * * * * * * * * * * * * * * * * * * * * //

dimensions      [0 1 -1 0 0 0 0];

internalField   nonuniform List<vector> 
16128
(
(3 -9.64188e-15 0)
(3 7.91541e-15 0)
(3 4.21365e-14 0)
(3 2.61805e-14 0)
(3 2.96599e-14 0)
(3 3.39027e-14 0)
(3 3.74069e-14 0)
(3 3.44087e-14 0)
(3 4.03641e-14 0)
(3 5.61084e-14 0)
(3 5.81671e-14 0)
(3 -1.79553e-14 0)
(3 -2.77201e-14 0)
(3 -6.0869e-14 0)
(3 -5.80429e-14 0)
(3 -1.45633e-14 0)
(3 5.6494e-15 0)
(3 8.09987e-15 0)
(3 -3.20217e-15 0)
(3 -1.47681e-15 0)
(3 4.89287e-14 0)
(3 6.00427e-14 0)
(3 3.40258e-14 0)
(3 3.99262e-14 0)
(1.57891 0.0076272 0)
(0.784981 0.00675977 0)
(0.727419 0.0136169 0)
(0.696606 0.013533 0)
(0.6648 0.0132066 0)
(0.635082 0.0128158 0)
(0.606273 0.01275 0)
(0.577634 0.0130316 0)
(0.548436 0.0135551 0)
(0.518138 0.0142318 0)
(0.486695 0.014656 0)
(0.455092 0.0145801 0)
(0.424206 0.0144977 0)
(0.393601 0.0148024 0)
(0.362457 0.0152827 0)
(0.330458 0.0157511 0)
(0.297494 0.0162141 0)
(0.263356 0.0168038 0)
(0.228023 0.017541 0)
(0.191377 0.0184092 0)
(0.153216 0.0192476 0)
(0.112717 0.0207063 0)
(0.0687795 0.0221276 0)
(0.0238287 0.0225888 0)
(3 -8.03886e-15 0)
(3 2.04673e-14 0)
(3 7.52275e-14 0)
(3 8.82701e-15 0)
(3 -7.40638e-14 0)
(3 -6.33434e-14 0)
(3 2.30362e-14 0)
(3 6.70179e-14 0)
(3 5.02965e-14 0)
(3 5.19822e-14 0)
(3 3.75771e-14 0)
(3 -7.33025e-15 0)
(3 -1.91894e-14 0)
(3 -5.75512e-14 0)
(3 -3.17448e-14 0)
(3 -1.2554e-15 0)
(3 3.72878e-14 0)
(3 5.01026e-14 0)
(3 2.84523e-14 0)
(3 4.50544e-14 0)
(3 1.1423e-13 0)
(3 1.14214e-13 0)
(3 1.06265e-13 0)
(3 3.6787e-14 0)
(1.5966 0.0372 0)
(0.780185 0.0304454 0)
(0.719141 0.0401839 0)
(0.688204 0.0389355 0)
(0.656364 0.0377793 0)
(0.626573 0.0364669 0)
(0.597752 0.0362346 0)
(0.5692 0.0372412 0)
(0.540109 0.0390814 0)
(0.509894 0.0413593 0)
(0.478473 0.0428042 0)
(0.446872 0.0426731 0)
(0.416003 0.0424893 0)
(0.385486 0.0434864 0)
(0.354534 0.045041 0)
(0.322856 0.0465921 0)
(0.290406 0.0481683 0)
(0.257037 0.0501911 0)
(0.222744 0.0525825 0)
(0.187405 0.0553359 0)
(0.15059 0.0580695 0)
(0.111286 0.0629265 0)
(0.0680733 0.0674394 0)
(0.0244684 0.0689521 0)
(3 4.76302e-15 0)
(3 2.70469e-15 0)
(3 -4.19888e-14 0)
(3 -7.34831e-14 0)
(3 -9.18654e-14 0)
(3 -4.85204e-14 0)
(3 -5.56062e-15 0)
(3 1.59756e-14 0)
(3 4.44642e-14 0)
(3 6.92979e-14 0)
(3 5.37305e-14 0)
(3 4.21222e-14 0)
(3 2.90173e-14 0)
(3 1.72373e-14 0)
(3 4.20116e-14 0)
(3 7.57263e-14 0)
(3 1.11958e-13 0)
(3 8.91359e-14 0)
(3 6.98734e-14 0)
(3 7.19462e-14 0)
(3 4.53759e-14 0)
(3 7.87627e-14 0)
(3 1.35385e-13 0)
(3 9.8423e-14 0)
(1.6513 0.066351 0)
(0.785701 0.0550227 0)
(0.720698 0.0678417 0)
(0.689047 0.0662528 0)
(0.656203 0.0645957 0)
(0.625246 0.0624145 0)
(0.595322 0.0617212 0)
(0.565968 0.0630416 0)
(0.536374 0.0658844 0)
(0.505859 0.0695735 0)
(0.474133 0.0719739 0)
(0.442127 0.0717818 0)
(0.410711 0.0713809 0)
(0.379557 0.0727853 0)
(0.347989 0.0750771 0)
(0.315804 0.0774082 0)
(0.283068 0.0797914 0)
(0.249705 0.0828588 0)
(0.21573 0.0863625 0)
(0.181083 0.0905534 0)
(0.145161 0.0949513 0)
(0.107313 0.103436 0)
(0.0655444 0.11101 0)
(0.0259516 0.114196 0)
(3 -3.33281e-15 0)
(3 -3.8482e-14 0)
(3 -8.94348e-14 0)
(3 -8.25543e-14 0)
(3 -2.20543e-14 0)
(3 7.73959e-14 0)
(3 9.6498e-14 0)
(3 9.29193e-14 0)
(3 1.20125e-13 0)
(3 1.41242e-13 0)
(3 1.05711e-13 0)
(3 9.01761e-14 0)
(3 7.36024e-14 0)
(3 8.21923e-14 0)
(3 1.12823e-13 0)
(3 8.55388e-14 0)
(3 6.80537e-14 0)
(3 2.71733e-14 0)
(3 3.06401e-14 0)
(3 -5.02971e-14 0)
(3 -5.79506e-14 0)
(3 -4.18616e-14 0)
(3 4.11609e-14 0)
(3 9.47561e-14 0)
(1.7353 0.092407 0)
(0.794126 0.0803218 0)
(0.724001 0.0948967 0)
(0.692834 0.093091 0)
(0.660121 0.0913333 0)
(0.628872 0.0886077 0)
(0.598411 0.0875112 0)
(0.568608 0.0890307 0)
(0.538811 0.0927789 0)
(0.508307 0.0978886 0)
(0.4765 0.101443 0)
(0.444141 0.10151 0)
(0.412084 0.101163 0)
(0.380083 0.103119 0)
(0.347594 0.10623 0)
(0.314516 0.109394 0)
(0.281029 0.112534 0)
(0.247113 0.116442 0)
(0.21277 0.120611 0)
(0.177987 0.12583 0)
(0.141851 0.1314 0)
(0.104722 0.143396 0)
(0.0635098 0.153517 0)
(0.030426 0.158113 0)
(3 1.53955e-15 0)
(3 4.78736e-15 0)
(3 -1.65424e-14 0)
(3 -3.35634e-14 0)
(3 5.92379e-15 0)
(3 6.59449e-14 0)
(3 9.32499e-14 0)
(3 1.3478e-13 0)
(3 7.8377e-14 0)
(3 2.37399e-14 0)
(3 4.87467e-14 0)
(3 3.5687e-14 0)
(3 4.96102e-14 0)
(3 6.58282e-14 0)
(3 6.10538e-14 0)
(3 5.33707e-14 0)
(3 -2.27577e-14 0)
(3 -1.98953e-14 0)
(3 -3.85622e-14 0)
(3 -4.64758e-14 0)
(3 -4.20474e-14 0)
(3 -3.54828e-15 0)
(3 6.17105e-14 0)
(3 7.62049e-14 0)
(1.84963 0.116608 0)
(0.805494 0.107009 0)
(0.726643 0.121639 0)
(0.695722 0.11982 0)
(0.663036 0.118412 0)
(0.631507 0.115508 0)
(0.60058 0.113982 0)
(0.570459 0.115363 0)
(0.540754 0.119654 0)
(0.510795 0.126024 0)
(0.479547 0.130884 0)
(0.447392 0.131538 0)
(0.415161 0.131498 0)
(0.382689 0.134122 0)
(0.349502 0.138112 0)
(0.315566 0.142153 0)
(0.281181 0.146034 0)
(0.246439 0.150693 0)
(0.211336 0.155237 0)
(0.175936 0.161408 0)
(0.138658 0.168071 0)
(0.101443 0.183975 0)
(0.0601399 0.195306 0)
(0.0373479 0.199692 0)
(3 1.76547e-14 0)
(3 3.15528e-14 0)
(3 1.84676e-14 0)
(3 5.36397e-14 0)
(3 7.07941e-14 0)
(3 8.92207e-14 0)
(3 3.65932e-14 0)
(3 2.39659e-14 0)
(3 5.95428e-15 0)
(3 -1.07739e-14 0)
(3 5.224e-14 0)
(3 1.52042e-14 0)
(3 -4.29425e-15 0)
(3 -1.39419e-15 0)
(3 -7.95035e-15 0)
(3 -1.37148e-15 0)
(3 1.29774e-14 0)
(3 4.81281e-14 0)
(3 3.81802e-14 0)
(3 2.80789e-14 0)
(3 -8.1382e-14 0)
(3 -3.31724e-14 0)
(3 4.18832e-14 0)
(3 6.6434e-14 0)
(1.99732 0.137518 0)
(0.822176 0.135782 0)
(0.730318 0.147991 0)
(0.699852 0.146188 0)
(0.667447 0.145368 0)
(0.636076 0.142627 0)
(0.605074 0.140755 0)
(0.574873 0.141711 0)
(0.545418 0.146079 0)
(0.516265 0.1534 0)
(0.485955 0.159692 0)
(0.454306 0.161358 0)
(0.422148 0.162014 0)
(0.389444 0.165627 0)
(0.355705 0.170816 0)
(0.320901 0.176047 0)
(0.285427 0.180893 0)
(0.249486 0.186384 0)
(0.213081 0.19105 0)
(0.176691 0.198034 0)
(0.138591 0.205436 0)
(0.102593 0.22471 0)
(0.0615232 0.237369 0)
(0.0285216 0.239991 0)
(3 -5.46522e-15 0)
(3 1.79102e-14 0)
(3 5.72003e-14 0)
(3 5.78645e-14 0)
(3 4.407e-14 0)
(3 -9.51279e-15 0)
(3 -1.18518e-13 0)
(3 -1.35462e-13 0)
(3 -9.17042e-14 0)
(3 -3.51906e-14 0)
(3 2.47736e-14 0)
(3 4.18917e-14 0)
(3 1.06112e-14 0)
(3 1.45437e-14 0)
(3 8.74885e-15 0)
(3 -1.15337e-14 0)
(3 -2.56208e-14 0)
(3 -1.90388e-14 0)
(3 -5.15056e-14 0)
(3 -5.20516e-14 0)
(3 -1.93002e-14 0)
(3 2.62874e-15 0)
(3 1.6747e-16 0)
(3 -7.00691e-14 0)
(2.17782 0.153613 0)
(0.845175 0.16768 0)
(0.733164 0.17378 0)
(0.702842 0.172445 0)
(0.670427 0.172131 0)
(0.639381 0.169843 0)
(0.608524 0.16781 0)
(0.578352 0.168183 0)
(0.549074 0.172147 0)
(0.520704 0.18003 0)
(0.49159 0.187815 0)
(0.460807 0.190886 0)
(0.429224 0.192509 0)
(0.397062 0.197297 0)
(0.363737 0.2039 0)
(0.329082 0.210587 0)
(0.293403 0.216693 0)
(0.256833 0.22335 0)
(0.21916 0.228301 0)
(0.181317 0.236216 0)
(0.141321 0.243543 0)
(0.104474 0.2649 0)
(0.0631396 0.280468 0)
(0.0290668 0.282522 0)
(3 -1.2157e-14 0)
(3 2.10938e-15 0)
(3 -1.01173e-14 0)
(3 -1.92126e-14 0)
(3 -4.47845e-14 0)
(3 -9.83953e-14 0)
(3 -9.61941e-14 0)
(3 -5.36567e-14 0)
(3 -5.23616e-14 0)
(3 -3.1848e-14 0)
(3 -2.8006e-14 0)
(3 -3.20428e-14 0)
(3 -1.24107e-14 0)
(3 3.90409e-14 0)
(3 3.7877e-14 0)
(3 -8.56879e-15 0)
(3 3.85137e-14 0)
(3 5.66193e-14 0)
(3 3.31968e-14 0)
(3 -8.77775e-15 0)
(3 -4.9136e-14 0)
(3 -8.33349e-14 0)
(3 -1.54389e-13 0)
(3 -1.91273e-13 0)
(2.38722 0.165932 0)
(0.87731 0.20521 0)
(0.738474 0.200576 0)
(0.710402 0.199655 0)
(0.677634 0.199825 0)
(0.646496 0.198119 0)
(0.615001 0.19616 0)
(0.583883 0.19595 0)
(0.553587 0.199019 0)
(0.52468 0.206739 0)
(0.495881 0.215682 0)
(0.465533 0.220234 0)
(0.434477 0.22275 0)
(0.403332 0.228587 0)
(0.371341 0.236619 0)
(0.337906 0.244973 0)
(0.302956 0.252783 0)
(0.266449 0.261364 0)
(0.227677 0.267427 0)
(0.188002 0.277153 0)
(0.144787 0.28472 0)
(0.105082 0.307876 0)
(0.0624902 0.322965 0)
(0.040425 0.325292 0)
(3 3.43106e-15 0)
(3 6.662e-15 0)
(3 -2.08047e-14 0)
(3 -4.63291e-15 0)
(3 -2.45545e-14 0)
(3 -1.68893e-14 0)
(3 -9.32719e-15 0)
(3 1.7072e-14 0)
(3 5.18541e-14 0)
(3 5.5881e-14 0)
(3 2.37505e-14 0)
(3 -2.59447e-14 0)
(3 -5.11612e-14 0)
(3 -4.00107e-14 0)
(3 -2.19717e-14 0)
(3 -7.60311e-15 0)
(3 -1.50432e-14 0)
(3 -1.7317e-14 0)
(3 1.03003e-14 0)
(3 2.15379e-14 0)
(3 -1.08515e-13 0)
(3 -2.09351e-13 0)
(3 -1.82095e-13 0)
(3 -1.95771e-13 0)
(2.62726 0.167709 0)
(0.935702 0.242231 0)
(0.760224 0.221583 0)
(0.734507 0.225689 0)
(0.700317 0.227099 0)
(0.66784 0.226802 0)
(0.634089 0.225718 0)
(0.600421 0.225525 0)
(0.56753 0.227776 0)
(0.536342 0.234821 0)
(0.506245 0.244329 0)
(0.475072 0.250074 0)
(0.443386 0.253003 0)
(0.412248 0.259294 0)
(0.380978 0.268444 0)
(0.348525 0.27857 0)
(0.314372 0.288504 0)
(0.278468 0.299782 0)
(0.239357 0.307813 0)
(0.199116 0.320268 0)
(0.15399 0.329036 0)
(0.112457 0.353926 0)
(0.0667963 0.366326 0)
(0.0445502 0.371124 0)
(3 2.12169e-14 0)
(3 1.10478e-14 0)
(3 1.23937e-14 0)
(3 4.75101e-14 0)
(3 7.26642e-14 0)
(3 1.00741e-13 0)
(3 7.61393e-14 0)
(3 3.74184e-15 0)
(3 3.12101e-14 0)
(3 2.98576e-14 0)
(3 4.08481e-14 0)
(3 3.96734e-14 0)
(3 5.28423e-14 0)
(3 7.11894e-14 0)
(3 6.02778e-14 0)
(3 3.10056e-16 0)
(3 -7.2125e-14 0)
(3 -1.92677e-14 0)
(3 4.1032e-14 0)
(3 2.31504e-14 0)
(3 -1.91399e-14 0)
(3 -2.65057e-14 0)
(3 1.28212e-14 0)
(3 -4.52014e-14 0)
(2.86907 0.118946 0)
(1.01802 0.266328 0)
(0.789291 0.233491 0)
(0.769989 0.246039 0)
(0.734686 0.252506 0)
(0.701033 0.255803 0)
(0.665222 0.256663 0)
(0.629149 0.256895 0)
(0.593321 0.258476 0)
(0.558834 0.26464 0)
(0.526005 0.274453 0)
(0.492662 0.281407 0)
(0.458902 0.284578 0)
(0.426118 0.290769 0)
(0.394062 0.300506 0)
(0.361464 0.312208 0)
(0.327247 0.324321 0)
(0.291526 0.338893 0)
(0.251628 0.349769 0)
(0.210663 0.365649 0)
(0.163626 0.376566 0)
(0.119751 0.403431 0)
(0.0705914 0.414102 0)
(0.046496 0.42077 0)
(3 -1.72874e-16 0)
(3 -2.98904e-14 0)
(3 -2.52513e-14 0)
(3 -1.63677e-14 0)
(3 1.75277e-14 0)
(3 2.12194e-14 0)
(3 -6.57309e-15 0)
(3 -2.96729e-14 0)
(3 -5.99956e-14 0)
(3 -5.41525e-14 0)
(3 1.23085e-14 0)
(3 1.34277e-13 0)
(3 2.36985e-13 0)
(3 2.42977e-13 0)
(3 1.67728e-13 0)
(3 1.03346e-13 0)
(3 4.93117e-14 0)
(3 3.43565e-14 0)
(3 4.05204e-14 0)
(3 3.88915e-14 0)
(3 -1.25891e-14 0)
(3 6.25335e-15 0)
(3 2.93297e-14 0)
(3 4.48421e-14 0)
(2.99699 0.0248128 0)
(1.10274 0.276046 0)
(0.79914 0.246699 0)
(0.790303 0.268685 0)
(0.762068 0.278941 0)
(0.732624 0.284204 0)
(0.698899 0.28689 0)
(0.662933 0.289074 0)
(0.625884 0.291478 0)
(0.589204 0.297147 0)
(0.553939 0.306933 0)
(0.518341 0.315038 0)
(0.482003 0.318569 0)
(0.446523 0.324299 0)
(0.412342 0.334014 0)
(0.37849 0.346897 0)
(0.343393 0.360825 0)
(0.307875 0.378701 0)
(0.267835 0.392868 0)
(0.22689 0.412309 0)
(0.178908 0.426253 0)
(0.13331 0.456219 0)
(0.0790565 0.466953 0)
(0.05241 0.475283 0)
(3 -3.27533e-14 0)
(3 -3.19991e-14 0)
(3 -1.07185e-14 0)
(3 -2.75888e-14 0)
(3 -8.55541e-14 0)
(3 -1.23497e-13 0)
(3 -1.22732e-13 0)
(3 -2.41029e-14 0)
(3 -3.14653e-14 0)
(3 -5.33953e-14 0)
(3 7.52722e-14 0)
(3 1.79698e-13 0)
(3 1.52472e-13 0)
(3 1.37423e-13 0)
(3 1.12247e-13 0)
(3 5.77533e-14 0)
(3 6.78569e-14 0)
(3 -3.97269e-14 0)
(3 -9.85594e-14 0)
(3 -4.53237e-14 0)
(3 -5.40295e-14 0)
(3 5.36439e-14 0)
(3 9.19409e-14 0)
(3 5.58909e-14 0)
(3.00415 0.00173025 0)
(1.20198 0.282745 0)
(0.795407 0.257428 0)
(0.78495 0.288316 0)
(0.760924 0.305039 0)
(0.737374 0.31348 0)
(0.712199 0.317922 0)
(0.684619 0.320851 0)
(0.653356 0.324133 0)
(0.619555 0.33043 0)
(0.585207 0.341035 0)
(0.549493 0.350884 0)
(0.511727 0.355549 0)
(0.473684 0.361037 0)
(0.436685 0.370287 0)
(0.40083 0.3838 0)
(0.364134 0.398702 0)
(0.328251 0.419361 0)
(0.287483 0.437489 0)
(0.245002 0.461737 0)
(0.194381 0.480872 0)
(0.145632 0.516062 0)
(0.0851634 0.52824 0)
(0.0549825 0.537933 0)
(3 -4.35878e-15 0)
(3 1.8349e-14 0)
(3 2.65602e-14 0)
(3 3.99144e-16 0)
(3 1.71129e-14 0)
(3 7.4618e-15 0)
(3 3.20649e-14 0)
(3 9.00652e-14 0)
(3 1.0035e-13 0)
(3 4.24067e-14 0)
(3 4.97382e-14 0)
(3 2.36664e-14 0)
(3 9.12019e-15 0)
(3 2.64947e-14 0)
(3 4.78982e-14 0)
(3 2.47697e-15 0)
(3 -6.53818e-14 0)
(3 -8.27174e-14 0)
(3 -1.08923e-13 0)
(3 -1.00439e-13 0)
(3 -3.00719e-14 0)
(3 6.24579e-14 0)
(3 1.1976e-13 0)
(3 9.48211e-14 0)
(3.00006 2.20724e-06 0)
(1.36461 0.309812 0)
(0.796139 0.272955 0)
(0.763544 0.300827 0)
(0.742614 0.319459 0)
(0.723144 0.330963 0)
(0.704468 0.339011 0)
(0.685774 0.346103 0)
(0.665109 0.352314 0)
(0.640917 0.360046 0)
(0.613359 0.372188 0)
(0.58178 0.385192 0)
(0.54561 0.39319 0)
(0.50693 0.400049 0)
(0.467864 0.409205 0)
(0.429955 0.423065 0)
(0.390965 0.438554 0)
(0.354079 0.46169 0)
(0.312941 0.484238 0)
(0.271075 0.51381 0)
(0.220502 0.538382 0)
(0.17122 0.580087 0)
(0.103384 0.596855 0)
(0.0695786 0.610532 0)
(3 2.0325e-14 0)
(3 1.99548e-14 0)
(3 5.336e-15 0)
(3 1.90442e-14 0)
(3 5.32051e-14 0)
(3 8.13212e-14 0)
(3 9.24216e-14 0)
(3 7.39522e-14 0)
(3 4.94587e-14 0)
(3 6.52337e-14 0)
(3 4.8246e-14 0)
(3 2.62947e-14 0)
(3 2.32698e-14 0)
(3 4.72325e-14 0)
(3 3.63041e-14 0)
(3 3.38346e-14 0)
(3 9.94367e-15 0)
(3 -1.20806e-14 0)
(3 -1.65865e-14 0)
(3 -4.88692e-15 0)
(3 3.57439e-14 0)
(3 5.86181e-14 0)
(3 8.45671e-14 0)
(3 4.29946e-14 0)
(3 -3.42818e-09 0)
(1.62925 0.345556 0)
(0.814178 0.319838 0)
(0.740398 0.319357 0)
(0.722781 0.331825 0)
(0.706147 0.3406 0)
(0.691189 0.348887 0)
(0.676632 0.358489 0)
(0.661382 0.369881 0)
(0.643931 0.382788 0)
(0.625344 0.399198 0)
(0.602751 0.416703 0)
(0.573605 0.429915 0)
(0.539181 0.440254 0)
(0.50167 0.450702 0)
(0.463331 0.465456 0)
(0.423672 0.481192 0)
(0.386538 0.505946 0)
(0.345757 0.531903 0)
(0.30478 0.567187 0)
(0.251184 0.601751 0)
(0.196103 0.65746 0)
(0.116522 0.68564 0)
(0.0713058 0.70684 0)
(3 1.43138e-14 0)
(3 9.03341e-16 0)
(3 -9.01171e-15 0)
(3 1.3982e-14 0)
(3 2.93207e-14 0)
(3 8.63608e-14 0)
(3 8.12012e-14 0)
(3 6.18329e-15 0)
(3 -2.76164e-14 0)
(3 1.5697e-14 0)
(3 1.75758e-14 0)
(3 4.96956e-14 0)
(3 5.41765e-14 0)
(3 4.20309e-14 0)
(3 5.29361e-14 0)
(3 9.18414e-14 0)
(3 8.47892e-14 0)
(3 6.93186e-14 0)
(3 5.64518e-14 0)
(3 5.41821e-14 0)
(3 1.50771e-14 0)
(3 1.8344e-14 0)
(3 2.1249e-14 0)
(3 -7.1392e-14 0)
(3 -3.52404e-09 0)
(2.01512 0.37775 0)
(0.85877 0.38904 0)
(0.749538 0.358113 0)
(0.726138 0.352968 0)
(0.707432 0.35779 0)
(0.690881 0.365664 0)
(0.674816 0.374549 0)
(0.659325 0.385425 0)
(0.643774 0.399168 0)
(0.628513 0.417547 0)
(0.614056 0.439644 0)
(0.593959 0.459501 0)
(0.567485 0.476059 0)
(0.535491 0.490339 0)
(0.500271 0.508269 0)
(0.462206 0.524983 0)
(0.425656 0.551363 0)
(0.38546 0.581436 0)
(0.346395 0.625059 0)
(0.296349 0.671707 0)
(0.250164 0.740625 0)
(0.167992 0.786297 0)
(0.111279 0.82089 0)
(3 2.9495e-15 0)
(3 3.38463e-15 0)
(3 -7.3039e-15 0)
(3 1.83912e-14 0)
(3 2.93057e-14 0)
(3 2.76171e-14 0)
(3 3.34288e-14 0)
(3 2.74214e-14 0)
(3 2.7e-14 0)
(3 2.60095e-14 0)
(3 -1.02029e-14 0)
(3 -1.56276e-14 0)
(3 2.50526e-14 0)
(3 3.86106e-14 0)
(3 5.54051e-14 0)
(3 6.17513e-14 0)
(3 3.16801e-14 0)
(3 2.52958e-14 0)
(3 3.75362e-14 0)
(3 3.3504e-14 0)
(3 -3.00155e-15 0)
(3 -2.8307e-14 0)
(3 -2.86734e-14 0)
(3 -2.39348e-14 0)
(3 -7.24924e-10 0)
(2.57402 0.331683 0)
(0.962305 0.44461 0)
(0.81813 0.375246 0)
(0.782249 0.367045 0)
(0.746101 0.376753 0)
(0.715648 0.384893 0)
(0.690336 0.394098 0)
(0.668832 0.404649 0)
(0.650311 0.417494 0)
(0.63415 0.434633 0)
(0.621487 0.457458 0)
(0.607947 0.481974 0)
(0.590316 0.505224 0)
(0.565357 0.525783 0)
(0.537605 0.548766 0)
(0.503909 0.568813 0)
(0.470564 0.598055 0)
(0.433725 0.631495 0)
(0.402347 0.680512 0)
(0.358098 0.734958 0)
(0.31679 0.832112 0)
(0.208335 0.942872 0)
(0.162479 1.03773 0)
(3 -2.85836e-15 0)
(3 1.39267e-14 0)
(3 -5.51721e-15 0)
(3 -6.73078e-15 0)
(3 -4.758e-14 0)
(3 -9.43026e-14 0)
(3 -6.71387e-14 0)
(3 6.29268e-14 0)
(3 6.84084e-14 0)
(3 2.87993e-14 0)
(3 -4.55911e-14 0)
(3 -4.25134e-14 0)
(3 -3.83669e-14 0)
(3 -1.73021e-14 0)
(3 1.93862e-14 0)
(3 4.95909e-14 0)
(3 3.39178e-14 0)
(3 5.01692e-14 0)
(3 3.14814e-14 0)
(3 1.84521e-14 0)
(3 1.39024e-14 0)
(3 2.8175e-14 0)
(3 2.05342e-14 0)
(3 7.01198e-14 0)
(3 -7.12693e-11 0)
(3.04787 0.0682095 0)
(1.16633 0.426396 0)
(0.879881 0.405507 0)
(0.85019 0.407536 0)
(0.805956 0.411643 0)
(0.761934 0.415983 0)
(0.724752 0.420721 0)
(0.694143 0.427564 0)
(0.669401 0.438031 0)
(0.648868 0.452745 0)
(0.634364 0.474199 0)
(0.622297 0.5 0)
(0.609846 0.527877 0)
(0.592895 0.554721 0)
(0.573695 0.583702 0)
(0.547221 0.609529 0)
(0.520935 0.642958 0)
(0.489388 0.678339 0)
(0.466523 0.733226 0)
(0.429703 0.808676 0)
(0.411979 0.941935 0)
(0.397186 1.09319 0)
(0.542729 1.33942 0)
(3 -1.00552e-14 0)
(3 3.88744e-15 0)
(3 6.99176e-15 0)
(3 -1.82637e-14 0)
(3 -4.2773e-14 0)
(3 -5.62087e-14 0)
(3 -5.68156e-14 0)
(3 4.76975e-15 0)
(3 1.07969e-14 0)
(3 1.84585e-15 0)
(3 -4.69504e-14 0)
(3 -1.14835e-13 0)
(3 -1.03294e-13 0)
(3 -1.07938e-13 0)
(3 -4.88427e-14 0)
(3 2.06644e-14 0)
(3 1.28808e-14 0)
(3 2.35899e-14 0)
(3 1.13445e-14 0)
(3 5.93433e-14 0)
(3 8.29741e-14 0)
(3 6.63033e-14 0)
(3 -6.64284e-15 0)
(3 6.3309e-15 0)
(3 -2.69314e-12 0)
(3.01536 0.00140271 0)
(1.31477 0.403031 0)
(0.87434 0.439969 0)
(0.849324 0.454676 0)
(0.820972 0.455131 0)
(0.792447 0.454263 0)
(0.760401 0.455469 0)
(0.728093 0.458001 0)
(0.698904 0.464699 0)
(0.67321 0.47448 0)
(0.654729 0.492468 0)
(0.640529 0.516907 0)
(0.63095 0.546448 0)
(0.619074 0.577592 0)
(0.608284 0.611812 0)
(0.590596 0.644345 0)
(0.574346 0.683118 0)
(0.551323 0.722111 0)
(0.538564 0.781791 0)
(0.527559 0.869717 0)
(0.540615 1.00661 0)
(0.62734 1.15695 0)
(0.941786 1.34789 0)
(3 2.33084e-15 0)
(3 1.02544e-15 0)
(3 2.85393e-14 0)
(3 -1.22716e-14 0)
(3 -5.38546e-14 0)
(3 -5.47225e-14 0)
(3 -4.66565e-14 0)
(3 -4.91563e-14 0)
(3 -2.06167e-14 0)
(3 -2.7505e-14 0)
(3 -2.29858e-14 0)
(3 -6.01458e-14 0)
(3 -6.93323e-14 0)
(3 -9.9889e-14 0)
(3 -1.1291e-13 0)
(3 -1.08279e-13 0)
(3 1.4728e-14 0)
(3 4.47463e-14 0)
(3 5.6453e-14 0)
(3 9.46778e-14 0)
(3 5.36119e-14 0)
(3 2.88577e-14 0)
(3 4.85032e-15 0)
(3 -2.89238e-14 0)
(3 -4.89853e-14 0)
(3.00018 -4.61482e-06 0)
(1.59242 0.422055 0)
(0.85271 0.451148 0)
(0.82987 0.462696 0)
(0.81478 0.470379 0)
(0.800153 0.477455 0)
(0.78078 0.483994 0)
(0.75649 0.488593 0)
(0.730647 0.49533 0)
(0.70417 0.501463 0)
(0.682128 0.51497 0)
(0.664806 0.53569 0)
(0.655177 0.563845 0)
(0.646015 0.59631 0)
(0.641716 0.633761 0)
(0.632691 0.672237 0)
(0.627902 0.716055 0)
(0.617353 0.760332 0)
(0.616762 0.821213 0)
(0.630133 0.908284 0)
(0.677053 1.02704 0)
(0.826472 1.16265 0)
(1.15184 1.28098 0)
(3 2.29408e-14 0)
(3 2.92279e-14 0)
(3 5.59118e-15 0)
(3 -2.73364e-14 0)
(3 -6.92373e-14 0)
(3 -5.45366e-14 0)
(3 -5.56309e-14 0)
(3 -1.05974e-13 0)
(3 -9.59635e-14 0)
(3 -8.91561e-14 0)
(3 -7.8728e-14 0)
(3 -2.30509e-14 0)
(3 -3.81866e-14 0)
(3 -7.33833e-14 0)
(3 -7.47377e-14 0)
(3 -9.6909e-14 0)
(3 -5.15032e-15 0)
(3 3.2485e-14 0)
(3 7.14083e-14 0)
(3 7.59784e-14 0)
(3 -1.5994e-14 0)
(3 -5.87668e-14 0)
(3 -5.10364e-14 0)
(3 -8.03715e-14 0)
(3 7.52497e-14 0)
(3.00001 -4.98298e-06 0)
(2.10069 0.448821 0)
(0.906806 0.497619 0)
(0.830084 0.472432 0)
(0.821995 0.483373 0)
(0.808718 0.49343 0)
(0.795134 0.503783 0)
(0.777886 0.512311 0)
(0.758971 0.522368 0)
(0.736798 0.52944 0)
(0.715116 0.540344 0)
(0.696165 0.556603 0)
(0.684462 0.581537 0)
(0.67625 0.612499 0)
(0.675649 0.65032 0)
(0.673764 0.692311 0)
(0.679363 0.73974 0)
(0.683134 0.789165 0)
(0.696984 0.848683 0)
(0.726997 0.928595 0)
(0.802993 1.02998 0)
(0.973282 1.13737 0)
(1.24631 1.20942 0)
(3 1.35926e-14 0)
(3 -7.43385e-15 0)
(3 -2.89679e-15 0)
(3 -1.26969e-14 0)
(3 -1.19447e-14 0)
(3 -1.33336e-15 0)
(3 -2.53973e-14 0)
(3 -1.22362e-13 0)
(3 -1.68641e-13 0)
(3 -8.18905e-14 0)
(3 -2.55914e-14 0)
(3 7.88534e-15 0)
(3 -2.40029e-14 0)
(3 -6.83508e-14 0)
(3 -1.21305e-13 0)
(3 -1.2815e-13 0)
(3 -8.73709e-14 0)
(3 -3.71685e-16 0)
(3 6.27396e-14 0)
(3 3.85428e-14 0)
(3 -7.68453e-15 0)
(3 -1.22738e-13 0)
(3 -1.79124e-13 0)
(3 -1.83362e-13 0)
(3 -4.98809e-14 0)
(3 -1.06444e-06 0)
(2.80357 0.273619 0)
(1.07179 0.54424 0)
(0.886159 0.483644 0)
(0.858969 0.494015 0)
(0.833702 0.508303 0)
(0.815517 0.520809 0)
(0.798862 0.531705 0)
(0.784265 0.54463 0)
(0.767372 0.555187 0)
(0.749387 0.566919 0)
(0.731752 0.580516 0)
(0.718636 0.601894 0)
(0.710371 0.629562 0)
(0.711175 0.665002 0)
(0.71439 0.70678 0)
(0.727595 0.755089 0)
(0.744128 0.807796 0)
(0.772551 0.865964 0)
(0.816777 0.937366 0)
(0.909483 1.02078 0)
(1.07173 1.09755 0)
(1.3031 1.14372 0)
(3 -2.94488e-14 0)
(3 -4.52056e-14 0)
(3 -1.55027e-14 0)
(3 -3.69072e-14 0)
(3 -1.34228e-14 0)
(3 9.24237e-15 0)
(3 -4.68576e-15 0)
(3 -2.94417e-14 0)
(3 -2.51661e-14 0)
(3 -9.97408e-15 0)
(3 4.0272e-15 0)
(3 -1.47514e-14 0)
(3 -6.05929e-14 0)
(3 -6.78083e-14 0)
(3 -5.49383e-14 0)
(3 -1.23177e-14 0)
(3 3.58845e-15 0)
(3 4.41743e-14 0)
(3 6.09396e-14 0)
(3 3.95097e-14 0)
(3 2.1125e-14 0)
(3 -5.06208e-14 0)
(3 -1.01424e-13 0)
(3 -1.40726e-13 0)
(3 -4.8786e-14 0)
(3 -1.01881e-07 0)
(3.06622 0.0217542 0)
(1.32783 0.517568 0)
(0.933724 0.522918 0)
(0.897941 0.53296 0)
(0.868646 0.533759 0)
(0.843639 0.540294 0)
(0.824253 0.549332 0)
(0.810235 0.56242 0)
(0.796983 0.575662 0)
(0.78339 0.589843 0)
(0.768957 0.603622 0)
(0.757118 0.622868 0)
(0.74887 0.64682 0)
(0.749589 0.678628 0)
(0.755738 0.717407 0)
(0.773103 0.763086 0)
(0.7983 0.815024 0)
(0.837838 0.871173 0)
(0.89476 0.935039 0)
(0.994231 1.00285 0)
(1.13859 1.0556 0)
(1.32998 1.08235 0)
(3 -6.18519e-15 0)
(3 -1.22696e-14 0)
(3 -4.1097e-14 0)
(3 -9.81012e-15 0)
(3 7.10345e-14 0)
(3 7.42534e-14 0)
(3 6.69096e-14 0)
(3 4.55276e-14 0)
(3 5.73882e-15 0)
(3 -7.36892e-14 0)
(3 -1.11022e-13 0)
(3 -9.79931e-14 0)
(3 -5.49751e-14 0)
(3 -1.4042e-14 0)
(3 8.12893e-15 0)
(3 1.05408e-13 0)
(3 1.25615e-13 0)
(3 7.82389e-14 0)
(3 6.51187e-14 0)
(3 6.68195e-14 0)
(3 2.4378e-14 0)
(3 2.94395e-14 0)
(3 4.88861e-14 0)
(3 -4.94356e-15 0)
(3 1.15728e-13 0)
(3 -3.79535e-09 0)
(3.00361 5.21186e-06 0)
(1.61326 0.506346 0)
(0.918639 0.575492 0)
(0.890191 0.5595 0)
(0.876977 0.562252 0)
(0.861231 0.566915 0)
(0.845478 0.57205 0)
(0.832579 0.582528 0)
(0.822245 0.595648 0)
(0.813329 0.611161 0)
(0.803388 0.626056 0)
(0.795619 0.644902 0)
(0.789405 0.665989 0)
(0.790342 0.693825 0)
(0.798286 0.72825 0)
(0.817685 0.769112 0)
(0.847365 0.816675 0)
(0.893374 0.868429 0)
(0.958999 0.925601 0)
(1.06028 0.981746 0)
(1.18787 1.01996 0)
(1.3488 1.03638 0)
(3 1.68272e-16 0)
(3 4.45148e-15 0)
(3 1.71394e-14 0)
(3 1.00515e-13 0)
(3 1.29994e-13 0)
(3 1.12015e-13 0)
(3 1.05371e-13 0)
(3 1.18307e-13 0)
(3 8.91407e-14 0)
(3 1.53279e-15 0)
(3 -6.38096e-15 0)
(3 6.38297e-15 0)
(3 -3.4872e-14 0)
(3 -8.61861e-15 0)
(3 -5.26103e-14 0)
(3 -5.37716e-15 0)
(3 5.57681e-14 0)
(3 8.25344e-14 0)
(3 9.43823e-14 0)
(3 8.8556e-14 0)
(3 4.09583e-14 0)
(3 1.43006e-14 0)
(3 4.55033e-14 0)
(3 9.37709e-14 0)
(3 1.24013e-13 0)
(3 -5.5741e-11 0)
(3.00001 -5.80863e-07 0)
(2.27724 0.482122 0)
(0.988664 0.604935 0)
(0.914356 0.5608 0)
(0.906385 0.569457 0)
(0.89141 0.581873 0)
(0.875101 0.589474 0)
(0.86111 0.599337 0)
(0.850474 0.611722 0)
(0.843688 0.627759 0)
(0.836989 0.643865 0)
(0.833293 0.663261 0)
(0.830635 0.683533 0)
(0.832941 0.708154 0)
(0.84202 0.738027 0)
(0.862031 0.773368 0)
(0.892973 0.81463 0)
(0.940454 0.859394 0)
(1.00808 0.90902 0)
(1.10633 0.955478 0)
(1.21953 0.9847 0)
(1.35951 0.99729 0)
(3 5.86757e-15 0)
(3 1.13734e-14 0)
(3 4.6966e-14 0)
(3 5.54707e-14 0)
(3 5.63144e-14 0)
(3 6.37298e-14 0)
(3 8.29242e-14 0)
(3 1.14956e-13 0)
(3 1.41737e-13 0)
(3 1.39193e-13 0)
(3 4.72263e-14 0)
(3 4.50981e-15 0)
(3 1.31089e-14 0)
(3 -7.86559e-15 0)
(3 -3.26032e-15 0)
(3 -7.76618e-14 0)
(3 -7.28057e-14 0)
(3 4.58275e-15 0)
(3 1.35997e-13 0)
(3 1.3132e-13 0)
(3 4.52669e-14 0)
(3 4.38464e-14 0)
(3 7.83305e-14 0)
(3 6.84313e-14 0)
(3 7.76765e-14 0)
(3 -7.51592e-14 0)
(3 -7.1964e-07 0)
(3.04137 0.130236 0)
(1.23256 0.588162 0)
(0.968826 0.576409 0)
(0.949952 0.592308 0)
(0.930299 0.603172 0)
(0.910345 0.609377 0)
(0.894508 0.618255 0)
(0.881579 0.628879 0)
(0.874393 0.644226 0)
(0.869221 0.660429 0)
(0.868298 0.679757 0)
(0.869626 0.700259 0)
(0.874852 0.723103 0)
(0.885657 0.749227 0)
(0.906026 0.779702 0)
(0.93753 0.814669 0)
(0.984586 0.851684 0)
(1.05012 0.893523 0)
(1.141 0.930624 0)
(1.24478 0.955134 0)
(1.36934 0.967336 0)
(3 1.22661e-15 0)
(3 6.19143e-15 0)
(3 -1.81151e-14 0)
(3 -7.53535e-14 0)
(3 -9.90442e-14 0)
(3 -8.38986e-14 0)
(3 -6.39835e-14 0)
(3 -3.66418e-14 0)
(3 2.41045e-14 0)
(3 1.80843e-14 0)
(3 2.86823e-15 0)
(3 -4.41096e-14 0)
(3 -3.32502e-14 0)
(3 -1.01235e-14 0)
(3 -3.3116e-15 0)
(3 -3.88295e-14 0)
(3 -4.15596e-15 0)
(3 -4.95895e-14 0)
(3 -4.96413e-14 0)
(3 -5.56024e-14 0)
(3 -1.39626e-13 0)
(3 -9.14689e-14 0)
(3 2.61677e-14 0)
(3 7.72353e-14 0)
(3 6.38825e-15 0)
(3 -5.77584e-14 0)
(3 -1.52107e-07 0)
(3.02847 0.0023247 0)
(1.46024 0.566202 0)
(0.970976 0.633309 0)
(0.949726 0.622773 0)
(0.938345 0.630308 0)
(0.928369 0.635257 0)
(0.919285 0.641963 0)
(0.909562 0.649261 0)
(0.903673 0.661711 0)
(0.900382 0.676056 0)
(0.901356 0.69369 0)
(0.905958 0.71351 0)
(0.914626 0.735198 0)
(0.928081 0.7584 0)
(0.948757 0.784504 0)
(0.980455 0.813543 0)
(1.02555 0.843142 0)
(1.08611 0.876725 0)
(1.16581 0.905193 0)
(1.25867 0.925045 0)
(1.36888 0.936894 0)
(3 -1.11859e-14 0)
(3 -1.83051e-14 0)
(3 -1.60186e-14 0)
(3 7.85427e-15 0)
(3 -2.21273e-14 0)
(3 -5.9039e-14 0)
(3 -3.96594e-14 0)
(3 -2.31736e-14 0)
(3 -4.57971e-14 0)
(3 -6.26451e-14 0)
(3 -1.18809e-14 0)
(3 -9.50395e-15 0)
(3 -4.08607e-14 0)
(3 5.51444e-15 0)
(3 6.08796e-14 0)
(3 4.51995e-14 0)
(3 3.751e-14 0)
(3 -4.0007e-14 0)
(3 -1.46445e-13 0)
(3 -1.92932e-13 0)
(3 -1.80961e-13 0)
(3 -1.304e-13 0)
(3 -9.5232e-14 0)
(3 -6.91177e-14 0)
(3 -8.76812e-14 0)
(3 -6.62164e-14 0)
(3 -1.27808e-08 0)
(3.00043 -8.2687e-06 0)
(2.0698 0.557363 0)
(1.01777 0.66594 0)
(0.963454 0.628545 0)
(0.961383 0.635113 0)
(0.954717 0.646028 0)
(0.947461 0.656541 0)
(0.939884 0.665149 0)
(0.934815 0.677095 0)
(0.932471 0.690462 0)
(0.934078 0.706627 0)
(0.940239 0.725138 0)
(0.951283 0.745771 0)
(0.967378 0.767838 0)
(0.989466 0.791163 0)
(1.02186 0.815943 0)
(1.06516 0.840442 0)
(1.12165 0.866448 0)
(1.19094 0.887283 0)
(1.27442 0.903561 0)
(1.37144 0.914048 0)
(3 -5.23534e-15 0)
(3 -3.50758e-14 0)
(3 -2.62635e-14 0)
(3 5.13777e-14 0)
(3 1.08559e-13 0)
(3 1.11336e-13 0)
(3 7.82482e-14 0)
(3 -3.95579e-14 0)
(3 -8.88647e-14 0)
(3 2.2142e-14 0)
(3 4.41095e-14 0)
(3 5.40772e-14 0)
(3 3.77136e-14 0)
(3 2.96118e-16 0)
(3 -8.30194e-15 0)
(3 4.37819e-14 0)
(3 1.36943e-14 0)
(3 5.2419e-16 0)
(3 1.53581e-15 0)
(3 -1.06761e-14 0)
(3 6.01574e-15 0)
(3 -1.10934e-14 0)
(3 -2.19353e-14 0)
(3 1.48121e-14 0)
(3 5.96198e-14 0)
(3 1.24101e-13 0)
(3 -7.04239e-11 0)
(3.00003 -1.25009e-05 0)
(2.95802 0.206356 0)
(1.23127 0.652483 0)
(1.01254 0.631536 0)
(1.00256 0.649502 0)
(0.990984 0.661382 0)
(0.979927 0.671433 0)
(0.972009 0.680308 0)
(0.966962 0.691967 0)
(0.965111 0.70461 0)
(0.966961 0.718915 0)
(0.973344 0.735312 0)
(0.985597 0.753636 0)
(1.00287 0.773407 0)
(1.02695 0.794354 0)
(1.05965 0.815486 0)
(1.10109 0.835891 0)
(1.15287 0.855152 0)
(1.21362 0.870208 0)
(1.28813 0.883247 0)
(1.37143 0.890805 0)
(3 -7.71257e-16 0)
(3 -1.57408e-14 0)
(3 -1.85399e-14 0)
(3 -2.92084e-14 0)
(3 4.25608e-14 0)
(3 3.31914e-14 0)
(3 5.25169e-15 0)
(3 -5.2722e-14 0)
(3 -4.46326e-14 0)
(3 3.74467e-14 0)
(3 7.57802e-14 0)
(3 1.08947e-13 0)
(3 1.03587e-13 0)
(3 7.03813e-14 0)
(3 3.2681e-14 0)
(3 3.34164e-14 0)
(3 2.83822e-14 0)
(3 3.43782e-14 0)
(3 1.12547e-13 0)
(3 1.38014e-13 0)
(3 1.30043e-13 0)
(3 1.24899e-13 0)
(3 9.31136e-14 0)
(3 8.66143e-14 0)
(3 1.35301e-13 0)
(3 1.99544e-13 0)
(3 9.44473e-14 0)
(3 -2.70952e-06 0)
(3.04447 0.00643307 0)
(1.48026 0.621479 0)
(1.02271 0.686658 0)
(1.00779 0.678562 0)
(0.999932 0.685232 0)
(0.995669 0.692908 0)
(0.993519 0.699761 0)
(0.992513 0.709609 0)
(0.993737 0.72047 0)
(0.997697 0.733091 0)
(1.00492 0.746427 0)
(1.01739 0.762573 0)
(1.03585 0.780339 0)
(1.06137 0.798905 0)
(1.09412 0.817697 0)
(1.13436 0.83562 0)
(1.18219 0.851145 0)
(1.2374 0.863004 0)
(1.30472 0.872939 0)
(1.37726 0.876636 0)
(3 2.81911e-16 0)
(3 1.95009e-14 0)
(3 2.62884e-14 0)
(3 -3.48193e-14 0)
(3 -8.53971e-14 0)
(3 -1.57565e-13 0)
(3 -1.4661e-13 0)
(3 -7.5675e-14 0)
(3 4.71604e-14 0)
(3 2.37556e-14 0)
(3 3.146e-14 0)
(3 6.11304e-14 0)
(3 8.95569e-14 0)
(3 6.17549e-14 0)
(3 6.16918e-14 0)
(3 4.12834e-14 0)
(3 4.70363e-14 0)
(3 1.04818e-13 0)
(3 1.12351e-13 0)
(3 1.38909e-13 0)
(3 1.52912e-13 0)
(3 7.84138e-14 0)
(3 4.59867e-14 0)
(3 1.58355e-14 0)
(3 2.86148e-14 0)
(3 6.25097e-14 0)
(3 1.43677e-13 0)
(3 -2.32713e-07 0)
(3.00096 -4.95713e-07 0)
(2.15358 0.583069 0)
(1.08008 0.729275 0)
(1.02405 0.686648 0)
(1.02226 0.689899 0)
(1.02078 0.699797 0)
(1.01904 0.709058 0)
(1.01968 0.719887 0)
(1.02257 0.731198 0)
(1.02803 0.74359 0)
(1.03629 0.755878 0)
(1.04863 0.768556 0)
(1.06691 0.783573 0)
(1.09229 0.799747 0)
(1.124 0.815662 0)
(1.16269 0.830861 0)
(1.20688 0.843538 0)
(1.2588 0.853103 0)
(1.31968 0.860275 0)
(1.38403 0.861943 0)
(3 6.78301e-16 0)
(3 3.23052e-14 0)
(3 4.6767e-14 0)
(3 1.6151e-14 0)
(3 -8.21924e-14 0)
(3 -1.24695e-13 0)
(3 -2.06224e-13 0)
(3 -1.61517e-13 0)
(3 -7.15695e-14 0)
(3 -3.32379e-14 0)
(3 -1.54122e-14 0)
(3 -3.83318e-15 0)
(3 4.11975e-14 0)
(3 6.65519e-14 0)
(3 5.06563e-14 0)
(3 -3.55652e-14 0)
(3 9.05631e-16 0)
(3 1.66299e-14 0)
(3 5.84589e-14 0)
(3 1.33143e-13 0)
(3 1.03732e-13 0)
(3 2.43624e-14 0)
(3 -1.84014e-14 0)
(3 -4.078e-14 0)
(3 -7.20534e-14 0)
(3 -6.23201e-14 0)
(3 2.36107e-14 0)
(3 -2.47089e-09 0)
(3.00003 -1.08192e-05 0)
(3.04279 0.146154 0)
(1.33986 0.696218 0)
(1.07661 0.68837 0)