/*--------------------------------*- C++ -*----------------------------------*\
  =========                 |
  \\      /  F ield         | OpenFOAM: The Open Source CFD Toolbox
   \\    /   O peration     | Website:  https://openfoam.org
    \\  /    A nd           | Version:  10
     \\/     M anipulation  |
\*---------------------------------------------------------------------------*/
FoamFile
{
    format      ascii;
    class       volScalarField;
    location    "52";
    object      p;
}
// * * * * * * * * * * * * * * * * * * * * * * * * * * * * * * * * * * * * * //

dimensions      [0 2 -2 0 0 0 0];

internalField   nonuniform List<scalar> 
918
(
0.559431
1.1966
0.00142877
0.55883
-0.00786667
1.1636
-0.502477
0.692459
0.539607
-0.100257
-0.0335399
0.537432
1.02433
0.788667
-1.1216
-0.00288898
0.65614
-0.380607
0.538681
-0.0453306
0.719773
0.546167
0.549195
0.539777
0.606273
0.764737
0.90516
0.0211379
0.00941764
0.00440878
-0.0130405
-0.0340988
-0.0292096
1.04725
1.09832
1.12101
0.507591
0.335704
-0.368521
-0.437658
-0.430956
-0.54414
0.68758
0.686128
-0.196185
0.695214
0.699288
0.526702
0.538974
0.539879
0.540927
0.539897
0.541284
0.410805
-0.103556
-0.136089
-0.0801956
-0.0714773
0.0640111
-0.0348296
-0.0375949
-0.0316693
-0.0317374
0.457278
0.532298
0.529299
0.542708
0.55233
1.13615
1.10809
1.13422
1.04786
1.06435
1.00234
0.974897
0.810522
0.832398
0.772511
0.759632
-1.55589
-2.51181
-0.529353
-0.277637
-0.0151307
-0.000603656
0.00524467
0.651713
0.651935
0.656739
0.661982
1.08469
-0.379414
-0.476625
0.538818
0.537621
0.545969
0.546667
0.542683
0.541775
-0.0356566
-0.0326512
-0.0424253
-0.0437009
-0.0423812
0.708863
0.707983
0.540311
0.537321
0.55916
0.580221
0.572508
0.283278
0.610882
0.62486
0.594044
0.756195
0.750549
0.759373
0.878806
0.841612
0.942293
0.965657
0.0173716
-0.000223177
-0.0100176
-0.0166387
-0.0141612
0.50346
0.496069
0.523011
0.510991
0.513472
0.25171
0.117339
0.421309
0.446603
-0.285541
-0.348141
-0.426161
-0.455417
-0.56648
0.613334
0.679667
0.676731
-0.210124
-0.137008
-0.268382
-0.063476
-0.124927
0.517023
0.523993
0.519014
0.534508
0.528988
0.530945
0.543229
0.540304
0.541862
0.47327
0.597075
0.337167
0.302439
-0.241718
-0.15361
-0.242634
-0.0593145
-0.0550252
0.0777622
0.103051
0.0512029
0.0393066
-0.0481526
-0.0411704
-0.0443183
-0.0300247
-0.0297714
0.450135
0.439081
0.469877
0.47736
0.521458
0.52276
0.52651
0.524781
0.925795
0.948221
0.955612
0.929353
-3.50628
-6.29696
0.0488422
0.186125
-0.00506113
-0.00980337
0.00497558
-0.0085422
-0.00216519
-0.00378492
0.00349018
0.00171326
0.00585618
0.00815916
0.644605
0.645079
1.00491
1.00892
0.983154
0.935026
0.52698
0.529068
0.53459
0.530461
-0.0294128
-0.030426
-0.0288554
0.701293
0.705981
0.704438
0.245377
0.156831
0.333694
0.36239
0.637783
0.626689
0.636493
0.655285
0.69012
0.973124
0.991245
0.989541
0.997779
1.04183
1.05824
1.02355
0.483116
0.492985
0.487993
0.526161
0.523906
0.524824
0.520518
0.521899
0.519792
-0.0338819
-0.415635
0.495709
0.513781
0.496287
0.500787
0.692831
0.770264
0.663136
0.671034
0.668639
0.00490745
-0.0532351
0.258484
0.225155
0.390333
0.426386
0.405531
0.897005
0.857201
0.907321
0.880828
0.842158
0.868508
-0.367323
-1.87248
-0.988553
0.536917
0.350908
0.438333
0.0213218
0.00421564
0.00906675
1.00235
1.07733
0.652859
0.825386
0.829843
0.727784
0.758057
0.814798
0.738046
0.774405
0.811025
0.79198
0.570094
0.509065
0.523346
0.83933
0.895047
0.127938
0.0685109
0.0243589
0.121559
0.178287
0.152644
1.0386
0.9496
1.02043
0.537076
0.537787
-0.0002709
-0.0125973
0.54199
0.54204
-0.0126166
0.00102821
0.421366
-0.83042
0.110244
0.530534
0.520566
0.537622
-0.0835679
0.363368
-0.0354473
0.0590595
0.00394016
0.534636
0.468224
0.427871
0.00527718
-0.0127816
-0.0387674
-0.211853
0.534747
0.533054
0.537089
0.538046
0.538718
-0.012354
-0.00815523
-0.00593985
-0.0367647
-0.0325291
-0.0428737
0.501776
0.520303
-0.164779
0.537229
0.539357
0.539177
0.53241
0.538051
0.536295
-0.00395998
-0.011699
-0.0122702
0.227163
0.355899
0.662734
0.75135
0.634151
0.408705
0.172301
0.565026
0.628823
0.533894
0.68812
0.676063
0.690918
0.175489
0.0254498
0.18462
0.126025
0.528393
0.527085
0.518824
0.515829
0.532483
0.530588
0.535154
0.532155
0.535106
0.536498
-0.0413952
-0.0650511
-0.0789532
-0.14616
0.318225
0.579969
0.260389
0.290903
0.151329
-0.0291972
-0.0292866
-0.0343019
-0.0413466
0.0131935
-0.0109352
0.0542236
0.0549612
0.0278148
0.000912918
0.00529228
-0.00575602
-0.00254628
0.527666
0.526068
0.532451
0.541716
0.477771
0.481534
0.446799
0.467286
0.452678
0.392089
0.427132
0.40235
-0.00234275
0.00882984
-0.000568902
-0.00878076
-0.00396745
-0.0232727
-0.0210502
-0.0167135
-0.0131132
-0.0203385
-0.0333733
-0.0313806
-0.170276
-0.28578
0.991474
0.91723
0.134619
0.523917
0.530354
0.527129
0.532002
0.535128
0.535946
0.533672
0.530227
0.520699
0.52228
0.519019
0.519807
-0.0970509
-0.237961
-0.0659878
-0.13817
0.146396
0.629229
0.367827
0.304755
0.29966
0.526667
0.928019
0.714918
0.690821
0.704677
-0.338866
0.0536979
-0.273803
0.344241
0.168304
0.662816
0.711697
0.73229
0.680615
0.633657
-0.102714
0.558108
-0.0631157
-0.0129981
0.186824
0.067119
0.688374
0.660577
0.663793
0.680854
0.697636
0.666685
0.650365
0.645046
0.677225
0.680553
0.495429
0.258387
0.210258
0.171656
0.646476
0.531518
0.585335
0.501058
0.52352
0.526172
0.524792
0.506569
0.514097
0.509667
0.516028
0.519451
0.528196
0.528629
0.523953
0.526099
-0.0458416
-0.0491356
-0.0233093
-0.133042
-0.124158
-0.185905
-0.0588747
0.0793244
0.0411203
0.238919
0.344679
0.0561816
-0.0554405
-0.0278878
0.0118313
0.182868
0.208825
0.0824996
0.17102
0.159519
0.142903
0.244389
0.248993
-0.0148162
-0.0191711
-0.022439
-0.0241484
0.0302323
0.0999413
0.109821
0.00814456
0.00222429
-0.0273108
-0.0271363
-0.0128921
-0.0171309
-0.0134456
0.0206129
-0.0416254
-0.0096758
0.0057679
0.0110718
0.00792991
0.00280912
0.519939
0.522275
0.521885
0.529005
0.547507
0.563525
0.519959
0.499784
0.490656
0.493649
0.466813
0.477042
0.472723
0.48641
0.507483
0.516846
0.514178
0.51694
0.49963
0.501298
0.487821
0.491529
0.466597
0.44778
0.435947
-0.0324859
0.00485035
-0.00195372
-0.0302284
-0.00189527
-0.01414
0.00146418
0.0204386
0.00430073
0.00171306
-0.00836185
-0.015319
-0.014574
-0.0716303
0.0137162
-0.179911
-0.217742
-0.287991
0.893087
1.01691
0.814718
0.587999
0.605827
0.848856
0.934177
0.549954
0.73986
0.763827
0.588409
0.853975
0.528737
0.528343
0.525947
0.525423
0.526642
-0.00422176
0.0998754
0.10115
0.162041
0.278394
0.390987
0.318831
0.193552
0.324591
0.327661
0.621609
0.634197
0.589747
0.613749
0.614041
0.430347
0.506239
0.558513
0.515687
0.567729
0.588621
0.544403
0.576637
0.526883
0.481448
0.477527
0.428274
0.447954
0.424537
0.4073
0.518776
0.496019
0.506597
0.496844
0.516305
0.540877
0.537262
0.568972
0.580104
0.500331
0.456492
0.465728
0.496132
0.456996
0.471963
0.48814
0.233311
0.134536
0.217063
-0.071136
0.00359132
-0.0104483
-0.0582267
-0.00899846
0.276102
-0.417829
-0.393736
-1.02323
0.502757
0.960534
0.635592
0.608607
0.69454
0.676505
0.681324
0.698211
0.702359
0.636457
0.652006
0.654287
0.617183
0.640305
0.660066
0.657233
0.528114
0.392236
0.388906
0.339804
0.210008
0.248334
0.448453
0.370949
0.295763
0.296781
0.463725
0.350995
0.419914
0.455689
0.386853
0.340824
0.544424
0.609555
0.601545
0.575847
0.491709
0.505263
0.529323
0.564359
0.590243
0.621262
0.515558
0.52143
0.522673
0.520165
0.517422
0.520431
0.520634
0.523171
0.523873
0.526843
0.525872
-0.0361531
-0.0239531
-0.036891
-0.0449961
-0.0131052
-0.0168361
0.0265479
0.0128704
-0.00272616
0.0033102
-0.0230013
-0.0273403
-0.0223561
-0.0132429
0.105134
0.117666
0.101243
0.0617754
0.25239
0.382852
0.456186
0.332027
0.224808
0.248348
0.269264
-0.00353087
0.0242643
0.011247
0.0498634
0.0411573
-0.0210397
-0.0256995
-0.0230614
-0.0162514
-0.00691295
-0.0228367
-0.0248924
-0.0172105
-0.0209962
-0.0223709
-0.0249318
0.502018
0.49554
0.497236
0.491108
0.48983
0.50406
0.508276
0.510246
0.515677
0.517933
0.508104
0.513809
0.517571
0.0019959
-0.0219227
-0.025385
-0.0134304
-0.0171771
-0.016037
-0.0183075
0.123841
0.0522269
0.0567784
0.010642
-0.119623
-0.0620453
0.492175
0.492039
0.483912
0.721626
0.571138
0.49176
0.589172
0.694406
0.275543
0.473787
0.307737
0.889794
0.785101
0.931526
0.543556
0.245367
0.405415
0.452578
0.263352
0.336594
0.330153
0.218009
0.249455
0.285086
0.385755
0.266656
0.242738
0.000316084
0.189875
0.303166
0.284814
0.410902
0.472734
0.265869
0.186986
0.141089
0.607869
0.626895
0.642207
0.61458
0.635469
0.57924
0.568269
0.586505
0.596129
0.590998
-0.75086
-0.457512
-1.40336
-0.722527
-0.269435
0.533441
0.501134
0.76905
0.65126
0.699486
0.684523
0.64309
0.611065
0.630936
0.657289
0.352832
0.4642
0.439301
0.444383
0.345842
0.27717
0.576685
0.571503
0.605695
0.629334
0.599469
0.630227
0.513366
0.513053
0.512585
0.50887
0.507131
0.509444
0.0653869
0.0344247
0.0698967
0.0505135
0.0276886
0.0161911
0.00568927
-0.00377502
-0.0106941
-0.0115763
0.00197348
0.00547036
0.170556
0.109658
0.0296977
0.0595305
-0.0003846
-0.069327
-0.0869046
0.0151314
0.110319
0.100937
0.405778
0.656651
0.476574
0.643926
0.485435
0.541265
0.472948
0.46466
0.490944
0.381682
0.461572
0.241493
-0.265351
-0.174131
0.789975
0.803778
0.584689
0.405133
0.173761
0.355878
0.548822
0.4815
0.518382
0.587386
0.576322
0.022876
0.0843483
0.360502
0.587916
0.239728
0.230661
0.224772
0.404947
0.325493
)
;

boundaryField
{
    wall-4
    {
        type            zeroGradient;
    }
    velocity-inlet-5
    {
        type            zeroGradient;
    }
    velocity-inlet-6
    {
        type            zeroGradient;
    }
    pressure-outlet-7
    {
        type            fixedValue;
        value           uniform 0;
    }
    wall-8
    {
        type            zeroGradient;
    }
    frontAndBackPlanes
    {
        type            empty;
    }
}


// ************************************************************************* //
