/*--------------------------------*- C++ -*----------------------------------*\
  =========                 |
  \\      /  F ield         | OpenFOAM: The Open Source CFD Toolbox
   \\    /   O peration     | Website:  https://openfoam.org
    \\  /    A nd           | Version:  10
     \\/     M anipulation  |
\*---------------------------------------------------------------------------*/
FoamFile
{
    format      ascii;
    class       volVectorField;
    location    "52";
    object      U;
}
// * * * * * * * * * * * * * * * * * * * * * * * * * * * * * * * * * * * * * //

dimensions      [0 1 -1 0 0 0 0];

internalField   nonuniform List<vector> 
918
(
(0.985162 -0.000504526 0)
(0.00501218 2.96625 0)
(0.00814976 0.877042 0)
(0.979703 0.00214726 0)
(-0.0129918 2.06688 3.01988e-20)
(-0.00704673 2.94879 -2.4914e-18)
(0.811426 1.15181 4.42178e-19)
(0.198242 0.099971 -1.53975e-20)
(0.999908 -0.000280632 0)
(0.0607979 0.770826 0)
(0.0103514 0.573406 0)
(0.73488 -0.0181423 0)
(0.0111415 2.93032 0)
(0.00280138 2.79509 0)
(-0.0176369 3.15155 7.76866e-19)
(-0.0179024 1.91236 1.64866e-21)
(0.284872 0.0360275 1.02525e-18)
(0.185627 1.14792 3.1558e-19)
(0.962746 0.00501993 0)
(0.00353993 0.509593 0)
(0.0171595 0.132709 -7.23905e-19)
(1.00198 -0.00497795 0)
(1.00022 -0.00978854 0)
(0.975731 -0.00643938 0)
(0.586912 -0.0249744 0)
(0.0153815 2.64065 0)
(-0.0148428 2.91 9.18023e-19)
(0.0112018 0.933837 0)
(-0.0103184 1.17676 0)
(0.011567 0.913913 0)
(-0.0137716 2.60249 0)
(-0.00167421 2.116 -2.41186e-20)
(-0.00877281 1.89876 0)
(-0.0205984 2.98761 -8.96207e-23)
(-0.0166854 3.00529 1.93618e-18)
(0.00210295 3.00018 0)
(0.871071 -0.00959134 0)
(0.404434 0.93645 1.81471e-19)
(0.795926 1.16642 -5.01471e-19)
(0.946698 1.01251 5.4311e-19)
(0.665515 1.25752 -1.0233e-19)
(0.667073 1.23332 5.89967e-19)
(0.234057 0.164413 1.50216e-20)
(0.211255 0.0741258 0)
(1.14778 0.557228 0)
(0.203719 0.155598 6.84743e-20)
(0.170927 0.098055 -7.10528e-20)
(0.919844 -0.00744887 0)
(1.00027 0.00015652 0)
(0.999909 0.000335579 0)
(1.00363 -0.00776572 0)
(1.00096 -0.000920933 0)
(1.00017 3.37201e-05 0)
(0.0748096 1.82007 -7.85667e-19)
(0.0280978 0.97166 0)
(0.0946284 0.840805 0)
(0.0130487 0.926095 0)
(0.0356318 0.702926 0)
(0.00805358 2.00434 0)
(-0.000299903 0.822783 0)
(0.0118548 0.586691 0)
(-0.000380305 0.814661 0)
(0.00760308 0.561839 0)
(0.840343 -0.0158455 0)
(0.843211 0.0305974 0)
(0.767573 -0.00697728 0)
(0.810252 0.0407666 0)
(0.705029 -0.0197465 0)
(0.0146876 3.00041 9.23848e-19)
(0.0114988 3.00807 0)
(0.00610776 3.00276 0)
(0.0135555 2.99738 1.04873e-23)
(0.00795965 2.95846 -1.37307e-18)
(0.0144945 2.98198 0)
(0.0108696 2.90357 0)
(0.0244845 2.93048 2.10792e-24)
(0.0046003 2.82518 0)
(0.0309595 2.91637 0)
(-0.00501701 2.74583 0)
(0.306785 3.5464 0)
(-0.131637 3.62749 0)
(0.138684 3.24176 -7.22951e-19)
(-0.0132161 2.97872 0)
(-0.0156026 1.98151 0)
(-0.00568486 2.16656 -1.62608e-21)
(-0.0110527 1.91963 -5.06854e-21)
(0.380731 0.144565 -3.55568e-19)
(0.306387 0.0222631 -3.44606e-19)
(0.347005 0.154318 -1.06643e-18)
(0.257658 0.0421745 -6.97835e-19)
(0.22676 0.973532 0)
(0.267469 1.29325 -3.66824e-19)
(0.360132 1.22308 6.10924e-19)
(0.987453 0.0085605 0)
(0.941894 0.00583243 0)
(1.0003 0.000579137 0)
(1.00286 0.00930719 0)
(1.00302 0.00846603 -2.75621e-18)
(0.991911 0.00969775 2.0814e-18)
(-0.00272799 0.805527 0)
(0.004987 0.525419 0)
(-0.0358722 1.00172 0)
(-0.0223671 0.84072 0)
(0.0032677 0.504113 0)
(0.0339746 0.138211 2.23574e-19)
(0.103733 0.111001 0)
(0.993547 -0.00837666 0)
(0.954443 -0.00652485 0)
(0.754571 0.0471908 0)
(0.68961 0.0540695 0)
(0.664206 -0.0298445 0)
(0.967033 -0.00791963 0)
(0.601352 0.0718847 0)
(0.44421 -0.0119662 1.5434e-18)
(-0.0368708 2.86285 6.80606e-19)
(0.0411598 2.91016 0)
(0.0539083 2.88567 0)
(-0.00409646 2.70023 0)
(-0.0132127 2.98509 8.69829e-19)
(-0.0179124 2.89497 0)
(-0.0154618 2.98804 -2.696e-18)
(-0.0132632 2.92517 9.22995e-19)
(-0.0145316 1.34473 0)
(0.00630429 1.37261 0)
(-0.00664139 2.13407 3.3276e-22)
(-0.00585374 2.09709 0)
(-0.0202377 1.90359 0)
(0.938338 -0.00749945 0)
(0.857029 -0.00990363 0)
(0.863331 0.00595778 0)
(0.949423 -0.00789795 0)
(0.883882 -0.00816095 0)
(0.516174 1.12964 -2.2916e-19)
(0.565299 1.18064 0)
(0.368915 0.881494 3.38721e-20)
(0.311241 0.740375 0)
(0.907715 1.05045 -1.4954e-19)
(1.02449 0.861063 3.01282e-19)
(0.351926 1.34649 0)
(0.519736 1.31334 0)
(0.543633 1.25553 0)
(0.119257 0.185135 -3.02758e-19)
(0.262624 0.156962 0)
(0.233439 0.075682 1.96642e-19)
(0.995749 0.915651 0)
(1.06889 0.770904 0)
(1.09391 0.712542 -2.35706e-19)
(1.12721 0.616524 0)
(1.17788 0.401851 5.63342e-20)
(0.957654 -0.00875792 0)
(0.962456 -0.0100703 0)
(0.901647 -0.00797241 0)
(0.984189 -0.00916114 0)
(0.974682 -0.00935867 0)
(0.937102 -0.00636698 0)
(1.00019 0.00233709 0)
(1.0009 0.00140947 0)
(0.99991 0.000853257 0)
(0.0350583 2.07141 4.34879e-19)
(0.119554 1.76304 0)
(0.0171641 2.18577 6.7162e-19)
(0.0475871 1.87363 -5.62889e-19)
(0.100848 1.15659 -2.584e-19)
(0.0438406 1.04543 0)
(0.140757 0.994597 0)
(0.00784148 0.883975 0)
(0.0164303 0.651951 0)
(-0.00128434 2.23696 -9.71517e-22)
(0.0169849 2.0087 0)
(-0.00186736 2.23812 -3.94217e-20)
(0.00999601 2.01303 6.56665e-20)
(0.00353805 0.857175 0)
(0.00102339 0.838903 0)
(0.0098247 0.611619 0)
(-0.00275817 0.813302 0)
(0.00871657 0.544251 0)
(0.937241 0.00953132 0)
(0.848501 -0.0149356 0)
(0.926739 0.000199413 0)
(0.841612 -0.0129651 0)
(0.812082 -0.000474429 0)
(0.900124 0.0210657 0)
(0.875158 0.0256902 0)
(0.788804 -0.00321871 0)
(0.00560562 3.06474 -8.62611e-21)
(0.0165938 3.05775 0)
(0.0146038 2.96903 0)
(0.00862529 2.87625 0)
(0.922942 3.96084 0)
(1.23685 3.29407 9.2917e-19)
(0.0693655 3.07104 0)
(-0.0292123 2.90346 0)
(-0.0018137 1.39393 0)
(-0.0183921 1.6899 0)
(-0.00668739 1.52726 0)
(-0.0251686 2.56063 -9.32911e-21)
(-0.00726978 2.24501 0)
(-0.0144085 2.39572 0)
(0.00218973 1.94065 1.09731e-21)
(-0.00281167 2.23613 2.34952e-21)
(-0.00491461 2.19913 5.04933e-21)
(-0.0053826 1.92827 0)
(0.424699 0.12763 5.4096e-19)
(0.352852 0.0123807 -5.30954e-19)
(0.259617 1.58325 0)
(0.274747 0.747101 -3.15741e-19)
(0.177022 1.66957 -1.05379e-18)
(0.226476 1.21245 1.0562e-18)
(0.902114 0.00641572 0)
(0.967445 0.011093 0)
(0.974574 0.0107928 0)
(0.923363 0.00643071 0)
(-0.00276802 0.81316 0)
(0.00411929 0.808144 0)
(-0.000315327 0.533189 0)
(0.174598 0.146039 6.32362e-19)
(0.145088 0.133122 -7.46291e-19)
(0.140616 0.101544 0)
(1.0933 0.0847261 2.76702e-20)
(1.07548 0.0385922 0)
(1.00931 0.0392481 0)
(0.904347 -0.00621648 0)
(0.470357 0.107527 0)
(0.524167 0.0879052 -2.46684e-18)
(0.395565 0.00746681 9.22969e-19)
(0.00879624 2.98062 7.29482e-19)
(-0.0331552 2.86507 4.51987e-20)
(0.00364549 3.05028 -1.82569e-20)
(0.0201657 3.04333 6.4904e-19)
(-0.0149782 2.99656 3.03064e-20)
(-0.012971 2.94946 -1.21875e-22)
(-0.017285 3.01192 -5.60338e-19)
(0.0149218 3.02367 4.06026e-19)
(0.00742794 3.03693 -6.43658e-19)
(0.933425 -0.00140032 0)
(0.939091 -0.00336497 0)
(0.845333 -0.00945164 0)
(0.956612 0.0118434 0)
(0.94282 0.0131329 0)
(0.881664 0.00595208 0)
(0.917341 0.0170017 0)
(0.926132 0.0149056 0)
(0.838566 0.00278672 0)
(0.718747 1.40707 4.00877e-20)
(0.751992 1.51582 0)
(0.185187 0.321382 7.13542e-20)
(0.224989 0.666731 5.75613e-19)
(0.262331 0.722057 -3.35477e-19)
(0.265442 0.529353 6.66921e-19)
(0.342217 0.805035 1.59227e-18)
(0.138219 0.228002 3.74862e-19)
(0.316102 0.159882 7.39934e-19)
(0.289577 0.160239 1.92908e-19)
(0.24291 0.0590799 3.66578e-19)
(1.16714 0.459622 5.23117e-20)
(1.18414 0.253941 4.76103e-20)
(0.00946151 2.23327 2.60722e-19)
(0.0415153 1.9402 0)
(0.968218 0.0288877 0)
(0.941569 0.013624 0)
(0.866894 -0.0182049 0)
(0.0114157 3.07452 0)
(0.019803 2.94411 1.1898e-18)
(0.0164134 2.95642 0)
(0.0062939 2.85057 -1.18049e-18)
(0.00623271 3.09117 2.88995e-19)
(0.00706153 3.0822 0)
(0.784861 1.81775 -1.59612e-19)
(1.24468 2.49428 4.06402e-19)
(0.766883 1.95719 -1.2343e-18)
(0.0199058 2.98132 -6.29207e-19)
(0.035202 3.00021 0)
(-0.0343886 2.87758 0)
(-0.00334331 2.21787 -1.29752e-20)
(-0.00237971 2.23974 -9.15963e-21)
(0.00429904 1.97479 -7.37848e-21)
(0.277206 1.39129 1.02682e-18)
(0.234268 0.538163 -7.04291e-19)
(0.0635139 1.99631 7.69817e-19)
(0.135586 1.88329 -9.16638e-19)
(0.180251 1.50483 9.37647e-20)
(0.00303204 3.11911 -1.79764e-18)
(0.0118854 3.11931 1.96829e-18)
(-0.00906199 2.98101 7.99856e-19)
(-0.00442562 2.97745 -7.54464e-19)
(-0.0211468 2.8807 -8.14642e-19)
(0.00848193 3.10023 -2.15033e-18)
(0.00210907 3.10479 2.14514e-18)
(0.279504 0.693172 0)
(0.246114 0.682682 -1.19244e-18)
(0.0964207 0.225788 5.29323e-19)
(0.3549 0.930953 1.11183e-18)
(0.193318 0.272984 -1.71422e-18)
(1.17775 0.1729 6.62716e-20)
(1.18469 0.308259 0)
(1.16605 0.121196 -1.081e-20)
(0.00106427 2.2494 -1.61247e-21)
(0.00432359 2.24216 0)
(0.0257286 1.97545 0)
(0.340111 1.3003 -3.69177e-19)
(0.372385 1.14223 -8.00534e-19)
(0.207601 0.372889 1.42639e-18)
(1.00588 -0.0108433 0)
(1.00767 -0.00764266 5.0855e-19)
(-0.0124139 1.3242 0)
(-0.0278608 1.31882 0)
(1.00222 0.00350571 1.80624e-21)
(1.00366 0.00945764 1.03817e-18)
(-0.0162947 2.54384 1.18221e-20)
(-0.0213176 2.5866 0)
(0.0345263 3.17755 4.18093e-19)
(0.392964 3.48693 0)
(1.16799 0.657628 -6.21717e-20)
(1.01288 0.0131088 -2.14324e-21)
(1.02129 -0.0103372 0)
(1.0017 0.000119094 7.43579e-23)
(0.102994 1.36032 0)
(0.144039 2.57547 0)
(0.0257673 1.306 0)
(-0.00120187 2.62461 3.79051e-20)
(-0.022001 2.58027 1.31274e-20)
(0.99998 0.0293763 2.50321e-21)
(1.06247 0.0042023 0)
(1.09629 0.0241834 0)
(-0.0211061 1.73242 0)
(-0.0162023 2.58313 0)
(0.000915654 1.30767 0)
(0.301027 1.47427 -1.6729e-19)
(1.01128 -0.00963454 0)
(1.0094 -0.0149192 0)
(1.00236 0.000736507 6.49783e-19)
(1.00547 -0.00481399 -7.63837e-19)
(1.00118 -0.000983173 0)
(-0.00673736 1.45894 0)
(-0.000586732 1.37152 0)
(0.000909727 1.41703 0)
(-0.00330071 1.2959 0)
(-0.00932687 1.2814 0)
(0.00078351 1.26348 0)
(1.03483 -0.00620186 0)
(1.02006 0.0156323 -8.68587e-22)
(0.81809 1.26533 2.54696e-19)
(1.00224 0.000301457 -6.47693e-19)
(1.00407 0.00524973 7.5786e-19)
(1.00117 0.00206657 0)
(1.01276 0.0103281 6.44242e-19)
(1.008 0.008301 -7.8055e-19)
(1.00857 0.0146903 0)
(-0.0210344 2.61214 0)
(-0.0227934 2.59309 -1.3544e-20)
(-0.0205066 2.60655 9.57083e-21)
(1.23316 0.264154 5.95911e-19)
(1.1595 0.0854293 0)
(0.0410393 3.07751 -9.30131e-19)
(0.0647402 2.85516 -6.76631e-20)
(0.13953 3.19205 1.42559e-18)
(0.134488 3.22041 -2.03844e-19)
(0.133518 3.23182 0)
(0.0194443 3.13753 2.40313e-19)
(0.075006 3.1598 9.17365e-19)
(0.0675039 3.18549 -4.52859e-19)
(0.0223173 3.12952 0)
(0.609936 0.277219 0)
(0.534619 0.31437 0)
(1.13844 0.69382 1.45383e-19)
(1.13359 0.814515 -1.33743e-19)
(1.19506 0.580238 0)
(1.22333 0.514799 0)
(1.01609 0.0133375 -1.20092e-18)
(1.01499 0.0142658 1.50744e-18)
(1.0253 -0.00986763 0)
(1.02336 -0.0118977 0)
(1.00642 0.00259397 0)
(1.01042 0.00371265 0)
(1.00458 0.00185117 0)
(1.0098 0.00620902 0)
(1.00783 0.00595713 0)
(1.00451 0.00468772 0)
(0.0918688 1.35778 0)
(0.0857926 1.32659 0)
(0.12329 1.39471 0)
(0.138304 1.40324 0)
(0.145029 2.6004 0)
(0.185416 2.66939 -4.29058e-19)
(0.100501 2.65626 0)
(0.0845724 2.65847 2.03418e-19)
(0.0375011 2.67987 -1.60773e-19)
(0.0177396 1.31695 0)
(0.0180355 1.2442 0)
(0.0187169 1.32585 0)
(0.0342013 1.26975 0)
(0.0010014 1.98275 -6.74178e-21)
(-0.020781 2.60831 -7.34565e-21)
(-0.0097335 2.66607 2.59954e-20)
(-0.0190218 2.68407 0)
(-0.0229823 2.61383 -2.86438e-20)
(-0.0229457 2.60861 -1.50436e-21)
(0.00982034 1.98135 7.54534e-21)
(-0.00824167 2.39638 9.85553e-21)
(-0.0145112 2.41864 -2.94823e-20)
(1.01023 0.0373886 1.22616e-18)
(1.00551 0.0160991 -1.51475e-18)
(1.00135 0.0448415 -1.2276e-18)
(0.977505 0.0224707 1.56635e-18)
(1.06371 0.00801057 0)
(1.04897 -0.00846907 0)
(1.09343 0.0342099 0)
(1.07366 0.0124309 0)
(1.07145 0.000146964 0)
(1.1392 0.0818204 0)
(1.11055 0.0437047 0)
(1.11388 0.0317044 0)
(-0.0200441 2.4328 3.61038e-22)
(-0.00720085 2.00576 0)
(-0.00924376 2.21337 0)
(-0.017951 2.60378 -5.45852e-21)
(-0.015805 2.61316 -2.68877e-23)
(0.00672066 1.56767 -2.54248e-20)
(-4.03819e-05 1.49737 2.58931e-20)
(-0.010027 1.38748 0)
(-0.0126198 1.3945 0)
(-0.0158513 1.38939 0)
(-0.000462193 1.30867 0)
(0.0107471 1.23527 0)
(0.380681 1.49069 2.71696e-19)
(0.422458 1.49196 1.44095e-19)
(0.598172 2.45021 -2.40375e-19)
(0.400313 2.54625 7.08558e-19)
(0.351584 2.06235 7.1509e-20)
(1.02102 -0.00816091 0)
(1.01548 -0.0097715 0)
(1.0149 -0.0155099 0)
(1.00741 -0.00112352 0)
(1.00493 -0.00092894 0)
(1.00777 -0.00471959 0)
(1.00926 -0.00366264 0)
(1.01419 -0.00442855 0)
(1.02081 0.0162075 1.1761e-18)
(1.01783 0.0156205 -1.50553e-18)
(1.02117 0.018189 -1.18504e-18)
(1.01894 0.0167889 1.48159e-18)
(0.780464 1.31658 0)
(0.717265 1.36623 2.40904e-19)
(0.892441 1.21708 9.21181e-20)
(0.938792 1.16204 -1.22588e-19)
(1.15686 2.60367 2.81805e-19)
(0.783009 0.118202 6.01438e-19)
(1.16168 0.107008 0)
(1.20925 0.191696 -4.79108e-19)
(1.19588 0.153493 -2.03344e-20)
(1.00544 0.154169 0)
(0.131573 2.95922 5.43825e-19)
(0.108395 2.86507 -1.18102e-18)
(0.0178146 2.3755 7.9204e-19)
(0.0909391 -0.0938367 -3.47376e-19)
(0.337934 3.41656 -2.11761e-19)
(0.192398 3.31013 0)
(0.236069 3.3513 2.75786e-19)
(0.241873 3.03211 -1.808e-18)
(0.336063 3.19098 0)
(0.00736308 3.12077 4.68372e-20)
(0.0170938 3.12969 -5.51006e-19)
(0.0156056 3.12576 8.10994e-19)
(0.0353253 3.13958 0)
(0.0335145 3.15045 0)
(1.21339 2.60192 0)
(0.543381 0.815671 -5.31519e-19)
(1.06089 0.986985 -1.93377e-21)
(0.995578 1.07186 0)
(0.848745 0.96992 -1.12579e-19)
(1.08501 0.889091 2.8288e-20)
(0.342777 0.359559 -8.94881e-19)
(0.669629 0.314362 -1.90959e-20)
(0.607544 0.218593 4.19602e-19)
(0.559943 0.34955 3.09276e-20)
(0.461597 0.304929 -1.24358e-18)
(0.634572 0.321771 0)
(0.700557 0.419096 7.13287e-19)
(0.708922 0.421193 0)
(0.594824 0.343585 0)
(0.542066 0.25688 0)
(0.811417 0.617427 4.20548e-19)
(1.23352 0.286105 -5.03034e-19)
(1.23312 0.424315 0)
(1.2418 0.364982 0)
(0.717927 0.190562 6.24603e-19)
(0.859507 0.544976 -3.86564e-19)
(0.758214 0.515393 6.85889e-19)
(0.954717 0.436661 -7.53542e-19)
(1.01944 0.0148486 8.07373e-19)
(1.0177 0.0142885 -8.12445e-19)
(1.01592 0.0154544 0)
(1.03629 -0.00574401 0)
(1.02977 -0.00846382 -7.61092e-19)
(1.0278 -0.0120375 7.53547e-19)
(1.02493 0.0102199 0)
(1.02349 0.0139131 0)
(1.01142 0.00410969 0)
(1.01423 0.00908485 0)
(1.01513 0.00407202 0)
(1.01424 0.00283731 0)
(0.0624341 1.34216 0)
(0.0669107 1.29687 0)
(0.143171 1.37213 5.08163e-21)
(0.273186 1.47106 8.75062e-20)
(0.16611 1.44192 1.82863e-19)
(0.198328 1.44843 -2.98906e-19)
(0.164972 1.3972 0)
(0.132403 1.59699 -7.5354e-20)
(0.11582 1.57188 0)
(0.349249 2.01415 -1.03965e-19)
(0.344457 2.34724 6.19767e-19)
(0.18944 1.45613 6.56963e-20)
(0.261553 1.38745 2.23706e-20)
(0.197659 1.37646 -1.81214e-20)
(0.273734 1.33152 -1.03515e-19)
(0.2412 1.57996 0)
(0.264339 1.61887 1.12683e-19)
(0.0297476 2.26554 -3.23053e-20)
(0.0424307 2.66981 0)
(0.0651368 2.40253 1.40527e-19)
(0.0614312 2.4232 0)
(0.0686938 2.67214 -2.25364e-19)
(0.0481559 2.69973 0)
(0.0258999 1.42084 1.99368e-20)
(0.0327302 1.47221 0)
(0.0283978 1.3896 0)
(0.0233761 1.39335 -2.24951e-20)
(-0.000811058 2.65255 -1.71554e-20)
(0.0283562 2.69838 1.8189e-19)
(0.00923049 2.7224 1.28571e-21)
(0.00165907 1.83135 7.27653e-21)
(-0.00431842 1.68362 1.54901e-21)
(0.0136364 1.29778 0)
(0.0184424 1.22211 0)
(0.0456918 1.58011 -1.47504e-20)
(0.0286602 1.45497 -2.01261e-20)
(0.0354281 1.5193 2.54142e-20)
(0.0384271 1.60418 0)
(-0.0264342 2.26672 7.0182e-20)
(-0.0271 2.54893 -2.86687e-20)
(-0.0147609 2.44452 7.6911e-22)
(-0.0036158 1.84796 -8.81851e-21)
(-0.0245125 2.49796 -2.44166e-21)
(-0.0203528 2.44149 1.85091e-20)
(1.01904 0.0210691 -8.03598e-19)
(1.01497 0.0269564 8.07649e-19)
(1.01402 0.0163849 0)
(1.0122 0.0716142 1.13357e-18)
(0.989316 0.0602289 -1.27725e-18)
(0.946322 0.0455868 1.42956e-18)
(1.01402 0.110312 -1.51027e-19)
(1.04264 -0.0057629 0)
(1.05091 -0.00147717 7.26089e-19)
(1.03894 -0.00988462 -7.27515e-19)
(1.071 0.0419438 -4.32146e-20)
(1.06435 0.0235167 3.72545e-19)
(1.06322 0.0560041 0)
(1.05329 0.0493749 -1.33971e-19)
(1.03249 0.0424768 0)
(1.02557 0.0387166 0)
(1.02782 0.0132262 0)
(1.02401 0.0159478 0)
(1.03971 0.032021 2.75885e-19)
(1.03885 0.0269208 -6.09785e-19)
(1.05098 0.0338404 -2.92404e-19)
(1.04819 0.0338386 -3.22117e-19)
(1.07096 0.0642293 6.28609e-19)
(1.09602 0.0519296 0)
(1.10457 0.0953726 0)
(-0.0212627 2.27193 4.26396e-20)
(-0.018343 2.01326 -2.41401e-22)
(-0.0149327 2.01958 0)
(-0.0236471 2.44432 -4.24451e-20)
(-0.0176146 2.40068 -9.36283e-23)
(-0.0286674 2.47372 3.96831e-21)
(-0.019748 2.62128 7.12307e-22)
(-0.020892 2.56265 -8.82446e-22)
(-0.0200855 2.51363 9.96724e-22)
(-0.0141349 2.61558 3.4304e-21)
(-0.0195546 2.61735 -2.63751e-21)
(-0.00257972 1.48699 -3.08503e-22)
(0.00764684 1.61635 -2.05543e-20)
(0.365406 1.44058 -1.14563e-19)
(0.36693 1.37746 3.57952e-20)
(0.657045 1.41662 -2.33265e-19)
(0.523122 1.4843 -1.4167e-19)
(0.581913 1.44943 0)
(0.593874 2.42706 2.07432e-19)
(0.661697 2.4212 3.38332e-19)
(0.411476 2.51736 8.68416e-20)
(0.402942 2.54241 -6.15016e-19)
(0.511232 2.48478 6.14114e-19)
(0.55365 2.464 0)
(0.489247 2.52097 -5.61501e-19)
(0.248383 2.59363 1.15585e-18)
(0.354737 2.56631 -7.86765e-20)
(0.284327 2.65528 -1.59798e-18)
(0.94724 2.37909 7.29293e-19)
(0.838123 2.38451 0)
(1.01105 0.000469779 2.63653e-20)
(1.01531 -0.00543276 -2.13909e-20)
(1.01764 -0.00355822 -3.90711e-19)
(1.015 -0.000909222 3.92782e-19)
(1.01242 0.00117672 0)
(0.644596 1.28695 0)
(0.669086 1.18372 0)
(0.781368 1.09707 0)
(0.661672 1.14584 0)
(1.18644 2.61749 5.96444e-20)
(1.07512 2.3647 0)
(0.837419 2.17297 3.83967e-21)
(0.825821 2.43902 0)
(0.923193 2.53117 -4.22535e-19)
(0.958715 2.48699 2.81116e-19)
(0.80673 0.176563 0)
(0.760222 0.151283 1.6322e-19)
(0.915318 0.148554 9.50581e-19)
(0.829976 0.150299 -3.5608e-19)
(0.79019 0.0854673 -1.09781e-18)
(1.07998 0.236748 -9.02906e-19)
(0.997214 0.295731 -1.6242e-20)
(0.929283 0.298515 8.69533e-19)
(1.00788 0.22777 7.26839e-19)
(0.950418 0.193604 -1.25967e-18)
(0.914658 0.197493 1.5744e-19)
(0.954283 0.260211 -3.34721e-19)
(0.929584 0.222485 0)
(0.993184 0.189628 6.21152e-19)
(1.04708 0.190491 0)
(1.04394 0.217712 0)
(1.1058 0.118891 2.9229e-19)
(1.07112 0.177632 -1.46488e-20)
(1.07423 0.237546 -1.58964e-19)
(1.10132 0.203947 0)
(1.02295 0.0465596 6.22487e-19)
(1.03981 0.0593711 7.76026e-19)
(1.03376 0.0448348 -6.17392e-19)
(1.04253 0.0662382 -5.20123e-19)
(1.01911 0.0739145 -7.97151e-19)
(0.987787 0.160991 0)
(0.997767 0.106141 0)
(0.964816 0.0681993 -5.08955e-19)
(0.909778 0.0924484 1.99874e-19)
(1.03935 0.105637 7.18779e-19)
(1.06895 0.122071 -8.42871e-19)
(1.0748 0.155225 7.52421e-19)
(1.02918 0.145675 0)
(1.07444 0.110329 0)
(1.05458 0.0909446 -3.44898e-19)
(1.04367 0.0959709 -5.87954e-19)
(0.582198 1.06746 1.4056e-19)
(0.608733 1.39391 -4.20675e-20)
(1.15635 2.73313 -2.27202e-19)
(1.22226 3.07514 1.55432e-21)
(1.24845 2.71629 -1.25929e-19)
(1.27746 2.69987 -3.20038e-20)
(1.20547 2.34063 -1.07373e-20)
(1.20986 2.97908 -9.25907e-20)
(1.22977 2.94442 2.33501e-19)
(1.21266 3.22839 -1.43845e-19)
(1.37283 2.95988 1.98834e-19)
(1.36223 2.87813 0)
(0.554637 0.823211 -5.02187e-20)
(0.122886 1.23816 5.73996e-19)
(0.544152 0.39868 5.80725e-19)
(0.383499 0.146291 6.37117e-19)
(0.49826 0.342986 7.0292e-19)
(0.541921 0.448719 -1.13241e-18)
(0.544448 0.447755 9.25818e-19)
(0.480319 0.355003 -3.52733e-19)
(0.379589 0.286293 8.00651e-19)
(0.727831 0.261204 -3.59616e-19)
(0.689356 0.283557 0)
(0.654192 0.203389 7.91897e-21)
(0.736196 0.506543 3.75283e-19)
(0.70878 0.475598 -1.36737e-18)
(0.614392 0.452301 1.32954e-20)
(0.619242 0.442105 0)
(0.683741 0.719089 4.00631e-19)
(0.845518 0.77482 4.02922e-19)
(0.770164 0.856705 -4.71264e-19)
(0.892824 0.812512 -1.58716e-19)
(0.924386 0.856756 -3.87494e-20)
(0.931572 0.856738 3.96787e-20)
(0.856045 0.652773 -6.96852e-19)
(0.938627 0.707715 1.47427e-19)
(0.998469 0.723751 0)
(0.989139 0.700499 -2.00294e-19)
(1.02652 0.335693 2.16875e-19)
(1.14419 0.301049 2.95201e-19)
(1.06712 0.274218 3.69313e-19)
(1.01341 0.368157 -4.38133e-19)
(1.06195 0.433778 0)
(1.11879 0.416565 0)
(0.921059 0.37037 3.82469e-21)
(0.842142 0.301861 0)
(0.883049 0.299977 4.09761e-19)
(0.911095 0.30571 -6.38878e-21)
(0.948428 0.439539 2.09968e-18)
(0.907013 0.496697 5.41869e-19)
(0.911505 0.462433 -5.76798e-19)
(0.831976 0.446971 6.17989e-19)
(0.814632 0.440236 3.71148e-19)
(0.78326 0.422166 -3.64926e-19)
(1.02734 -0.000332758 6.50847e-19)
(1.02 -1.76995e-05 0)
(1.01852 0.00090932 4.24332e-19)
(1.02168 -0.00166309 -9.61205e-19)
(1.02232 0.00437587 4.66944e-19)
(1.02035 0.0113454 -9.7791e-19)
(1.02128 0.0107251 0)
(1.02056 0.0109617 -2.03795e-19)
(1.01596 0.00775271 5.1127e-19)
(1.01666 0.0105247 -2.55094e-19)
(1.01736 0.00987383 1.87876e-19)
(0.028921 1.3188 0)
(0.034135 1.36232 0)
(0.0432501 1.31953 0)
(0.0478672 1.27585 0)
(0.0708065 1.38521 -3.5927e-20)
(0.0778629 1.35484 1.79126e-20)
(0.112314 1.5239 -1.58645e-20)
(0.0942697 1.36896 -3.57224e-21)
(0.0335259 1.45954 4.2882e-22)
(0.0375844 1.45234 -1.52668e-22)
(0.0625193 1.36971 -8.2851e-21)
(0.0547042 1.37111 3.35995e-20)
(0.0487528 1.34677 4.8265e-21)
(0.0391776 1.37007 1.47383e-21)
(0.106658 2.37277 -1.55149e-19)
(0.0954333 2.41982 0)
(0.170427 2.04742 1.09021e-19)
(0.110579 1.70935 4.10785e-20)
(0.231901 2.04276 -9.01982e-20)
(0.202931 2.43526 0)
(0.264254 2.38551 -6.04814e-19)
(0.303777 2.38324 4.28149e-19)
(0.230083 2.00342 -2.50352e-19)
(0.154169 2.1633 1.69405e-19)
(0.1424 2.27291 0)
(0.0163179 1.87821 -7.54458e-21)
(-0.00202114 2.39632 -5.33311e-20)
(0.00391562 2.15106 0)
(0.00986839 2.45861 -1.34588e-20)
(0.0263069 2.30318 1.53767e-20)
(0.015467 1.40268 -4.24146e-21)
(0.0138371 1.38809 7.38333e-20)
(0.013769 1.39284 -2.56556e-20)
(0.0201961 1.39348 -1.91442e-20)
(0.024925 1.42463 0)
(0.00966755 1.37412 0)
(0.00197778 1.29051 -2.67189e-20)
(0.012068 1.36594 7.30373e-21)
(0.0121091 1.36624 0)
(0.00885918 1.28449 -1.96024e-20)
(0.0149897 1.21151 4.04252e-20)
(1.04058 0.0116771 0)
(1.04669 0.00794697 -6.81266e-20)
(1.03854 0.0217495 -4.91459e-19)
(1.04824 0.0205578 0)
(1.05209 0.0203954 0)
(1.03625 0.011845 -6.72924e-21)
(1.03096 0.0116883 7.89771e-19)
(1.0317 0.0165769 9.57403e-19)
(1.0256 0.0204572 0)
(1.02259 0.0208391 0)
(1.03506 0.0254132 4.90197e-19)
(1.02584 0.0267089 0)
(1.02392 0.0267695 0)
(-0.0166849 2.01866 0)
(0.00374507 1.64673 -3.73813e-21)
(-0.00273568 1.75402 -2.44329e-20)
(0.00484063 1.3777 0)
(-0.0047891 1.54676 -9.55972e-21)
(-0.00487526 1.45587 6.81083e-21)
(0.000486072 1.39081 0)
(0.392702 1.66082 0)
(0.371101 1.30646 -6.98322e-20)
(0.304018 1.34557 0)
(0.425433 1.30764 6.84268e-21)
(0.471143 1.46339 0)
(0.452552 1.4106 2.42307e-20)
(1.03684 2.68081 -1.54388e-20)
(0.96813 2.4081 -9.16747e-19)
(0.920673 2.19446 1.03479e-18)
(0.851951 2.37639 2.42523e-19)
(0.848434 2.49172 0)
(0.918417 2.48744 0)
(0.930545 2.37283 0)
(0.909343 2.36163 -9.45527e-19)
(0.689199 2.45755 -3.94515e-19)
(0.801614 2.44709 -9.77105e-20)
(0.812318 2.42099 7.43131e-20)
(0.696094 2.39451 0)
(0.800916 2.38972 0)
(0.759295 2.40296 -3.68839e-19)
(0.768968 2.48218 0)
(0.627954 1.09588 0)
(0.48345 0.911072 -5.07188e-19)
(0.562094 0.948959 -3.21698e-20)
(0.523094 1.04534 0)
(0.523251 0.990748 7.6081e-19)
(0.791926 0.880082 -1.32206e-19)
(0.80386 1.01658 0)
(0.778498 0.982173 1.89737e-19)
(0.662228 1.03251 0)
(0.664116 0.936264 0)
(1.16506 2.75574 -2.31173e-19)
(1.14262 2.81901 -9.78742e-20)
(0.931464 2.33582 1.01778e-19)
(0.899319 2.31546 -8.37299e-20)
(1.1305 2.72908 0)
(1.08421 2.69879 1.00756e-19)
(1.09058 2.48298 -3.16334e-19)
(0.985445 2.23497 -3.06389e-20)
(0.498092 1.34394 0)
(0.512736 1.07119 -1.23943e-19)
(0.576591 1.171 0)
(0.856941 0.241378 0)
(0.775041 0.191722 0)
(0.705086 0.155341 0)
(0.849937 0.241932 -6.44961e-19)
(0.746158 0.231558 3.74928e-19)
(0.926501 0.0791473 -4.1266e-19)
(0.939676 0.125635 0)
(0.920979 0.137628 1.77516e-19)
(0.857548 0.113097 7.1204e-19)
(0.823671 0.071346 -4.45572e-19)
(1.15851 3.35358 -7.20815e-19)
(1.20706 3.27295 0)
(1.15635 3.3822 -1.4897e-18)
(0.644481 3.54333 1.26478e-18)
(0.867555 3.11164 7.29484e-20)
(0.520331 0.821027 6.0546e-19)
(0.428868 0.818535 0)
(0.320955 0.433981 -1.50851e-19)
(0.460533 0.659986 8.62585e-19)
(0.546743 0.401081 -2.02709e-19)
(0.512205 0.477773 2.35271e-19)
(0.667288 0.516223 5.06127e-19)
(0.702152 0.549061 0)
(0.65291 0.58735 0)
(0.613196 0.533402 0)
(0.999927 0.610491 9.36071e-20)
(0.912447 0.546458 -5.27215e-19)
(0.938461 0.579481 3.98801e-19)
(0.97073 0.517907 -4.07679e-19)
(1.07908 0.490003 0)
(1.08738 0.580476 -1.00372e-19)
(0.85436 0.400061 -8.47273e-19)
(0.856581 0.388523 -1.04755e-18)
(0.794903 0.386949 6.6075e-19)
(0.799152 0.359987 -6.74518e-19)
(0.84595 0.321535 -5.29576e-19)
(0.795019 0.320693 6.49035e-19)
(1.02666 0.00587599 -4.96858e-19)
(1.02638 0.00609512 1.0109e-18)
(1.02935 6.21949e-05 6.30825e-19)
(1.03354 0.000972803 -7.59774e-19)
(1.03367 0.00895555 0)
(1.03004 0.00962764 -1.23662e-18)
(0.0620509 1.643 2.20057e-20)
(0.0450723 1.58 0)
(0.0855329 1.69379 1.31288e-19)
(0.0959562 1.67592 -1.1544e-19)
(0.0881524 1.53535 2.97462e-20)
(0.0865095 1.52437 0)
(0.010247 1.67915 0)
(-0.00335432 1.48399 2.32493e-21)
(-0.00239324 1.43032 -2.09116e-21)
(-0.00546197 1.5429 5.53825e-21)
(0.00210903 1.87939 2.84144e-21)
(-0.00945321 1.93381 1.97661e-21)
(0.499931 1.36759 -2.75522e-19)
(0.493407 1.37056 3.02599e-19)
(0.452713 1.30249 -3.12377e-20)
(0.439036 1.29325 7.82763e-21)
(0.63675 1.30429 0)
(0.551244 1.39416 1.02396e-19)
(0.567187 1.39938 -9.9724e-20)
(0.465233 1.29002 3.03739e-20)
(0.521489 1.24303 0)
(0.573625 1.2076 0)
(0.656239 2.41714 5.79617e-19)
(0.670945 2.4579 1.26472e-18)
(0.7157 2.46853 -8.71142e-19)
(0.612117 2.44312 -2.02366e-19)
(0.561336 2.53385 2.83899e-19)
(0.509978 2.50795 -7.57075e-19)
(0.978528 2.37865 -5.78987e-19)
(1.01373 2.39105 0)
(0.926182 2.17226 -6.67867e-19)
(1.05483 2.67808 0)
(1.05713 2.6648 0)
(0.605016 2.26485 -1.20041e-19)
(1.03962 3.1576 1.33854e-19)
(0.910611 3.02797 -3.80891e-20)
(0.272925 0.876493 0)
(0.30424 0.726887 -3.18043e-19)
(0.470345 0.684387 -3.20353e-19)
(0.383282 2.01037 0)
(0.464278 2.78173 -5.07807e-20)
(0.418998 2.54496 0)
(0.703309 0.670036 -8.47845e-19)
(0.784424 0.679024 1.14526e-18)
(0.806512 0.622939 -1.13231e-18)
(0.682606 0.633068 -1.0924e-19)
(0.737578 0.589807 -4.4991e-19)
(1.00272 2.75868 -1.01792e-19)
(1.04221 2.81742 -1.63456e-19)
(0.635636 2.13343 6.80524e-19)
(0.590314 1.70232 -4.85311e-19)
(0.69714 1.89758 -4.05728e-19)
(0.988936 2.44219 -1.1367e-19)
(0.995132 2.43476 2.96197e-19)
(0.65537 1.83318 2.81245e-20)
(0.446542 1.32283 1.44917e-19)
)
;

boundaryField
{
    wall-4
    {
        type            noSlip;
    }
    velocity-inlet-5
    {
        type            fixedValue;
        value           uniform (1 0 0);
    }
    velocity-inlet-6
    {
        type            fixedValue;
        value           uniform (0 3 0);
    }
    pressure-outlet-7
    {
        type            zeroGradient;
    }
    wall-8
    {
        type            noSlip;
    }
    frontAndBackPlanes
    {
        type            empty;
    }
}


// ************************************************************************* //
