/*--------------------------------*- C++ -*----------------------------------*\
  =========                 |
  \\      /  F ield         | OpenFOAM: The Open Source CFD Toolbox
   \\    /   O peration     | Website:  https://openfoam.org
    \\  /    A nd           | Version:  10
     \\/     M anipulation  |
\*---------------------------------------------------------------------------*/
FoamFile
{
    format      ascii;
    class       volScalarField;
    location    "68";
    object      p;
}
// * * * * * * * * * * * * * * * * * * * * * * * * * * * * * * * * * * * * * //

dimensions      [0 2 -2 0 0 0 0];

internalField   nonuniform List<scalar> 
2200
(
0.771481
0.749983
0.734079
0.718417
0.703814
0.691306
0.680967
0.672882
0.667203
0.664289
0.664824
0.66866
0.675031
0.68361
0.694305
0.707089
0.72189
0.737826
0.753874
0.775372
0.703902
0.700645
0.697723
0.69361
0.688156
0.681693
0.67509
0.66916
0.664689
0.662359
0.662866
0.666228
0.671433
0.677914
0.684915
0.691678
0.697343
0.701439
0.704291
0.707654
0.663963
0.664185
0.66625
0.667601
0.667999
0.667157
0.66519
0.662536
0.660023
0.658572
0.659177
0.661683
0.665006
0.668261
0.670611
0.671622
0.671358
0.670358
0.668714
0.668467
0.641454
0.642908
0.645506
0.647963
0.650417
0.652452
0.653627
0.653885
0.653549
0.653304
0.653997
0.655422
0.656666
0.657086
0.656425
0.654768
0.652623
0.650452
0.64785
0.646445
0.627068
0.62904
0.631864
0.634711
0.637583
0.640431
0.642913
0.644807
0.646075
0.646926
0.64773
0.648256
0.648064
0.647001
0.645169
0.642814
0.640275
0.637556
0.634769
0.632846
0.619689
0.621287
0.623497
0.626037
0.628718
0.631407
0.634025
0.636479
0.638548
0.640133
0.641072
0.641167
0.640386
0.638912
0.637053
0.634941
0.632629
0.630292
0.628195
0.626621
0.616212
0.617234
0.61851
0.620389
0.622553
0.624745
0.626975
0.629316
0.631595
0.633512
0.634632
0.634725
0.63402
0.632868
0.631517
0.629991
0.628317
0.626755
0.625648
0.624631
0.613489
0.614158
0.614797
0.616114
0.617749
0.619465
0.621257
0.623238
0.62538
0.627435
0.628791
0.629202
0.628959
0.628399
0.627668
0.626761
0.625736
0.624829
0.624392
0.623714
0.61017
0.610614
0.611018
0.612031
0.613317
0.614735
0.61628
0.618012
0.619955
0.62204
0.623676
0.624574
0.624926
0.624949
0.624726
0.6243
0.623755
0.623248
0.623071
0.622606
0.606033
0.606328
0.606691
0.607575
0.608709
0.610014
0.611497
0.613174
0.615075
0.617231
0.619251
0.620705
0.621597
0.622068
0.622227
0.622152
0.621902
0.621606
0.62149
0.621164
0.601214
0.601416
0.601793
0.602638
0.603757
0.605102
0.606678
0.608493
0.61057
0.612957
0.615412
0.617402
0.618753
0.61958
0.62001
0.620171
0.620108
0.619967
0.619877
0.619636
0.595888
0.596032
0.596409
0.597235
0.598404
0.599874
0.601643
0.603711
0.606117
0.608952
0.611954
0.61447
0.616237
0.617391
0.618074
0.618424
0.618575
0.618583
0.618526
0.618333
0.590129
0.590237
0.590621
0.591456
0.59271
0.594346
0.596359
0.598778
0.60166
0.605082
0.608729
0.611829
0.614052
0.61555
0.616529
0.617139
0.617506
0.617654
0.617642
0.617469
0.583955
0.584021
0.584412
0.58528
0.586638
0.588454
0.590734
0.593544
0.596995
0.601143
0.605617
0.609415
0.612172
0.614123
0.615498
0.616428
0.617044
0.617345
0.617375
0.617208
0.577194
0.577231
0.577656
0.578576
0.580096
0.582142
0.584748
0.588037
0.592177
0.597231
0.602637
0.607241
0.610692
0.613211
0.615061
0.616375
0.617259
0.617719
0.617798
0.617631
0.569821
0.56978
0.570218
0.571249
0.572989
0.575311
0.578297
0.582136
0.587035
0.593104
0.599671
0.60533
0.609633
0.61288
0.615316
0.617071
0.618263
0.618891
0.619018
0.618844
0.561516
0.561517
0.561949
0.563058
0.565047
0.567684
0.571143
0.575652
0.581472
0.588768
0.596726
0.603669
0.609026
0.613144
0.616248
0.618538
0.620081
0.620888
0.621073
0.620887
0.552077
0.552094
0.552552
0.55382
0.556108
0.55919
0.563291
0.568655
0.575611
0.584424
0.594018
0.602461
0.609078
0.614153
0.618034
0.620894
0.62284
0.623839
0.624074
0.623869
0.541133
0.541107
0.541681
0.543173
0.545808
0.549467
0.554383
0.560829
0.569179
0.579752
0.59146
0.601693
0.609698
0.615898
0.620641
0.624197
0.626596
0.627783
0.628065
0.627833
0.528064
0.527992
0.528679
0.530554
0.533782
0.538249
0.544253
0.552132
0.562317
0.575093
0.589107
0.601398
0.611028
0.618501
0.624249
0.628534
0.631414
0.632797
0.633111
0.632851
0.512685
0.512577
0.513349
0.515571
0.519542
0.525105
0.532562
0.542309
0.554829
0.570376
0.587092
0.601711
0.613095
0.621976
0.628814
0.633961
0.637362
0.638912
0.639237
0.638942
0.493942
0.493868
0.494891
0.497669
0.5026
0.509594
0.519023
0.531293
0.546813
0.565656
0.585531
0.602644
0.615972
0.626368
0.634428
0.640477
0.644368
0.64608
0.646386
0.646061
0.470758
0.470604
0.471938
0.475587
0.482069
0.491258
0.503457
0.51905
0.538263
0.560966
0.584446
0.60439
0.619841
0.631809
0.641107
0.648052
0.652402
0.654208
0.65445
0.654102
0.441002
0.441031
0.44314
0.448224
0.457027
0.469385
0.485442
0.505318
0.529008
0.556244
0.583736
0.606724
0.624363
0.638079
0.648727
0.656559
0.661253
0.6631
0.663243
0.662878
0.401708
0.401961
0.405527
0.413553
0.426378
0.443675
0.46505
0.490388
0.519489
0.551898
0.583776
0.609933
0.62989
0.645311
0.657219
0.665808
0.670694
0.672444
0.672465
0.672105
0.349389
0.349847
0.356956
0.370313
0.389731
0.414347
0.4428
0.47482
0.510153
0.54823
0.584656
0.614087
0.636287
0.653391
0.66651
0.67561
0.6803
0.681646
0.68152
0.681227
0.281015
0.283767
0.299046
0.320813
0.349193
0.382733
0.419398
0.458881
0.501061
0.545464
0.587004
0.620075
0.645028
0.664188
0.678533
0.688069
0.69239
0.693154
0.693051
0.69284
0.203159
0.212923
0.238474
0.269974
0.308567
0.351306
0.396223
0.443464
0.49296
0.544049
0.59117
0.628488
0.656549
0.67772
0.693491
0.703172
0.706943
0.707161
0.707179
0.70705
0.133865
0.148529
0.180586
0.221209
0.269522
0.321149
0.374199
0.429212
0.485932
0.543588
0.59617
0.637534
0.668156
0.691268
0.707945
0.717493
0.720886
0.720846
0.720988
0.720927
0.081077
0.0946572
0.131429
0.178136
0.233945
0.293257
0.353781
0.416026
0.479608
0.54377
0.601721
0.646791
0.679943
0.704681
0.722275
0.732172
0.735064
0.735308
0.735501
0.735496
0.0373705
0.0501568
0.0909436
0.141653
0.202938
0.26821
0.335166
0.403961
0.473933
0.544084
0.606975
0.655647
0.691519
0.718013
0.736789
0.747068
0.750519
0.751134
0.751219
0.751266
0.000402467
0.0132363
0.0566671
0.110279
0.175926
0.24607
0.318551
0.393041
0.468643
0.54419
0.611952
0.66436
0.702647
0.730812
0.750886
0.761943
0.765654
0.766236
0.766263
0.766329
-0.0319586
-0.018871
0.0267397
0.0829596
0.152275
0.226455
0.303575
0.382924
0.463589
0.54445
0.617139
0.672881
0.7133
0.74315
0.764431
0.775719
0.779792
0.780427
0.780487
0.780535
-0.0604411
-0.0474783
-0.000135352
0.0585188
0.131019
0.208672
0.289829
0.373523
0.458988
0.545013
0.62209
0.680762
0.723371
0.754445
0.776595
0.788442
0.792723
0.793465
0.793512
0.793546
-0.0864618
-0.0734573
-0.0248266
0.0361895
0.111524
0.192262
0.277031
0.364717
0.4546
0.54511
0.626094
0.687809
0.732496
0.764846
0.78738
0.799684
0.804315
0.80514
0.805196
0.805212
-0.110375
-0.0972999
-0.0478511
0.0153921
0.0932296
0.17677
0.264821
0.356062
0.449765
0.544294
0.629417
0.694257
0.740736
0.774005
0.79692
0.809794
0.814515
0.815459
0.815512
0.815507
-0.132955
-0.119528
-0.0694582
-0.00422716
0.0758041
0.161885
0.252828
0.347125
0.44427
0.542871
0.632213
0.699993
0.748144
0.782595
0.80567
0.81871
0.823545
0.82454
0.824583
0.824556
-0.154219
-0.140551
-0.0898685
-0.0229258
0.0589619
0.147267
0.240731
0.337783
0.438206
0.540725
0.634052
0.705079
0.755236
0.790515
0.813792
0.826723
0.831505
0.832512
0.832522
0.832471
-0.174327
-0.160681
-0.109272
-0.0409149
0.0425172
0.132769
0.228489
0.328094
0.431564
0.537728
0.635102
0.709598
0.76198
0.798352
0.821591
0.833861
0.838572
0.839416
0.839467
0.839376
-0.193627
-0.179802
-0.127863
-0.0583535
0.0263863
0.118345
0.216095
0.318065
0.42435
0.533931
0.635331
0.713506
0.768631
0.806098
0.829126
0.840805
0.844818
0.84552
0.845437
0.845351
-0.212542
-0.198177
-0.145814
-0.0753245
0.0105498
0.104023
0.203605
0.307715
0.416528
0.52927
0.634678
0.716888
0.77515
0.814368
0.837116
0.847544
0.85053
0.850759
0.850746
0.850799
-0.23102
-0.215934
-0.163228
-0.0918504
-0.00496362
0.0898371
0.191011
0.296995
0.408072
0.523754
0.633066
0.719589
0.781641
0.823194
0.846052
0.855113
0.855993
0.855558
0.855241
0.855074
-0.249074
-0.233291
-0.180168
-0.107928
-0.0201429
0.0757987
0.178326
0.285927
0.399034
0.517404
0.630414
0.721462
0.787844
0.83286
0.856938
0.864147
0.862475
0.860822
0.860702
0.86176
-0.266496
-0.250196
-0.196623
-0.123559
-0.0349747
0.0619265
0.165566
0.274552
0.389487
0.510256
0.626615
0.722238
0.793669
0.843171
0.870036
0.876686
0.87212
0.865148
0.860469
0.859664
-0.283342
-0.266647
-0.21257
-0.138729
-0.0494539
0.0482421
0.1528
0.262979
0.379533
0.502399
0.62166
0.721702
0.798425
0.853893
0.885622
0.893648
0.888689
0.878365
0.878857
0.883025
-0.299531
-0.282503
-0.227946
-0.153419
-0.0635484
0.0348058
0.140113
0.251297
0.369242
0.493877
0.61554
0.719561
0.801875
0.864017
0.902612
0.915369
0.909523
0.88034
0.843219
0.811087
-0.315079
-0.297808
-0.242788
-0.16769
-0.0773498
0.0215096
0.127392
0.239365
0.358401
0.484464
0.608087
0.715421
0.802816
0.872648
0.920468
0.941003
0.948432
0.921658
0.939278
1.00177
-0.329905
-0.312534
-0.257159
-0.181679
-0.0910252
0.00815312
0.114377
0.226828
0.346546
0.473589
0.598671
0.7084
0.800239
0.87679
0.930956
0.956424
0.955557
0.926129
0.881344
0.899012
-0.344019
-0.326713
-0.271031
-0.195316
-0.104485
-0.00516626
0.101181
0.213812
0.333794
0.461314
0.587213
0.698228
0.791866
0.871797
0.9277
0.95387
0.931891
0.871716
0.805159
0.791979
-0.357383
-0.340277
-0.284377
-0.208602
-0.117728
-0.0184416
0.0878111
0.20032
0.320158
0.447596
0.573554
0.684505
0.777336
0.853979
0.904937
0.904813
0.864092
0.782044
0.704976
0.678867
-0.370054
-0.353282
-0.297236
-0.221549
-0.130772
-0.0316982
0.0742541
0.18637
0.305684
0.432473
0.557607
0.666938
0.755084
0.820383
0.846634
0.828512
0.762888
0.657666
0.567973
0.543307
-0.382453
-0.366053
-0.30996
-0.234523
-0.14397
-0.0452429
0.0602448
0.171739
0.29019
0.415748
0.539083
0.644886
0.725889
0.774822
0.767483
0.728435
0.610723
0.4847
0.374873
0.345459
-0.39544
-0.379445
-0.323266
-0.248116
-0.157866
-0.0595485
0.0453845
0.156106
0.273429
0.397244
0.517785
0.617928
0.69168
0.714965
0.68028
0.586949
0.426948
0.271265
0.13942
0.109817
-0.409506
-0.393718
-0.337399
-0.262569
-0.172643
-0.0747319
0.0295997
0.13943
0.25539
0.376957
0.4936
0.586935
0.649913
0.643808
0.590562
0.436191
0.233776
0.0190783
-0.162528
-0.212827
-0.424793
-0.409124
-0.3525
-0.277886
-0.188265
-0.0907676
0.0129166
0.121747
0.236134
0.35499
0.466543
0.553352
0.601026
0.563038
0.473794
0.283276
0.0509096
-0.238853
-0.559942
-0.709849
-0.441349
-0.425579
-0.368597
-0.294187
-0.204816
-0.107716
-0.00472747
0.102991
0.215605
0.331346
0.436841
0.516912
0.546202
0.477746
0.338651
0.132062
-0.101928
-0.445791
-1.03044
-1.60104
-0.459293
-0.44338
-0.385869
-0.311503
-0.222294
-0.125577
-0.0233081
0.0832379
0.193965
0.306412
0.405661
0.477542
0.487298
0.402696
0.208938
-0.0249336
-0.227413
-0.461404
-1.01247
-2.51295
-0.478619
-0.462367
-0.404299
-0.330003
-0.240897
-0.144552
-0.0430613
0.0622089
0.170877
0.279814
0.372837
0.434829
0.423356
0.343623
0.115349
-0.122124
-0.270184
-0.307597
-0.296526
-0.680575
-0.499284
-0.482971
-0.424203
-0.349929
-0.260975
-0.165135
-0.0646127
0.0391385
0.145411
0.250253
0.337418
0.388544
0.360698
0.292749
0.0656206
-0.136351
-0.247294
-0.255662
-0.20294
-0.242936
-0.521157
-0.504732
-0.445408
-0.371417
-0.282688
-0.187476
-0.0881345
0.0138402
0.117343
0.217533
0.299513
0.340334
0.305736
0.23805
0.033095
-0.126944
-0.209527
-0.217812
-0.265542
-0.269587
-0.544197
-0.527938
-0.468035
-0.394383
-0.305947
-0.211582
-0.11367
-0.0137504
0.0866581
0.182028
0.258938
0.289953
0.257878
0.176323
0.00471081
-0.117799
-0.188321
-0.165377
-0.185831
-0.18749
-0.568111
-0.551592
-0.491717
-0.418828
-0.330721
-0.23742
-0.141171
-0.0435305
0.0534738
0.144099
0.216054
0.23618
0.216469
0.108308
-0.0307954
-0.113204
-0.152357
-0.200599
-0.174728
-0.183394
-0.592859
-0.57594
-0.516541
-0.44446
-0.356647
-0.264789
-0.170428
-0.0752921
0.017957
0.104139
0.171774
0.181325
0.173178
0.047144
-0.0679217
-0.131569
-0.109242
-0.168918
-0.149515
-0.154542
-0.617234
-0.600102
-0.542169
-0.471038
-0.383569
-0.293541
-0.201218
-0.10871
-0.0196764
0.0624824
0.127247
0.129147
0.121047
-0.00385982
-0.0946857
-0.146055
-0.133613
-0.149217
-0.154447
-0.152719
-0.641057
-0.624047
-0.568114
-0.49775
-0.410944
-0.323215
-0.233058
-0.143374
-0.0588899
0.0195562
0.0828132
0.0810143
0.0637476
-0.0465152
-0.108458
-0.140004
-0.178306
-0.14981
-0.15549
-0.149882
-0.663094
-0.646815
-0.592924
-0.523805
-0.43871
-0.353432
-0.265563
-0.178791
-0.0988915
-0.0244516
0.038375
0.037372
0.00785675
-0.0809369
-0.120985
-0.114623
-0.187228
-0.129951
-0.145047
-0.137182
-0.682901
-0.667749
-0.615959
-0.548129
-0.466125
-0.38322
-0.297901
-0.21431
-0.138692
-0.0689108
-0.00658151
-0.00293252
-0.0369142
-0.100091
-0.12905
-0.0883862
-0.134237
-0.116192
-0.122284
-0.119018
-0.698694
-0.685156
-0.636027
-0.570402
-0.492376
-0.411874
-0.329529
-0.249303
-0.177369
-0.113154
-0.0518097
-0.040766
-0.0684692
-0.101331
-0.117287
-0.0944567
-0.108188
-0.112205
-0.113444
-0.113621
-0.709808
-0.698416
-0.652673
-0.589651
-0.515559
-0.438181
-0.359231
-0.282707
-0.214103
-0.155889
-0.0961488
-0.0758436
-0.0899769
-0.096937
-0.108295
-0.118873
-0.111541
-0.115257
-0.113502
-0.11464
-0.714716
-0.705717
-0.664153
-0.604739
-0.534837
-0.461296
-0.386294
-0.313679
-0.248158
-0.195532
-0.136852
-0.109847
-0.118263
-0.0954509
-0.10765
-0.14123
-0.119301
-0.124758
-0.118022
-0.119044
-0.713582
-0.706695
-0.669531
-0.614107
-0.548595
-0.479591
-0.409119
-0.340766
-0.278774
-0.230203
-0.173134
-0.141858
-0.140403
-0.100793
-0.101567
-0.130292
-0.109212
-0.12679
-0.123826
-0.125881
-0.705427
-0.69815
-0.666052
-0.6164
-0.556378
-0.492457
-0.426848
-0.36274
-0.304212
-0.25823
-0.203651
-0.170134
-0.155411
-0.112913
-0.0560865
-0.0453437
-0.0577909
-0.0670619
-0.070717
-0.0743993
-0.684532
-0.676196
-0.652364
-0.610276
-0.556643
-0.498396
-0.438298
-0.378244
-0.322457
-0.277863
-0.226444
-0.189013
-0.171054
-0.173804
-0.186169
-0.231314
-0.24337
-0.235584
-0.224981
-0.215908
-0.641708
-0.633885
-0.625557
-0.595712
-0.550413
-0.498434
-0.443264
-0.386248
-0.331494
-0.286288
-0.236756
-0.193413
-0.239025
-0.339247
-0.54192
-0.713118
-0.726585
-0.707542
-0.645546
-0.587745
-0.601216
-0.598478
-0.59713
-0.574224
-0.537951
-0.492937
-0.442366
-0.387303
-0.330656
-0.281186
-0.232205
-0.165017
-0.187034
-0.274518
-0.391723
-0.424196
-0.368281
-0.299595
-0.258375
-0.235867
-0.57822
-0.580019
-0.569768
-0.55629
-0.527664
-0.48663
-0.437171
-0.381977
-0.320309
-0.259497
-0.202341
-0.0913631
0.0415942
0.238462
0.428168
0.615361
0.753241
0.833528
0.876671
0.914165
-0.547042
-0.546685
-0.543707
-0.542493
-0.518422
-0.480878
-0.432096
-0.374827
-0.307159
-0.230087
-0.150944
-0.0180718
0.189897
0.502792
0.803274
1.05486
1.23122
1.33368
1.38236
1.39805
-0.535129
-0.533244
-0.536217
-0.528671
-0.512008
-0.477322
-0.427199
-0.36661
-0.294849
-0.205825
-0.10809
0.0180661
0.250258
0.567965
0.876143
1.13469
1.32548
1.43665
1.48628
1.50247
-0.522293
-0.520635
-0.523862
-0.515673
-0.511115
-0.477174
-0.425789
-0.361834
-0.28602
-0.190522
-0.08463
0.020592
0.239509
0.517801
0.790513
1.02616
1.21028
1.32152
1.37108
1.38471
-0.512257
-0.512241
-0.511871
-0.511129
-0.508827
-0.475784
-0.425595
-0.361441
-0.283843
-0.18761
-0.0833329
-0.000681299
0.184339
0.420692
0.64613
0.840553
0.997326
1.09311
1.13468
1.14486
-0.506946
-0.508095
-0.506819
-0.511792
-0.506836
-0.477775
-0.428659
-0.364512
-0.287944
-0.196161
-0.0969443
-0.0314352
0.115207
0.313768
0.49469
0.645102
0.765848
0.840623
0.872258
0.879988
-0.49646
-0.497105
-0.494566
-0.497667
-0.491267
-0.47616
-0.434135
-0.370589
-0.295999
-0.21068
-0.116945
-0.0619583
0.0476425
0.21084
0.353142
0.466296
0.555688
0.61211
0.635942
0.641089
-0.491609
-0.489361
-0.484215
-0.479504
-0.474081
-0.473315
-0.436748
-0.375419
-0.303415
-0.225906
-0.137917
-0.0888697
-0.0116511
0.119643
0.230635
0.315554
0.381301
0.423453
0.439543
0.4438
-0.513174
-0.509637
-0.505573
-0.502045
-0.502407
-0.497691
-0.444676
-0.379175
-0.307224
-0.237405
-0.156143
-0.110793
-0.059244
0.0449565
0.130737
0.194222
0.242862
0.274195
0.285799
0.289953
-0.561815
-0.562577
-0.56656
-0.575087
-0.57168
-0.541082
-0.461193
-0.383388
-0.306858
-0.242734
-0.169569
-0.12691
-0.0928799
-0.0109023
0.0540387
0.101155
0.138236
0.162207
0.171573
0.174
-0.587098
-0.592519
-0.606779
-0.618609
-0.614334
-0.56117
-0.467316
-0.380734
-0.299383
-0.240057
-0.176279
-0.136815
-0.112532
-0.0484142
-0.000740551
0.0335748
0.0612213
0.0779166
0.0851562
0.0870405
-0.522357
-0.527269
-0.546053
-0.557248
-0.555562
-0.509553
-0.432445
-0.35552
-0.281781
-0.226815
-0.174793
-0.140512
-0.11973
-0.0712532
-0.0370486
-0.0123689
0.00609918
0.0165066
0.0205047
0.0209833
-0.366993
-0.374196
-0.384289
-0.392868
-0.393272
-0.37257
-0.335687
-0.292866
-0.243764
-0.201227
-0.163937
-0.137149
-0.117949
-0.083196
-0.0594711
-0.043466
-0.0327578
-0.0275042
-0.026255
-0.02692
-0.198453
-0.201735
-0.207338
-0.216097
-0.223038
-0.223428
-0.217984
-0.207039
-0.186719
-0.165059
-0.14366
-0.126098
-0.110451
-0.0876679
-0.0726952
-0.0634591
-0.0583837
-0.0569336
-0.0577434
-0.0589795
-0.0652248
-0.0669891
-0.0710537
-0.0792378
-0.0911819
-0.104361
-0.117048
-0.1264
-0.127384
-0.124867
-0.116833
-0.108554
-0.0994239
-0.0863715
-0.0782749
-0.0744605
-0.0734402
-0.0743715
-0.0761221
-0.0775436
0.0191586
0.0179601
0.0151178
0.00699143
-0.00816746
-0.0277407
-0.0476649
-0.065574
-0.0775054
-0.0871506
-0.0879364
-0.0870252
-0.0855581
-0.0791044
-0.0771632
-0.0776786
-0.0793487
-0.0817351
-0.0837542
-0.0851453
0.0600021
0.0592974
0.0572106
0.0498827
0.0347133
0.0139141
-0.00776626
-0.0279554
-0.0431842
-0.0570442
-0.0621003
-0.0655528
-0.0697607
-0.0682624
-0.0712179
-0.0748326
-0.0782484
-0.0812794
-0.0832683
-0.0845309
0.0738923
0.0733399
0.0716699
0.065621
0.0526432
0.0339906
0.013388
-0.00672699
-0.0225225
-0.0367509
-0.0427488
-0.047985
-0.0542714
-0.0573869
-0.0628388
-0.0679201
-0.0721687
-0.0754006
-0.0772293
-0.0783165
0.0728388
0.072443
0.0711487
0.0665102
0.0564445
0.0414977
0.0238894
0.00536166
-0.00996646
-0.0239428
-0.0298603
-0.0353011
-0.0418196
-0.0473189
-0.0537713
-0.0591105
-0.0633447
-0.0663947
-0.0679184
-0.068826
0.0649197
0.0646566
0.0636936
0.0602889
0.0528769
0.0416609
0.0278718
0.0122848
-0.00138088
-0.0149782
-0.0211682
-0.0261901
-0.032149
-0.0380658
-0.0444741
-0.0495327
-0.0534084
-0.0560697
-0.0572182
-0.0579524
0.0545663
0.0544164
0.0537288
0.0513321
0.0460533
0.037899
0.0276393
0.0154939
0.00460281
-0.00783505
-0.014321
-0.019066
-0.0242837
-0.0295455
-0.0353172
-0.0398439
-0.0432714
-0.0455709
-0.0464531
-0.0470393
0.0438618
0.0437914
0.0433139
0.0417094
0.0380568
0.0322758
0.0248344
0.0156638
0.00771705
-0.00262183
-0.00841741
-0.0126365
-0.0173332
-0.0219604
-0.0269624
-0.030804
-0.0336974
-0.0356177
-0.0362703
-0.0367361
0.0338515
0.0338221
0.0334985
0.0324623
0.0299961
0.0260113
0.0207261
0.0139147
0.00838247
0.000422413
-0.00391482
-0.0073211
-0.0113116
-0.0152983
-0.0196158
-0.0228519
-0.0252078
-0.0267411
-0.0272639
-0.0276492
0.0248366
0.0248413
0.0246188
0.0239894
0.0223857
0.0197476
0.0161492
0.0111861
0.00755205
0.00164894
-0.00118506
-0.00365863
-0.00678143
-0.0100037
-0.0135646
-0.0161148
-0.0179474
-0.0191307
-0.0195005
-0.0198022
0.0167537
0.0167614
0.0166229
0.0162911
0.0153073
0.0136568
0.0114149
0.00792922
0.00577935
0.0015834
1.87332e-05
-0.00147397
-0.00368032
-0.00601277
-0.00875453
-0.0106236
-0.0119061
-0.0126639
-0.0128994
-0.0131743
0.00940759
0.00940403
0.00936772
0.00928895
0.00882478
0.00796099
0.00687321
0.00463975
0.00369503
0.00088104
0.000200146
-0.000562717
-0.00183728
-0.00315794
-0.00514626
-0.00632103
-0.00707896
-0.00749378
-0.00750496
-0.00771073
0.00294553
0.0029642
0.00303742
0.00311948
0.00308913
0.00285734
0.00267712
0.00155605
0.00154333
0.000128394
0.000134601
6.94836e-05
-0.000698474
-0.00100271
-0.00237821
-0.00317368
-0.003923
-0.00443322
-0.00422124
-0.00422011
-1.07673
-0.241581
0.0282745
0.302645
0.48156
0.634312
0.755752
0.879889
1.01828
1.10351
-0.101423
0.302887
0.317083
0.503845
0.62473
0.733163
0.826039
0.909147
0.935849
0.894658
0.270895
0.482898
0.51574
0.651127
0.73477
0.812706
0.87705
0.925449
0.927153
0.941724
0.497227
0.63816
0.672433
0.772283
0.828567
0.88471
0.928817
0.960783
0.969664
0.993518
0.672667
0.772444
0.802081
0.868088
0.912361
0.952393
0.984093
1.0082
1.01785
1.04956
0.814218
0.882075
0.912182
0.954265
0.989966
1.01966
1.04368
1.0644
1.07839
1.10679
0.93226
0.982294
1.00765
1.03525
1.06258
1.08615
1.10596
1.1252
1.14
1.16659
1.03534
1.07208
1.09299
1.11345
1.13405
1.15332
1.17067
1.18877
1.20363
1.22732
1.12892
1.15789
1.17413
1.18931
1.20532
1.22133
1.23686
1.25375
1.26738
1.2897
1.21696
1.23735
1.25215
1.26528
1.27882
1.29256
1.30606
1.32064
1.33219
1.35182
1.30229
1.31805
1.33185
1.34365
1.35556
1.36719
1.37832
1.38999
1.39767
1.41446
1.38748
1.40002
1.41373
1.42547
1.4361
1.44589
1.45472
1.46297
1.46653
1.47776
1.47622
1.48705
1.50052
1.51004
1.5176
1.52489
1.53207
1.53854
1.53965
1.54699
1.57462
1.57923
1.58742
1.59215
1.59554
1.60002
1.60601
1.61366
1.61757
1.62745
1.6879
1.67479
1.6675
1.66179
1.65907
1.6604
1.66671
1.67908
1.69391
1.72358
1.80987
1.75382
1.7228
1.70561
1.69739
1.69731
1.70618
1.72581
1.75758
1.82686
)
;

boundaryField
{
    wall-4
    {
        type            zeroGradient;
    }
    pressure-outlet-7
    {
        type            fixedValue;
        value           uniform 0;
    }
    velocity-inlet-6
    {
        type            zeroGradient;
    }
    velocity-inlet-5
    {
        type            zeroGradient;
    }
    frontAndBackPlanes
    {
        type            empty;
    }
}


// ************************************************************************* //
