/*--------------------------------*- C++ -*----------------------------------*\
  =========                 |
  \\      /  F ield         | OpenFOAM: The Open Source CFD Toolbox
   \\    /   O peration     | Website:  https://openfoam.org
    \\  /    A nd           | Version:  10
     \\/     M anipulation  |
\*---------------------------------------------------------------------------*/
FoamFile
{
    format      ascii;
    class       surfaceScalarField;
    location    "68";
    object      phi;
}
// * * * * * * * * * * * * * * * * * * * * * * * * * * * * * * * * * * * * * //

dimensions      [0 3 -1 0 0 0 0];

internalField   nonuniform List<scalar> 
4262
(
0.107135
0.470853
0.0955715
0.705149
0.0693882
0.858486
0.0473763
1.02078
0.0309955
1.2149
0.0197794
1.44944
0.0123601
1.73328
0.00715413
2.07624
0.00321962
2.48918
-0.000568079
2.98608
-0.00428138
2.98601
-0.0080595
2.48902
-0.0130501
2.07603
-0.0201847
1.733
-0.0311072
1.44914
-0.0471583
1.21457
-0.0689059
1.02051
-0.0951807
0.858578
-0.10706
0.705465
0.470928
0.112857
0.357996
0.13525
0.682756
0.120343
0.873393
0.0977903
1.04333
0.0745371
1.23815
0.0528051
1.47117
0.0344131
1.75167
0.0201947
2.09046
0.008903
2.50047
-0.000998852
2.99598
-0.0110984
2.99611
-0.0223753
2.5003
-0.0364967
2.09015
-0.054809
1.75131
-0.076658
1.47099
-0.100399
1.23831
-0.123562
1.04367
-0.137051
0.872067
-0.113578
0.681993
0.35735
0.0920372
0.265959
0.124953
0.64984
0.121068
0.877278
0.104765
1.05963
0.0860994
1.25682
0.0669569
1.49031
0.0479611
1.77067
0.029855
2.10857
0.0132025
2.51712
-0.00286862
3.01205
-0.0185562
3.01179
-0.0343963
2.51614
-0.0518538
2.10761
-0.0702585
1.76972
-0.0885489
1.48928
-0.105719
1.25548
-0.119818
1.05777
-0.125238
0.877487
-0.0923628
0.649118
0.264987
0.063971
0.201988
0.104775
0.609036
0.106538
0.875515
0.0951474
1.07102
0.0811984
1.27077
0.0664318
1.50508
0.0503089
1.78679
0.033163
2.12571
0.0155325
2.53475
-0.00311799
3.0307
-0.0215906
3.03027
-0.0390177
2.53357
-0.0555196
2.12411
-0.07075
1.78495
-0.0845713
1.5031
-0.0982855
1.26919
-0.110044
1.06953
-0.107038
0.87448
-0.0649012
0.606981
0.200086
0.0374619
0.164526
0.0806647
0.565833
0.0908999
0.86528
0.0836578
1.07826
0.0710132
1.28341
0.0591325
1.51696
0.0460557
1.79987
0.0309981
2.14077
0.0139014
2.55185
-0.00530848
3.04991
-0.0240075
3.04896
-0.0398414
2.5494
-0.0536514
2.13792
-0.0657352
1.79703
-0.0769779
1.51435
-0.0889073
1.28112
-0.0952299
1.07585
-0.0833574
0.862608
-0.0384545
0.562079
0.161631
0.0194387
0.145088
0.0571294
0.528143
0.0724941
0.849916
0.0703808
1.08038
0.0615725
1.29222
0.0506897
1.52784
0.0395381
1.81102
0.026959
2.15335
0.0119912
2.56682
-0.00569828
3.0676
-0.0231203
3.06639
-0.037574
2.56385
-0.0491658
2.14951
-0.0590582
1.80692
-0.0688526
1.52414
-0.0764635
1.28873
-0.0772643
1.07665
-0.0601007
0.845444
-0.0204143
0.522392
0.141217
0.0106004
0.134487
0.0422729
0.49647
0.0583298
0.833859
0.0585563
1.08015
0.0523538
1.29842
0.0429256
1.53727
0.0324553
1.82149
0.0209236
2.16488
0.00741154
2.58033
-0.00857607
3.08359
-0.0238527
3.08166
-0.0355437
2.57554
-0.0452126
2.15918
-0.0541159
1.81583
-0.0620316
1.53206
-0.0665533
1.29326
-0.0645297
1.07463
-0.0460408
0.826955
-0.0117415
0.488093
0.129475
0.00653884
0.127948
0.0328416
0.470167
0.0490355
0.817665
0.0504859
1.0787
0.045356
1.30355
0.0369423
1.54568
0.0272811
1.83115
0.0164928
2.17567
0.00457154
2.59225
-0.00935866
3.09752
-0.0230234
3.09533
-0.034023
2.58654
-0.0432319
2.16839
-0.0508119
1.82341
-0.0572666
1.53851
-0.0604055
1.29639
-0.0567004
1.07093
-0.0374432
0.807698
-0.00793842
0.458588
0.121537
0.00467715
0.123271
0.0264354
0.448409
0.0421648
0.801935
0.0442073
1.07666
0.0394722
1.30829
0.0317034
1.55345
0.0224376
1.84042
0.0116849
2.18642
-0.000201496
2.60414
-0.0133336
3.11065
-0.0250412
3.10704
-0.034446
2.59595
-0.0425831
2.17652
-0.0495064
1.83033
-0.0549171
1.54392
-0.0570965
1.29857
-0.0519626
1.06579
-0.0321675
0.787903
-0.00641215
0.432833
0.115125
0.00370163
0.11957
0.0215323
0.430578
0.0365508
0.786917
0.0392252
1.07398
0.0348385
1.31267
0.0274602
1.56083
0.0186344
1.84925
0.0085756
2.19648
-0.00267083
2.61538
-0.0149167
3.1229
-0.026615
3.11873
-0.036255
2.60559
-0.0436917
2.18396
-0.0495037
1.83614
-0.054055
1.54847
-0.0551791
1.2997
-0.0486864
1.0593
-0.0285408
0.767757
-0.00583776
0.41013
0.109287
0.00300063
0.116569
0.0173832
0.416196
0.0311909
0.773109
0.0340214
1.07115
0.0297248
1.31697
0.0224192
1.56814
0.013666
1.858
0.00346428
2.20668
-0.00805928
2.62691
-0.0203253
3.13516
-0.0309533
3.12936
-0.0388032
2.61344
-0.0452589
2.19042
-0.0505058
1.84139
-0.0542104
1.55218
-0.0541994
1.29969
-0.0462251
1.05133
-0.0258925
0.747425
-0.00560109
0.389838
0.103686
0.00232103
0.114248
0.0136472
0.40487
0.0260843
0.760672
0.0290953
1.06814
0.0250639
1.321
0.0179928
1.57521
0.00951466
1.86648
-0.000139332
2.21634
-0.0110262
2.63779
-0.023118
3.14726
-0.0340213
3.14026
-0.042311
2.62173
-0.0480417
2.19615
-0.0521285
1.84547
-0.0546934
1.55474
-0.0539631
1.29896
-0.0445478
1.04191
-0.0240362
0.726913
-0.00547864
0.371281
0.0982071
0.00163555
0.112612
0.0103257
0.39618
0.0209578
0.75004
0.0234049
1.06569
0.0191004
1.32531
0.0118022
1.5825
0.00295311
1.87533
-0.0072657
2.22656
-0.0185817
2.64911
-0.0302346
3.15891
-0.0397851
3.14982
-0.0462075
2.62815
-0.0509406
2.20088
-0.0546052
1.84914
-0.0563088
1.55645
-0.0545731
1.29722
-0.0437901
1.03113
-0.0229095
0.706033
-0.00544162
0.353813
0.0927655
0.000757922
0.111854
0.00685755
0.39008
0.0157812
0.741116
0.0178004
1.06368
0.0132847
1.32982
0.00583097
1.58996
-0.00295867
1.88412
-0.012624
2.23622
-0.0232366
2.65972
-0.0351551
3.17083
-0.0452239
3.15988
-0.0516752
2.6346
-0.0554235
2.20463
-0.0579732
1.85169
-0.0586338
1.55711
-0.0558403
1.29443
-0.0436146
1.0189
-0.0222625
0.684681
-0.00542698
0.336977
0.0873385
0.000113925
0.11174
0.00404096
0.386153
0.0107024
0.734455
0.0116659
1.06271
0.00663747
1.33485
-0.00131306
1.59791
-0.0109717
1.89377
-0.0219866
2.24724
-0.0339679
2.6717
-0.0452775
3.18214
-0.0533156
3.16792
-0.0580973
2.63938
-0.0611547
2.20769
-0.0630948
1.85363
-0.0627752
1.55679
-0.0583565
1.29001
-0.0443565
1.0049
-0.0221913
0.662515
-0.00551696
0.320303
0.0818216
-0.000888855
0.112629
0.00031584
0.384948
0.0047607
0.73001
0.00460978
1.06286
-0.00117045
1.34063
-0.00995817
1.6067
-0.0200991
1.90391
-0.0307758
2.25791
-0.04155
2.68248
-0.0525085
3.1931
-0.0614259
3.17684
-0.0661399
2.6441
-0.0679929
2.20954
-0.0688742
1.85451
-0.067681
1.55559
-0.0616048
1.28393
-0.0457488
0.989045
-0.0225445
0.639311
-0.00566651
0.303425
0.076155
-0.00182018
0.11445
-0.00292669
0.386055
-0.00136796
0.728451
-0.00309525
1.06459
-0.00973013
1.34726
-0.019117
1.61608
-0.0300675
1.91487
-0.0423738
2.27022
-0.0555505
2.69565
-0.0673667
3.20491
-0.0739622
3.18344
-0.0768715
2.64701
-0.0783258
2.21099
-0.0778585
1.85404
-0.0748267
1.55256
-0.0667115
1.27582
-0.0483992
0.970733
-0.0235845
0.614496
-0.00599098
0.285831
0.0701641
-0.00313493
0.117584
-0.00661218
0.389532
-0.00855948
0.730399
-0.012239
1.06827
-0.0201363
1.35516
-0.0309885
1.62694
-0.0432917
1.92717
-0.0561001
2.28303
-0.0682069
2.70776
-0.0784421
3.21515
-0.0854326
3.19043
-0.0883998
2.64997
-0.0880126
2.21061
-0.0867804
1.85281
-0.0830045
1.54879
-0.0726576
1.26547
-0.0516747
0.94975
-0.024971
0.587793
-0.00635365
0.267214
0.0638104
-0.00448567
0.12207
-0.010909
0.395955
-0.0161881
0.735678
-0.022729
1.07481
-0.032007
1.36444
-0.0440277
1.63896
-0.0573537
1.94049
-0.0716349
2.29731
-0.0861032
2.72223
-0.0988855
3.22793
-0.104688
3.19623
-0.105366
2.65065
-0.104086
2.20933
-0.100496
1.84922
-0.0941468
1.54244
-0.0810655
1.25239
-0.0565715
0.925256
-0.0270682
0.558289
-0.00687403
0.24702
0.0569364
-0.00587048
0.127941
-0.0158132
0.405898
-0.0251542
0.745019
-0.0345554
1.08421
-0.0460596
1.37594
-0.0603447
1.65324
-0.075933
1.95608
-0.0919387
2.31331
-0.10663
2.73692
-0.116795
3.2381
-0.120898
3.20033
-0.121261
2.65102
-0.118501
2.20657
-0.114389
1.84511
-0.10691
1.53496
-0.0903705
1.23585
-0.0618806
0.896766
-0.0293221
0.525731
-0.00736624
0.225064
0.0495701
-0.00825867
0.136199
-0.0229302
0.42057
-0.0378939
0.759982
-0.0507121
1.09703
-0.0639332
1.38917
-0.0799688
1.66928
-0.0972732
1.97339
-0.114811
2.33085
-0.130726
2.75284
-0.14316
3.25053
-0.148037
3.20521
-0.145798
2.64878
-0.141088
2.20186
-0.133969
1.83799
-0.122803
1.52379
-0.102316
1.21536
-0.0688561
0.863306
-0.0320494
0.488924
-0.00789674
0.200911
0.0416734
-0.0106617
0.146861
-0.029851
0.439759
-0.0504803
0.780612
-0.068462
1.11501
-0.0855969
1.4063
-0.10481
1.68849
-0.12508
1.99366
-0.145014
2.35079
-0.162113
2.76993
-0.172551
3.26097
-0.173083
3.20574
-0.16911
2.6448
-0.162795
2.19554
-0.154374
1.82957
-0.141107
1.51052
-0.115456
1.18971
-0.0758606
0.823711
-0.0345668
0.44763
-0.00829351
0.174638
0.0333799
-0.0153933
0.162254
-0.0423269
0.466693
-0.0700121
0.808297
-0.0927294
1.13773
-0.113306
1.42688
-0.1363
1.71148
-0.159304
2.01666
-0.180441
2.37192
-0.196694
2.78619
-0.205462
3.26973
-0.205861
3.20614
-0.200371
2.63931
-0.191746
2.18692
-0.180469
1.81829
-0.162146
1.4922
-0.130615
1.15818
-0.0840402
0.777136
-0.0370525
0.400643
-0.00856918
0.146155
0.0248107
-0.0196311
0.181885
-0.0555241
0.502585
-0.0931633
0.845936
-0.123951
1.16852
-0.150699
1.45362
-0.177958
1.73874
-0.203496
2.0422
-0.225438
2.39386
-0.241391
2.80214
-0.248358
3.2767
-0.244024
3.2018
-0.233551
2.62884
-0.221404
2.17477
-0.207176
1.80406
-0.185462
1.47049
-0.146215
1.11893
-0.090697
0.721619
-0.0383334
0.348279
-0.00835785
0.116179
0.0164529
-0.0328632
0.214749
-0.0821958
0.551918
-0.130235
0.893976
-0.167561
1.20584
-0.199699
1.48576
-0.231292
1.77034
-0.257898
2.06881
-0.278825
2.41479
-0.291341
2.81466
-0.292277
3.27764
-0.282959
3.19249
-0.270796
2.61668
-0.257772
2.16175
-0.240477
1.78677
-0.211053
1.44106
-0.162618
1.0705
-0.097894
0.656894
-0.0394235
0.289809
-0.00806308
0.0848187
0.00838979
-0.0472383
0.261987
-0.12129
0.62597
-0.185337
0.958022
-0.231172
1.25168
-0.26947
1.52406
-0.301897
1.80276
-0.326364
2.09327
-0.343439
2.43187
-0.351109
2.82233
-0.347139
3.27367
-0.333544
3.17889
-0.315594
2.59873
-0.295721
2.14188
-0.272476
1.76352
-0.236588
1.40518
-0.176539
1.01045
-0.0996954
0.58005
-0.0376941
0.227807
-0.00773126
0.0548559
0.000658527
-0.0343427
0.29633
-0.0984918
0.690119
-0.157389
1.01692
-0.205814
1.3001
-0.250088
1.56834
-0.289828
1.8425
-0.327254
2.1307
-0.361512
2.46612
-0.388889
2.8497
-0.405901
3.29068
-0.407039
3.18003
-0.399154
2.59084
-0.386709
2.12943
-0.361092
1.7379
-0.306298
1.35038
-0.21672
0.92087
-0.113234
0.476564
-0.0415416
0.156115
-0.00904855
0.0223628
-0.00839002
-0.012473
0.308803
-0.0476226
0.725269
-0.0901516
1.05945
-0.13032
1.34027
-0.17024
1.60826
-0.206309
1.87857
-0.240251
2.16464
-0.270212
2.49608
-0.292645
2.87214
-0.301901
3.29994
-0.296775
3.1749
-0.284729
2.5788
-0.26407
2.10877
-0.232283
1.70612
-0.185014
1.30311
-0.119144
0.855
-0.054606
0.412026
-0.0205555
0.122064
-0.00482224
0.00662955
-0.0132123
-0.000198295
0.309001
-0.0244633
0.749534
-0.0542526
1.08924
-0.0853081
1.37132
-0.117951
1.6409
-0.149458
1.91008
-0.178897
2.19408
-0.203909
2.5211
-0.220798
2.88903
-0.225868
3.30501
-0.219012
3.16805
-0.200713
2.5605
-0.177066
2.08512
-0.148422
1.67747
-0.106596
1.26129
-0.0568762
0.805281
-0.021848
0.376998
-0.00922341
0.10944
-0.00279683
0.000202971
-0.0160091
0.000970741
0.30803
-0.0134099
0.763914
-0.034607
1.11044
-0.0588882
1.39561
-0.0850038
1.66701
-0.111812
1.93689
-0.137065
2.21933
-0.158098
2.54213
-0.171655
2.90258
-0.172886
3.30624
-0.159
3.15416
-0.138383
2.53988
-0.1133
2.06004
-0.0799587
1.64413
-0.045764
1.22709
-0.0169889
0.776506
-0.00284321
0.362852
-0.00141508
0.108012
-0.00117641
-3.5701e-05
-0.0171855
0.00491817
0.303112
-0.00329933
0.772132
-0.0218005
1.12894
-0.04351
1.41732
-0.0660384
1.68954
-0.0881746
1.95902
-0.109108
2.24027
-0.126549
2.55957
-0.136725
2.91276
-0.134977
3.30449
-0.120076
3.13926
-0.0965522
2.51636
-0.0684315
2.03192
-0.0421992
1.6179
-0.0128995
1.19779
0.00943628
0.75417
0.0118179
0.360471
0.00565627
0.114173
0.00117232
0.00444825
-0.0160132
0.00517952
0.297933
-0.00077613
0.778087
-0.016232
1.14439
-0.0339979
1.43508
-0.0529968
1.70854
-0.072555
1.97858
-0.0912891
2.259
-0.106601
2.57488
-0.114873
2.92103
-0.111593
3.30121
-0.0943755
3.12204
-0.0703982
2.49238
-0.045554
2.00708
-0.0161368
1.58848
0.00728189
1.17437
0.0188079
0.742644
0.0176548
0.361624
0.00908153
0.122747
0.00222607
0.0113037
-0.0137871
0.00501666
0.292916
0.00146795
0.781636
-0.0116452
1.15751
-0.0286448
1.45208
-0.0464153
1.72631
-0.0638219
1.99599
-0.0800532
2.27523
-0.0931733
2.588
-0.10001
2.92787
-0.0960673
3.29727
-0.079045
3.10502
-0.0549917
2.46833
-0.0280721
1.98016
-0.00628973
1.5667
0.0132446
1.15484
0.0244046
0.731484
0.0200257
0.366003
0.010478
0.132294
0.00279406
0.0189877
-0.0109931
0.00273969
0.290176
-0.000510179
0.784886
-0.0117264
1.16872
-0.0259959
1.46635
-0.0416815
1.742
-0.0577674
2.01207
-0.0731571
2.29062
-0.0858523
2.6007
-0.0927445
2.93476
-0.0889372
3.29346
-0.0718065
3.08789
-0.0504004
2.44692
-0.0278377
1.95759
-0.00165974
1.54052
0.0167038
1.13648
0.0231789
0.725009
0.0196359
0.369546
0.0105113
0.141419
0.00294858
0.0265503
-0.00804448
0.00174812
0.288428
-0.000605101
0.787239
-0.0112183
1.17933
-0.0248948
1.48003
-0.0401384
1.75724
-0.0552646
2.0272
-0.0696519
2.30501
-0.0818408
2.61289
-0.0888429
2.94176
-0.0857458
3.29036
-0.0700527
3.07219
-0.0486528
2.42552
-0.0247301
1.93367
-0.00586081
1.52165
0.0111253
1.11949
0.0205857
0.715549
0.0169812
0.37315
0.0093682
0.149032
0.00271952
0.033199
-0.00532495
-0.000490997
0.288919
-0.00446994
0.791218
-0.0134769
1.18834
-0.0252797
1.49183
-0.0390576
1.77102
-0.0535208
2.04166
-0.0679145
2.3194
-0.080502
2.62548
-0.0880361
2.9493
-0.0857499
3.28808
-0.0716703
3.05811
-0.0529648
2.40681
-0.0334318
1.91414
-0.00991855
1.49814
0.00709807
1.10247
0.0136308
0.709016
0.0129106
0.373871
0.00728858
0.154654
0.00224291
0.0382447
-0.00308204
-0.000941797
0.289861
-0.00510557
0.795382
-0.0140992
1.19734
-0.0258066
1.50354
-0.0394296
1.78464
-0.0535151
2.05575
-0.0675
2.33339
-0.0800087
2.63798
-0.0884618
2.95775
-0.0884947
3.28811
-0.076677
3.0463
-0.0569659
2.3871
-0.0346811
1.89185
-0.0179054
1.48136
-0.00218407
1.08675
0.00821039
0.698621
0.00831244
0.373768
0.00519839
0.157768
0.00173036
0.0417127
-0.00135168
-0.00256784
0.292429
-0.0079719
0.800786
-0.016439
1.2058
-0.027111
1.51421
-0.0396942
1.79723
-0.0532539
2.06931
-0.0673387
2.34747
-0.0806769
2.65132
-0.0905765
2.96765
-0.0920961
3.28963
-0.081376
3.03558
-0.0646783
2.37041
-0.0465708
1.87375
-0.0242719
1.45907
-0.00780303
1.07028
0.000209861
0.690608
0.00403202
0.369946
0.00299516
0.158805
0.00118229
0.0435256
-0.000169393
-0.00353974
0.295968
-0.00841924
0.805665
-0.0169321
1.21432
-0.0277261
1.525
-0.0402631
1.80976
-0.0536246
2.08267
-0.0676666
2.36151
-0.0813324
2.66499
-0.0923571
2.97867
-0.0965578
3.29383
-0.0891097
3.02813
-0.0722995
2.3536
-0.0494824
1.85093
-0.0322981
1.44188
-0.0160886
1.05407
-0.00359322
0.678113
9.20089e-05
0.366261
0.00130203
0.157595
0.000699786
0.0441278
0.000530392
-0.00412785
0.300096
-0.0103118
0.811849
-0.018675
1.22268
-0.0287421
1.53507
-0.0405545
1.82157
-0.0535476
2.09566
-0.0677288
2.37569
-0.0822061
2.67947
-0.0948668
2.99133
-0.101401
3.30037
-0.0959328
3.02266
-0.0807121
2.33838
-0.0620667
1.83228
-0.0377334
1.41755
-0.0191529
1.03549
-0.00841778
0.667378
-0.00217339
0.360017
-8.52056e-05
0.155507
0.000343378
0.0436992
0.000873769
-0.00409501
0.304191
-0.0101852
0.817939
-0.0186377
1.23113
-0.0288122
1.54525
-0.0406398
1.8334
-0.053555
2.10858
-0.0678212
2.38996
-0.0826801
2.69432
-0.0965021
3.00516
-0.105734
3.3096
-0.10402
3.02095
-0.0895873
2.32394
-0.0654275
1.80812
-0.0438917
1.39601
-0.0234472
1.01505
-0.00813659
0.652067
-0.00237402
0.354254
-0.00035873
0.153491
-0.000429093
0.0437696
0.000444673
-0.0042782
0.308469
-0.0112574
0.824919
-0.0195949
1.23947
-0.0292202
1.55487
-0.0405173
1.8447
-0.0531535
2.12121
-0.0674667
2.40427
-0.0829376
2.70979
-0.0982522
3.02047
-0.109926
3.32127
-0.110186
3.02121
-0.0977949
2.31155
-0.0781356
1.78846
-0.047965
1.36584
-0.0222658
0.989349
-0.00648641
0.636288
0.00273505
0.345033
0.00429553
0.151931
0.0023384
0.0457267
0.00278307
-0.00419494
0.312664
-0.010804
0.831528
-0.0190374
1.2477
-0.0287158
1.56455
-0.0399846
1.85597
-0.0525237
2.13375
-0.0668849
2.41863
-0.0826903
2.7256
-0.0990224
3.0368
-0.113113
3.33536
-0.117721
3.02581
-0.107362
2.30119
-0.0820996
1.7632
-0.0533798
1.33712
-0.0217693
0.957739
0.00215134
0.612367
0.0119071
0.335277
0.00740015
0.156438
-0.00140873
0.0545356
0.00137434
-0.00433735
0.317002
-0.0113959
0.838586
-0.0194129
1.25572
-0.0285773
1.57371
-0.0393475
1.86674
-0.0515971
2.146
-0.0658895
2.43293
-0.0821048
2.74182
-0.0995938
3.05429
-0.115726
3.35149
-0.122625
3.03271
-0.114921
2.29349
-0.0956781
1.74396
-0.0585484
1.29999
-0.0168906
0.916081
0.0171433
0.578333
0.0413133
0.311107
0.0471727
0.150578
0.0289337
0.0727746
0.030308
-0.00419206
0.321194
-0.0107522
0.845146
-0.0185384
1.2635
-0.027638
1.58281
-0.038264
1.87736
-0.0503349
2.15807
-0.0645919
2.44718
-0.0810254
2.75825
-0.0992343
3.0725
-0.117396
3.36966
-0.128468
3.04379
-0.124899
2.28992
-0.10148
1.72054
-0.0663796
1.26489
-0.0170622
0.866764
0.0304341
0.530837
0.0654577
0.276083
0.054755
0.161281
0.0237991
0.103731
0.0541071
-0.0041553
0.325349
-0.010988
0.851979
-0.0185204
1.27104
-0.0270782
1.59137
-0.0372275
1.88751
-0.0489854
2.16983
-0.0630783
2.46128
-0.0796977
2.77487
-0.0986957
3.0915
-0.118511
3.38947
-0.130991
3.05627
-0.131148
2.29008
-0.117003
1.70639
-0.0773879
1.22528
-0.0215419
0.810918
0.0494799
0.459815
0.144691
0.180872
0.207323
0.098649
0.18641
0.124644
0.240518
-0.00399395
0.329343
-0.0104011
0.858386
-0.0178713
1.27851
-0.0266304
1.60013
-0.0371087
1.89799
-0.0493599
2.18208
-0.0643984
2.47632
-0.0825865
2.79306
-0.104105
3.11302
-0.128284
3.41365
-0.147585
3.07557
-0.15432
2.29681
-0.137755
1.68983
-0.10151
1.18903
-0.0353608
0.744769
0.0239899
0.400465
-0.0441067
0.248968
-0.352766
0.407308
-0.945574
0.717452
0.902344
-1.6074
-0.00389638
0.333239
-0.0105332
0.865023
-0.0178586
1.28583
-0.0262948
1.60857
-0.0365541
1.90825
-0.0488994
2.19443
-0.0643465
2.49176
-0.0835045
2.81221
-0.107006
3.13652
-0.134695
3.44134
-0.15812
3.09899
-0.169235
2.30793
-0.171138
1.69173
-0.141092
1.15899
-0.103788
0.707464
-0.206436
0.503113
-0.693961
0.736494
-1.4548
1.16815
-2.05929
1.32194
1.21556
-2.37251
-0.00365997
0.336899
-0.00973998
0.871103
-0.0168193
1.29291
-0.0252583
1.61701
-0.0355483
1.91854
-0.0480247
2.2069
-0.0639256
2.50766
-0.084029
2.83232
-0.109361
3.16185
-0.140877
3.47286
-0.171831
3.12994
-0.192893
2.32899
-0.194728
1.69356
-0.173179
1.13744
-0.25873
0.793015
-0.752791
0.997174
-1.55994
1.54364
-2.11719
1.7254
-2.35446
1.55921
1.32904
-2.46794
-0.00355747
0.340457
-0.00965336
0.877199
-0.0165194
1.29978
-0.0245985
1.62508
-0.0346227
1.92857
-0.0471409
2.21942
-0.0633489
2.52387
-0.0842867
2.85326
-0.111511
3.18907
-0.146715
3.50806
-0.182915
3.16614
-0.210399
2.35647
-0.231726
1.71489
-0.303665
1.20938
-0.673702
1.16305
-1.44684
1.77032
-2.03206
2.12886
-2.27041
1.96374
-2.3828
1.6716
1.39236
-2.44612
-0.00324167
0.343699
-0.00870191
0.882659
-0.0152179
1.30629
-0.023211
1.63308
-0.0332462
1.9386
-0.0458067
2.23198
-0.0623303
2.5404
-0.0840761
2.875
-0.113028
3.21803
-0.152178
3.54721
-0.196932
3.2109
-0.238132
2.39767
-0.273554
1.75031
-0.45548
1.3913
-1.0973
1.80487
-1.79446
2.46747
-2.11065
2.44506
-2.25764
2.11073
-2.33938
1.75334
1.45848
-2.4055
-0.00324911
0.346948
-0.00894208
0.888352
-0.0154957
1.31285
-0.023384
1.64097
-0.0335318
1.94875
-0.0464099
2.24486
-0.0634547
2.55744
-0.0861603
2.89771
-0.117028
3.24889
-0.159842
3.59002
-0.210361
3.26142
-0.253929
2.44124
-0.339157
1.83554
-0.737809
1.78995
-1.49381
2.56087
-1.96316
2.93682
-2.16275
2.64465
-2.26858
2.21657
-2.34581
1.83057
1.52162
-2.40895
-0.00330711
0.350255
-0.00889154
0.893937
-0.015734
1.31969
-0.0242333
1.64946
-0.0350341
1.95955
-0.0485752
2.2584
-0.0665348
2.5754
-0.090576
2.92175
-0.123529
3.28185
-0.170627
3.63712
-0.227469
3.31826
-0.288114
2.50189
-0.47392
2.02135
-1.04529
2.36133
-1.68052
3.1961
-1.95246
3.20875
-2.09874
2.79093
-2.21256
2.33039
-2.30625
1.92426
1.58316
-2.36778
-0.00344895
0.353704
-0.00980967
0.900297
-0.0171588
1.32704
-0.0259192
1.65823
-0.0370721
1.9707
-0.0512808
2.27261
-0.0701307
2.59425
-0.0954603
2.94708
-0.130528
3.31692
-0.181307
3.6879
-0.242994
3.37995
-0.326579
2.58547
-0.609498
2.30427
-1.26358
3.01541
-1.75037
3.68289
-1.95744
3.41582
-2.09662
2.93011
-2.22053
2.45429
-2.33066
2.0344
1.64182
-2.38933
-0.00338388
0.357088
-0.00948726
0.906401
-0.0171859
1.33474
-0.0267554
1.66779
-0.0387041
1.98265
-0.0536314
2.28754
-0.0734563
2.61407
-0.100203
2.97382
-0.137361
3.35407
-0.191896
3.74244
-0.259723
3.44777
-0.383713
2.70946
-0.771732
2.69229
-1.40981
3.65349
-1.75984
4.03292
-1.93228
3.58826
-2.03383
3.03166
-2.12246
2.54292
-2.1891
2.10103
1.63443
-2.18171
-0.00340996
0.360498
-0.0104911
0.913482
-0.0188219
1.34307
-0.0286203
1.67759
-0.0409275
1.99496
-0.0565897
2.3032
-0.0773602
2.63484
-0.105398
3.00186
-0.144583
3.39326
-0.201187
3.79904
-0.27856
3.52515
-0.447918
2.87882
-0.903097
3.14747
-1.45997
4.21036
-1.72055
4.2935
-1.87177
3.73948
-1.96535
3.12524
-1.96606
2.54363
-1.89612
2.0311
1.59679
-1.85849
-0.00318718
0.363685
-0.00969745
0.919992
-0.0182784
1.35165
-0.0289695
1.68828
-0.0420784
2.00807
-0.0582375
2.31936
-0.0795098
2.65612
-0.108137
3.03049
-0.147922
3.43304
-0.204717
3.85584
-0.290429
3.61086
-0.494573
3.08297
-0.986618
3.63951
-1.42675
4.65049
-1.591
4.45776
-1.65759
3.80607
-1.66193
3.12958
-1.51433
2.39603
-1.01503
1.5318
0.581763
-0.00280032
0.366485
-0.0106045
0.927796
-0.0199747
1.36102
-0.0309155
1.69923
-0.0446364
2.02179
-0.0621184
2.33684
-0.0852745
2.67927
-0.116532
3.06175
-0.160298
3.47681
-0.223412
3.91895
-0.325743
3.71319
-0.579958
3.33718
-1.12128
4.18083
-1.47828
5.0075
-1.57728
4.55675
-1.57538
3.80417
-1.47189
3.02609
-1.23314
2.15728
-0.63021
0.928868
-0.0484475
-0.00251127
0.368996
-0.00897388
0.934259
-0.0184141
1.37046
-0.0306616
1.71147
-0.0458358
2.03696
-0.0646651
2.35567
-0.0897054
2.70431
-0.123814
3.09586
-0.172058
3.52505
-0.242106
3.989
-0.365132
3.83621
-0.679429
3.65148
-1.23965
4.74105
-1.49886
5.26672
-1.55763
4.61552
-1.5351
3.78164
-1.33331
2.82429
-0.780935
1.60491
-0.108395
0.256328
-0.156843
-0.00152385
0.37052
-0.00950901
0.942244
-0.0197937
1.38074
-0.0320609
1.72374
-0.047581
2.05248
-0.0676834
2.37577
-0.0946932
2.73132
-0.131551
3.13271
-0.183459
3.57696
-0.260787
4.06633
-0.409158
3.98459
-0.781674
4.02399
-1.3169
5.27627
-1.49275
5.44257
-1.52353
4.6463
-1.43546
3.69357
-1.09942
2.48825
-0.312456
0.817948
0.0247771
-0.0809047
-0.132066
-0.000993822
0.371514
-0.00642222
0.947673
-0.0162651
1.39059
-0.0299832
1.73746
-0.0470846
2.06958
-0.0684976
2.39719
-0.0972702
2.7601
-0.13676
3.1722
-0.19206
3.63226
-0.278745
4.15301
-0.454054
4.15989
-0.891742
4.46168
-1.36217
5.7467
-1.47759
5.55799
-1.4804
4.64911
-1.25649
3.46966
-0.685168
1.91693
-0.0629696
0.19575
0.0300542
-0.173928
-0.102011
9.39157e-05
0.37142
-0.00605372
0.95382
-0.0165326
1.40107
-0.0299359
1.75086
-0.0467552
2.0864
-0.0692565
2.41969
-0.0998496
2.79069
-0.141614
3.21397
-0.199709
3.69035
-0.294728
4.24803
-0.495583
4.36075
-0.983415
4.94951
-1.35649
6.11977
-1.42148
5.62297
-1.37516
4.60279
-1.08735
3.18185
-0.322773
1.15236
0.00401274
-0.131036
0.0144561
-0.184372
-0.0875553
0.00323231
0.368188
0.000742592
0.95631
-0.00954956
1.41136
-0.0245184
1.76583
-0.0428283
2.10471
-0.0665847
2.44344
-0.0984446
2.82255
-0.142112
3.25764
-0.203531
3.75177
-0.307689
4.35219
-0.535051
4.58811
-1.04648
5.46094
-1.32164
6.39493
-1.36101
5.66234
-1.22197
4.46375
-0.770296
2.73018
-0.0691373
0.451201
0.0438958
-0.244069
0.023897
-0.164373
-0.0636584
0.00426107
0.363927
0.00216873
0.958402
-0.00780184
1.42133
-0.0213038
1.77933
-0.0383315
2.12174
-0.0627004
2.46781
-0.0957816
2.85563
-0.141043
3.3029
-0.204494
3.81523
-0.315458
4.46315
-0.572384
4.84504
-1.06702
5.95557
-1.2563
6.58421
-1.26676
5.6728
-1.04768
4.24467
-0.459735
2.14224
-0.0183138
0.00977951
-0.00665808
-0.255725
0.00474069
-0.175772
-0.0589177
0.0087109
0.355216
0.0104811
0.956632
0.00401012
1.4278
-0.00971275
1.79306
-0.0286499
2.14068
-0.0537662
2.49293
-0.0871067
2.88897
-0.13277
3.34856
-0.198477
3.88093
-0.316914
4.58159
-0.595539
5.12366
-1.04536
6.4054
-1.17025
6.7091
-1.15298
5.65553
-0.893691
3.98538
-0.264121
1.51266
-0.0699831
-0.184358
-0.0387615
-0.286946
-0.0143829
-0.20015
-0.0733006
0.0112351
0.343981
0.015651
0.952216
0.0104903
1.43296
0.000539513
1.80301
-0.0173054
2.15852
-0.0413279
2.51695
-0.0744678
2.92211
-0.120311
3.3944
-0.186005
3.94663
-0.306886
4.70247
-0.593033
5.40981
-0.980397
6.79276
-1.04311
6.77181
-0.976303
5.58873
-0.675988
3.68506
-0.0704707
0.907148
0.0152673
-0.270096
0.000324868
-0.272004
-0.00163226
-0.198193
-0.0749329
0.0185199
0.325461
0.0306005
0.940136
0.0302095
1.43335
0.019341
1.81387
0.00146794
2.1764
-0.0213076
2.53973
-0.0532518
2.95405
-0.0975277
3.43868
-0.162236
4.01133
-0.284298
4.82453
-0.563471
5.68898
-0.869553
7.09885
-0.906578
6.80883
-0.801705
5.48386
-0.442442
3.3258
0.0683927
0.396313
0.0793026
-0.281006
0.0590511
-0.251752
0.0221263
-0.161268
-0.0528066
0.0241793
0.301282
0.0420716
0.922243
0.0449174
1.43051
0.0385781
1.82021
0.026849
2.18812
0.00583449
2.56074
-0.0237266
2.98362
-0.0652906
3.48024
-0.126437
4.07248
-0.240972
4.93907
-0.489507
5.93752
-0.711197
7.32054
-0.733787
6.83142
-0.635058
5.38513
-0.30163
2.99237
0.00548893
0.0891947
0.021812
-0.297329
0.0330998
-0.26304
0.0158003
-0.143969
-0.0370062
0.035215
0.266067
0.0658708
0.891588
0.0779638
1.41841
0.0749634
1.82321
0.0638458
2.19924
0.0445731
2.58001
0.0175904
3.0106
-0.0205883
3.51842
-0.0758429
4.12774
-0.176461
5.03968
-0.378336
6.13939
-0.531925
7.47413
-0.559544
6.85904
-0.463023
5.28861
-0.191093
2.72044
-0.0756863
-0.0262125
-0.0529428
-0.320073
-0.0185337
-0.297449
-0.000483315
-0.162019
-0.0374896
0.0446504
0.221416
0.087076
0.849162
0.106998
1.39849
0.11195
1.81826
0.108588
2.2026
0.0951639
2.59344
0.0744381
3.03132
0.0430208
3.54984
-0.00754476
4.1783
-0.0817119
5.11385
-0.220494
6.27818
-0.310132
7.56376
-0.318121
6.86703
-0.255339
5.22583
-0.0886283
2.55373
-0.104533
-0.0103081
-0.0772528
-0.347352
-0.041516
-0.333186
-0.0102476
-0.193288
-0.0477372
0.0581472
0.163269
0.121355
0.785954
0.159424
1.36042
0.172495
1.80519
0.172323
2.20278
0.162111
2.60365
0.146943
3.04649
0.123704
3.57308
0.0881274
4.21388
0.0386583
5.16332
-0.0160642
6.3329
-0.0473932
7.59509
-0.047385
6.86702
-0.00292448
5.18137
0.0567239
2.49408
-0.0764064
0.122822
-0.0908728
-0.332886
-0.0565747
-0.367484
-0.004699
-0.245163
-0.0524362
0.0600209
0.103248
0.150997
0.694978
0.207658
1.30376
0.235303
1.77755
0.247779
2.1903
0.247568
2.60386
0.241425
3.05264
0.230236
3.58427
0.212021
4.23209
0.190568
5.18477
0.232689
6.29078
0.279529
7.54825
0.309527
6.83702
0.241535
5.24936
0.0371437
2.69847
-0.198755
0.358721
-0.260107
-0.271534
-0.190797
-0.436794
-0.0662107
-0.36975
-0.118647
0.0494742
0.0537739
0.18465
0.559802
0.28221
1.2062
0.329361
1.7304
0.349407
2.17026
0.357448
2.59582
0.356372
3.05371
0.356611
3.58403
0.357645
4.23106
0.370827
5.17159
0.519478
6.14213
0.655535
7.4122
0.644084
6.84847
0.422044
5.4714
-0.0774456
3.19796
-0.513421
0.794697
-0.570721
-0.214235
-0.443516
-0.563999
-0.217826
-0.59544
-0.336472
0.0343173
0.0194565
0.219117
0.375002
0.347191
1.07813
0.426151
1.65144
0.468521
2.12789
0.491454
2.57289
0.500943
3.04422
0.515993
3.56898
0.540432
4.20662
0.591299
5.12072
0.814025
5.9194
1.15134
7.07489
1.3036
6.69621
1.33532
5.43968
0.870103
3.66318
0.113838
1.55096
-0.35132
0.250924
-0.490765
-0.424554
-0.278877
-0.807328
-0.61535
0.0305427
-0.0110861
0.234751
0.170793
0.450732
0.862146
0.568563
1.5336
0.622604
2.07384
0.655422
2.54007
0.674576
3.02507
0.697629
3.54592
0.745242
4.15901
0.850359
5.01561
1.19177
5.57799
1.78304
6.48362
2.13707
6.34217
2.3977
5.17905
2.29618
3.7647
1.55399
2.29315
0.830432
0.974484
0.304089
0.101788
0.0336076
-0.536847
-0.581742
0.0234237
-0.0345098
0.156747
0.0374696
0.494354
0.52454
0.694256
1.3337
0.797716
1.97038
0.850866
2.48692
0.888737
2.9872
0.915009
3.51965
0.98033
4.09369
1.1107
4.88524
1.49652
5.19217
2.26841
5.71173
2.6545
5.95608
2.8345
4.99905
2.67897
3.92024
2.17773
2.79439
1.53717
1.61504
0.987755
0.651201
0.388047
0.0628609
-0.193695
0.00170115
-0.0362109
0.0765676
-0.0373969
0.409623
0.191485
0.718831
1.02449
0.86428
1.82494
0.90165
2.44955
0.908383
2.98046
0.892773
3.53526
0.892437
4.09402
0.931385
4.84629
1.0927
5.03085
1.5376
5.26683
1.71097
5.78271
1.75028
4.95974
1.65973
4.01079
1.4124
3.04173
1.00867
2.01877
0.583434
1.07643
0.24482
0.401475
0.0511249
0.00379511
-0.0400061
0.0430028
-0.0766046
0.209855
0.0246326
0.550339
0.68401
0.729653
1.64562
0.797011
2.38219
0.81021
2.96727
0.802687
3.54279
0.783779
4.11293
0.802941
4.82713
0.883448
4.95035
1.19203
4.95825
1.37752
5.59721
1.39313
4.94414
1.33539
4.06852
1.17287
3.20424
0.885633
2.30601
0.557205
1.40486
0.232075
0.726605
0.2832
0.0017977
-0.0418037
0.0152826
-0.0900895
0.0845213
-0.0446062
0.38129
0.387242
0.586083
1.44083
0.67782
2.29045
0.701389
2.9437
0.700958
3.54322
0.67413
4.13976
0.66867
4.83259
0.697843
4.92117
0.885419
4.77067
1.06264
5.41999
1.06378
4.943
1.00878
4.12353
0.885125
3.3279
0.677872
2.51327
0.42118
1.66155
0.17066
0.977125
0.45386
-0.00288156
-0.0389222
0.000384257
-0.0933553
0.0355349
-0.0797568
0.243445
0.179331
0.465245
1.21903
0.568392
2.18731
0.588508
2.92358
0.585314
3.54641
0.557723
4.16735
0.536697
4.85362
0.542001
4.91587
0.64967
4.663
0.791025
5.27864
0.781611
4.95241
0.722803
4.18233
0.625724
3.42498
0.477964
2.66103
0.290531
1.84898
0.110068
1.15759
0.563928
-0.00307693
-0.0358453
0.00503347
-0.101466
0.0362302
-0.110954
0.150063
0.0654986
0.334354
1.03474
0.444494
2.07717
0.478697
2.88938
0.477666
3.54744
0.452442
4.19257
0.425765
4.88029
0.411466
4.93017
0.472432
4.60203
0.568586
5.18248
0.557889
4.96311