/*--------------------------------*- C++ -*----------------------------------*\
  =========                 |
  \\      /  F ield         | OpenFOAM: The Open Source CFD Toolbox
   \\    /   O peration     | Website:  https://openfoam.org
    \\  /    A nd           | Version:  10
     \\/     M anipulation  |
\*---------------------------------------------------------------------------*/
FoamFile
{
    format      ascii;
    class       volVectorField;
    location    "68";
    object      U;
}
// * * * * * * * * * * * * * * * * * * * * * * * * * * * * * * * * * * * * * //

dimensions      [0 1 -1 0 0 0 0];

internalField   nonuniform List<vector> 
2200
(
(0.878834 -0.030412 0)
(1.00578 -0.0512799 0)
(1.00327 -0.0354003 0)
(1.00025 -0.0244395 0)
(0.999872 -0.0166635 0)
(1.00004 -0.0107316 0)
(1.00004 -0.00683768 0)
(0.999999 -0.00418503 0)
(0.999909 -0.00219832 0)
(1.00018 -0.000657138 0)
(1.00007 0.00113481 0)
(1.00038 0.00266406 0)
(1.00038 0.00452726 0)
(1.00028 0.00711277 0)
(1.0001 0.0108356 0)
(1.00002 0.0166594 0)
(1.00034 0.0243741 0)
(1.00347 0.0348614 0)
(1.00599 0.0513823 0)
(0.879051 0.0302945 0)
(0.712028 -0.0327597 0)
(0.996645 -0.063003 0)
(1.03332 -0.0561337 0)
(1.02492 -0.0464015 0)
(1.01589 -0.0360927 0)
(1.00965 -0.026354 0)
(1.00591 -0.0181145 0)
(1.00378 -0.0114227 0)
(1.00266 -0.00603218 0)
(1.00223 -0.00158572 0)
(1.00201 0.00249039 0)
(1.00209 0.00700117 0)
(1.00323 0.0123809 0)
(1.00548 0.0189525 0)
(1.00941 0.0272538 0)
(1.01552 0.0369964 0)
(1.02461 0.0474853 0)
(1.03315 0.0580023 0)
(0.996702 0.0631474 0)
(0.71178 0.0330376 0)
(0.535584 -0.0238914 0)
(0.969934 -0.056921 0)
(1.05644 -0.0547167 0)
(1.05224 -0.0487249 0)
(1.03625 -0.0403824 0)
(1.02447 -0.0322099 0)
(1.01592 -0.0239301 0)
(1.01038 -0.0160182 0)
(1.00708 -0.0087116 0)
(1.00538 -0.0019763 0)
(1.00557 0.0044189 0)
(1.00734 0.0108786 0)
(1.01049 0.0177693 0)
(1.01574 0.0254894 0)
(1.02404 0.0334479 0)
(1.03607 0.0414104 0)
(1.05216 0.0494077 0)
(1.0563 0.0533075 0)
(0.969193 0.0576489 0)
(0.534352 0.0239438 0)
(0.392397 -0.0136426 0)
(0.911895 -0.0463776 0)
(1.05755 -0.0468553 0)
(1.06963 -0.0442804 0)
(1.05492 -0.0381278 0)
(1.03935 -0.0314392 0)
(1.02758 -0.0246332 0)
(1.01916 -0.0174322 0)
(1.01391 -0.00994276 0)
(1.01141 -0.00246233 0)
(1.01107 0.00509962 0)
(1.01297 0.012492 0)
(1.01807 0.0198947 0)
(1.02657 0.0266806 0)
(1.03849 0.0331231 0)
(1.05399 0.0395805 0)
(1.06823 0.0456549 0)
(1.05547 0.0482875 0)
(0.909901 0.0469986 0)
(0.389897 0.0137776 0)
(0.307814 -0.00451003 0)
(0.84683 -0.0323611 0)
(1.04944 -0.0398944 0)
(1.0795 -0.038124 0)
(1.06827 -0.0334501 0)
(1.05177 -0.0278281 0)
(1.03834 -0.0224224 0)
(1.02803 -0.0163132 0)
(1.02082 -0.00936141 0)
(1.01677 -0.00162754 0)
(1.01668 0.00614689 0)
(1.02064 0.0135189 0)
(1.02754 0.0197991 0)
(1.03731 0.0255182 0)
(1.0502 0.030436 0)
(1.06664 0.0357657 0)
(1.07765 0.0401241 0)
(1.04719 0.0417914 0)
(0.842876 0.0330046 0)
(0.303658 0.00474364 0)
(0.264447 0.000104942 0)
(0.789226 -0.0200516 0)
(1.03359 -0.0314228 0)
(1.08373 -0.0319892 0)
(1.0774 -0.0287052 0)
(1.0609 -0.0238152 0)
(1.04733 -0.0193143 0)
(1.03657 -0.0142446 0)
(1.02889 -0.00821754 0)
(1.02453 -0.00131129 0)
(1.02401 0.00618911 0)
(1.02719 0.0128672 0)
(1.0343 0.0187288 0)
(1.04495 0.023214 0)
(1.0586 0.027158 0)
(1.07486 0.0315433 0)
(1.08031 0.0342632 0)
(1.02916 0.0333702 0)
(0.782502 0.0207559 0)
(0.258625 0.000125149 0)
(0.240524 0.00107056 0)
(0.738593 -0.0122652 0)
(1.01381 -0.0249466 0)
(1.0841 -0.0266932 0)
(1.08311 -0.0243829 0)
(1.0679 -0.020211 0)
(1.05427 -0.0162138 0)
(1.04325 -0.0116184 0)
(1.03487 -0.00612498 0)
(1.02975 0.000388784 0)
(1.02937 0.00697646 0)
(1.03395 0.0129107 0)
(1.04165 0.0173903 0)
(1.05177 0.0213942 0)
(1.06469 0.0247681 0)
(1.07939 0.0282118 0)
(1.07985 0.0297788 0)
(1.00744 0.0272864 0)
(0.728689 0.0131626 0)
(0.232931 -0.000832227 0)
(0.226279 0.00096477 0)
(0.695911 -0.00800821 0)
(0.993463 -0.0206756 0)
(1.08252 -0.0230189 0)
(1.08703 -0.0211487 0)
(1.0735 -0.0175833 0)
(1.06011 -0.0137224 0)
(1.04966 -0.00946403 0)
(1.04188 -0.00456864 0)
(1.03706 0.0010044 0)
(1.03612 0.00708091 0)
(1.03902 0.0123863 0)
(1.04564 0.0168644 0)
(1.05573 0.0201884 0)
(1.06915 0.0231747 0)
(1.08187 0.0259032 0)
(1.07551 0.0268735 0)
(0.983104 0.0235179 0)
(0.681517 0.00915903 0)
(0.216443 -0.000704906 0)
(0.216725 0.000626352 0)
(0.660499 -0.00564103 0)
(0.972826 -0.0175516 0)
(1.07967 -0.0201113 0)
(1.09042 -0.0185041 0)
(1.07841 -0.0152989 0)
(1.06494 -0.0116175 0)
(1.05426 -0.00733349 0)
(1.04604 -0.00242134 0)
(1.04071 0.0030681 0)
(1.03998 0.00841418 0)
(1.04386 0.012977 0)
(1.05078 0.0165407 0)
(1.06009 0.0198305 0)
(1.0725 0.0225319 0)
(1.08333 0.024697 0)
(1.07083 0.0251059 0)
(0.959029 0.0210942 0)
(0.641334 0.00709908 0)
(0.204292 -0.000330429 0)
(0.209662 0.000304683 0)
(0.632237 -0.00417306 0)
(0.954288 -0.0149053 0)
(1.07683 -0.0177854 0)
(1.09366 -0.0164356 0)
(1.08316 -0.0135107 0)
(1.06974 -0.00987082 0)
(1.05937 -0.00581221 0)
(1.05182 -0.00114107 0)
(1.04697 0.00383634 0)
(1.04532 0.00895695 0)
(1.04733 0.0135331 0)
(1.05305 0.0173572 0)
(1.06244 0.0200561 0)
(1.07547 0.0223968 0)
(1.08427 0.0240614 0)
(1.06361 0.0240124 0)
(0.934022 0.0192424 0)
(0.606197 0.00597642 0)
(0.193757 4.91018e-05 0)
(0.203853 9.04575e-05 0)
(0.608947 -0.00311498 0)
(0.936302 -0.0124765 0)
(1.07363 -0.0154469 0)
(1.09696 -0.0142406 0)
(1.08788 -0.0113885 0)
(1.07438 -0.0077928 0)
(1.06353 -0.00363826 0)
(1.05509 0.0011153 0)
(1.04943 0.00629892 0)
(1.04803 0.0111327 0)
(1.05099 0.0150722 0)
(1.05708 0.0180309 0)
(1.06595 0.0207059 0)
(1.07779 0.02276 0)
(1.0845 0.0239655 0)
(1.05687 0.0232139 0)
(0.910138 0.0177295 0)
(0.57578 0.005332 0)
(0.18405 0.000330601 0)
(0.199425 1.58916e-05 0)
(0.591066 -0.00224278 0)
(0.921221 -0.0101246 0)
(1.07097 -0.0132681 0)
(1.10051 -0.0121896 0)
(1.09286 -0.00948283 0)
(1.07919 -0.00590463 0)
(1.06826 -0.00199551 0)
(1.06014 0.00253877 0)
(1.0548 0.00746292 0)
(1.05225 0.0123483 0)
(1.05335 0.0164473 0)
(1.05848 0.0196465 0)
(1.06746 0.0215912 0)
(1.08003 0.0232678 0)
(1.08418 0.024078 0)
(1.04746 0.022745 0)
(0.88521 0.0165654 0)
(0.547839 0.00496985 0)
(0.174464 0.000501892 0)
(0.195897 3.72381e-05 0)
(0.576445 -0.00151487 0)
(0.906748 -0.00798227 0)
(1.06812 -0.010843 0)
(1.10401 -0.00967994 0)
(1.09784 -0.00683606 0)
(1.0842 -0.00317254 0)
(1.07283 0.000957408 0)
(1.06379 0.00573285 0)
(1.05708 0.0107687 0)
(1.05457 0.0151635 0)
(1.05663 0.0186296 0)
(1.06206 0.0209026 0)
(1.07059 0.0229007 0)
(1.08135 0.0241923 0)
(1.08333 0.0245914 0)
(1.03832 0.0226445 0)
(0.861031 0.0157538 0)
(0.52242 0.00482337 0)
(0.165163 0.000590399 0)
(0.193937 7.13201e-05 0)
(0.566232 -0.000713837 0)
(0.895805 -0.00578277 0)
(1.06619 -0.00847162 0)
(1.10793 -0.0071741 0)
(1.1032 -0.00428507 0)
(1.08937 -0.000515049 0)
(1.07759 0.00341032 0)
(1.06828 0.00780109 0)
(1.0617 0.0126168 0)
(1.05801 0.0175045 0)
(1.0582 0.0209844 0)
(1.06265 0.0233522 0)
(1.07146 0.024499 0)
(1.08254 0.0254392 0)
(1.0812 0.0253563 0)
(1.02609 0.0228482 0)
(0.835254 0.0152897 0)
(0.497596 0.00477709 0)
(0.155715 0.000625718 0)
(0.193156 0.000105227 0)
(0.558859 -0.000188538 0)
(0.885687 -0.00377786 0)
(1.06456 -0.00591791 0)
(1.11198 -0.00438285 0)
(1.1087 -0.00123681 0)
(1.09495 0.00269679 0)
(1.08278 0.0071277 0)
(1.07279 0.0121626 0)
(1.06495 0.0174615 0)
(1.06068 0.0213927 0)
(1.06123 0.0241694 0)
(1.06594 0.0257817 0)
(1.07398 0.0270204 0)
(1.08235 0.0273673 0)
(1.07858 0.0267972 0)
(1.01387 0.0235545 0)
(0.809723 0.0151978 0)
(0.473892 0.00485433 0)
(0.146389 0.000651104 0)
(0.193824 8.18107e-05 0)
(0.554914 0.000909471 0)
(0.879661 -0.00144458 0)
(1.06423 -0.00300041 0)
(1.11657 -0.001063 0)
(1.11453 0.00232761 0)
(1.10057 0.00662055 0)
(1.08786 0.0110573 0)
(1.07711 0.0157436 0)
(1.0683 0.0203026 0)
(1.06296 0.024731 0)
(1.06208 0.0277966 0)
(1.06532 0.0291865 0)
(1.07357 0.0295596 0)
(1.08224 0.0297554 0)
(1.07371 0.0286034 0)
(0.99809 0.0245313 0)
(0.782058 0.0154241 0)
(0.449565 0.00501021 0)
(0.136668 0.000665887 0)
(0.196068 0.000296882 0)
(0.555357 0.0015741 0)
(0.875298 0.000859523 0)
(1.06518 0.000175689 0)
(1.12186 0.00247629 0)
(1.12106 0.00617826 0)
(1.10709 0.0106531 0)
(1.09384 0.0156518 0)
(1.08242 0.0211902 0)
(1.07306 0.0269502 0)
(1.06676 0.0308851 0)
(1.06491 0.0326232 0)
(1.0681 0.0335592 0)
(1.07512 0.034079 0)
(1.08028 0.0331241 0)
(1.06824 0.0312982 0)
(0.981985 0.0262313 0)
(0.753828 0.0160751 0)
(0.425134 0.00532543 0)
(0.126723 0.000697404 0)
(0.20042 0.000681058 0)
(0.558283 0.00242245 0)
(0.875972 0.00352428 0)
(1.06792 0.00366103 0)
(1.12794 0.00673297 0)
(1.12803 0.0109124 0)
(1.11364 0.0161583 0)
(1.09981 0.0215858 0)
(1.08743 0.027094 0)
(1.0759 0.0317808 0)
(1.06765 0.0355623 0)
(1.06481 0.0377547 0)
(1.0665 0.0383946 0)
(1.0731 0.0376478 0)
(1.07861 0.0370859 0)
(1.06025 0.0344469 0)
(0.961495 0.0281464 0)
(0.722562 0.0170499 0)
(0.39893 0.00569984 0)
(0.116004 0.000714593 0)
(0.207105 0.000894107 0)
(0.565658 0.00358621 0)
(0.880212 0.00596012 0)
(1.07305 0.00787992 0)
(1.13512 0.0115082 0)
(1.13619 0.0163343 0)
(1.12141 0.0219417 0)
(1.10646 0.0279393 0)
(1.09265 0.0341607 0)
(1.0804 0.040267 0)
(1.07154 0.0445378 0)
(1.06699 0.0455566 0)
(1.0678 0.0453082 0)
(1.0735 0.0445136 0)
(1.07426 0.0423474 0)
(1.05088 0.0386697 0)
(0.939931 0.0311209 0)
(0.68954 0.0184835 0)
(0.371374 0.00621662 0)
(0.104689 0.000746197 0)
(0.215566 0.00105924 0)
(0.576632 0.00484006 0)
(0.888327 0.00910277 0)
(1.08087 0.0123787 0)
(1.14387 0.0171717 0)
(1.14536 0.0228343 0)
(1.12965 0.0295697 0)
(1.11376 0.0363646 0)
(1.09893 0.0431954 0)
(1.08443 0.0487797 0)
(1.07168 0.0515138 0)
(1.06595 0.0524955 0)
(1.06527 0.0521798 0)
(1.06915 0.0502193 0)
(1.0707 0.0484346 0)
(1.03854 0.0436104 0)
(0.912549 0.0341774 0)
(0.651893 0.0201616 0)
(0.34086 0.0067281 0)
(0.092309 0.00075654 0)
(0.228332 0.00143224 0)
(0.595939 0.00682154 0)
(0.904244 0.013647 0)
(1.09224 0.0189132 0)
(1.15428 0.0243968 0)
(1.15603 0.0309522 0)
(1.13931 0.0383497 0)
(1.12165 0.0459599 0)
(1.10412 0.0532293 0)
(1.08702 0.0594456 0)
(1.07408 0.0635975 0)
(1.06674 0.063957 0)
(1.06505 0.0621828 0)
(1.06853 0.0597447 0)
(1.06293 0.0560354 0)
(1.0234 0.0495404 0)
(0.883108 0.0384929 0)
(0.611336 0.0222303 0)
(0.308123 0.00728155 0)
(0.079234 0.000761839 0)
(0.244035 0.00198997 0)
(0.619106 0.008587 0)
(0.925104 0.0179755 0)
(1.10781 0.0255293 0)
(1.16711 0.0330923 0)
(1.1684 0.0408876 0)
(1.14992 0.0497682 0)
(1.13039 0.0583938 0)
(1.11117 0.0667214 0)
(1.09207 0.0730346 0)
(1.0747 0.0754092 0)
(1.06445 0.074069 0)
(1.0609 0.0721704 0)
(1.06105 0.0687378 0)
(1.05626 0.0644274 0)
(1.00462 0.0567793 0)
(0.845627 0.0427271 0)
(0.563709 0.0243218 0)
(0.271403 0.00771605 0)
(0.0650792 0.000744479 0)
(0.266358 0.002822 0)
(0.652566 0.0124522 0)
(0.954339 0.0250157 0)
(1.128 0.0353617 0)
(1.18273 0.0439218 0)
(1.18277 0.0538029 0)
(1.16196 0.0639133 0)
(1.13962 0.0736092 0)
(1.11657 0.0819577 0)
(1.09312 0.087615 0)
(1.0736 0.0894289 0)
(1.06292 0.0884677 0)
(1.05876 0.085163 0)
(1.05883 0.0808534 0)
(1.04378 0.074866 0)
(0.980829 0.0644355 0)
(0.804386 0.0481744 0)
(0.512403 0.0265697 0)
(0.232544 0.0080184 0)
(0.0506276 0.000720081 0)
(0.297938 0.00377398 0)
(0.698512 0.0156028 0)
(0.994052 0.0332976 0)
(1.15484 0.0472005 0)
(1.20192 0.0588958 0)
(1.19939 0.0708132 0)
(1.17492 0.082567 0)
(1.14913 0.0929502 0)
(1.12299 0.101529 0)
(1.09698 0.106785 0)
(1.07457 0.107671 0)
(1.05984 0.103969 0)
(1.05226 0.0989629 0)
(1.04789 0.0929224 0)
(1.03185 0.085646 0)
(0.952387 0.0735574 0)
(0.752338 0.0529162 0)
(0.451031 0.0281476 0)
(0.18945 0.00791867 0)
(0.0355014 0.000614235 0)
(0.334644 0.00713477 0)
(0.756523 0.0249382 0)
(1.04318 0.0467463 0)
(1.18764 0.0650833 0)
(1.22535 0.0782439 0)
(1.2185 0.0933319 0)
(1.18938 0.10607 0)
(1.15941 0.116615 0)
(1.12865 0.12425 0)
(1.09758 0.127712 0)
(1.07079 0.125849 0)
(1.05484 0.120671 0)
(1.04799 0.114976 0)
(1.04313 0.108322 0)
(1.01298 0.0988833 0)
(0.915471 0.0824403 0)
(0.694052 0.0585053 0)
(0.387328 0.0297115 0)
(0.146621 0.00763181 0)
(0.0218957 0.000571669 0)
(0.415222 0.0108216 0)
(0.844723 0.035761 0)
(1.11054 0.0678747 0)
(1.22859 0.0906766 0)
(1.2527 0.107025 6.12583e-34)
(1.23859 0.124068 -2.76961e-34)
(1.20282 0.13691 0)
(1.16759 0.146387 0)
(1.13219 0.152263 0)
(1.09744 0.153197 0)
(1.06852 0.149025 0)
(1.05031 0.141818 0)
(1.03912 0.133117 0)
(1.02749 0.123374 0)
(0.99212 0.111455 0)
(0.872016 0.0920523 0)
(0.621837 0.0619551 0)
(0.309097 0.0288744 0)
(0.09774 0.00698302 0)
(0.00716264 0.000737971 0)
(0.486784 0.0260208 4.45133e-20)
(0.947149 0.0604692 -3.37527e-20)
(1.18087 0.102459 0)
(1.27025 0.12987 2.63528e-20)
(1.28162 0.145873 -2.137e-20)
(1.25815 0.164631 2.92221e-34)
(1.21555 0.175409 0)
(1.17541 0.182611 1.56424e-20)
(1.13508 0.185668 -5.14078e-20)
(1.0953 0.183565 1.05143e-20)
(1.06188 0.17636 0)
(1.0399 0.165565 -2.67945e-20)
(1.0291 0.155618 -3.22828e-20)
(1.01594 0.145552 5.6564e-20)
(0.95598 0.129605 -4.46748e-20)
(0.800379 0.101547 0)
(0.518043 0.0640925 -1.60497e-20)
(0.217845 0.0267136 0)
(0.0489818 0.00659462 -8.87631e-20)
(-0.00859932 0.000326768 1.0461e-19)
(0.523238 0.054115 -5.89213e-21)
(1.01366 0.10275 9.90344e-20)
(1.23357 0.153474 -4.98959e-21)
(1.30519 0.177898 -6.36855e-20)
(1.30725 0.195368 -4.50838e-20)
(1.27473 0.212429 7.33464e-20)
(1.22563 0.220538 0)
(1.17965 0.22511 0)
(1.13366 0.225874 8.15916e-20)
(1.08899 0.220846 0)
(1.05145 0.209538 9.63571e-20)
(1.02901 0.197323 2.8751e-20)
(1.01243 0.185718 5.79985e-22)
(0.984069 0.170267 -6.12453e-20)
(0.911773 0.148745 0)
(0.730016 0.114367 0)
(0.433861 0.0657761 -2.60901e-19)
(0.15712 0.0240787 6.56099e-19)
(0.0159821 0.00443636 -3.87803e-19)
(-0.0201498 -0.00151946 -4.56713e-19)
(0.530244 0.0775484 -5.25444e-20)
(1.04786 0.160038 2.05905e-20)
(1.26855 0.213665 1.16535e-20)
(1.33182 0.237202 1.10578e-19)
(1.3269 0.253743 1.46491e-20)
(1.28709 0.266086 -1.90567e-19)
(1.23251 0.269952 6.52141e-20)
(1.18147 0.27107 0)
(1.13016 0.267885 -1.72115e-19)
(1.08006 0.258686 1.53437e-19)
(1.03905 0.245145 -2.59955e-19)
(1.0113 0.231126 1.21897e-19)
(0.99269 0.215365 -7.90589e-20)
(0.966268 0.19886 1.78353e-19)
(0.875929 0.173024 0)
(0.678254 0.126753 -6.48653e-20)
(0.382017 0.0685784 0)
(0.132168 0.0233206 3.57135e-19)
(0.00241314 0.00218311 -8.46038e-19)
(-0.0256584 -0.00352961 5.29524e-19)
(0.527672 0.108467 1.34348e-19)
(1.0735 0.218972 -6.0055e-20)
(1.29313 0.280132 -1.32225e-20)
(1.34992 0.302407 0)
(1.33989 0.315874 -8.20735e-20)
(1.29489 0.323135 1.01436e-19)
(1.23552 0.322489 -6.95865e-20)
(1.17941 0.319327 0)
(1.12336 0.312101 1.22201e-19)
(1.0693 0.299113 -1.07732e-19)
(1.02452 0.28148 2.24596e-19)
(0.994767 0.26248 0)
(0.972326 0.245388 -1.67862e-19)
(0.932825 0.224515 9.46447e-20)
(0.84206 0.190659 2.37813e-19)
(0.642186 0.139789 -2.09204e-19)
(0.358913 0.0748628 3.30012e-19)
(0.126383 0.025152 -7.30141e-19)
(-0.00213095 0.000513735 4.61717e-19)
(-0.0289072 -0.00575499 -5.77462e-19)
(0.512907 0.13262 -3.84565e-20)
(1.07526 0.270525 2.71123e-20)
(1.30179 0.344332 -4.42006e-20)
(1.35878 0.367926 9.1825e-20)
(1.34563 0.380222 -8.88617e-20)
(1.29701 0.382213 3.15698e-20)
(1.23428 0.37635 3.80349e-21)
(1.17461 0.368638 -1.36833e-19)
(1.11437 0.356866 -1.2764e-19)
(1.05528 0.338975 -2.30726e-19)
(1.00643 0.317258 -4.82651e-19)
(0.973424 0.29589 -1.48947e-19)
(0.948924 0.274855 2.23329e-21)
(0.914871 0.252338 -3.23483e-19)
(0.816565 0.217086 -4.95361e-21)
(0.619276 0.155005 3.04066e-19)
(0.352478 0.0834383 -9.11221e-20)
(0.129234 0.0294365 -5.28138e-20)
(0.00196107 -0.000524443 0)
(-0.02841 -0.00715117 1.22662e-18)
(0.498175 0.154395 0)
(1.07491 0.323033 5.65149e-22)
(1.30608 0.409605 -5.64803e-21)
(1.36145 0.432662 -1.2991e-20)
(1.34587 0.442676 8.44825e-20)
(1.29504 0.440238 -7.43765e-20)
(1.22947 0.430353 7.55907e-20)
(1.16621 0.418403 2.24887e-19)
(1.10245 0.402229 -7.09858e-20)
(1.04116 0.380296 1.13923e-19)
(0.990065 0.354563 2.59294e-19)
(0.954177 0.328897 3.2476e-19)
(0.926443 0.306224 -1.95615e-19)
(0.882155 0.279983 3.50204e-19)
(0.788537 0.237005 -2.77518e-19)
(0.599128 0.174037 0)
(0.347809 0.0961846 -6.91905e-19)
(0.13754 0.0359988 9.31442e-19)
(0.0110848 0.00143639 6.95003e-20)
(-0.0248098 -0.00761076 -1.29691e-18)
(0.480173 0.173343 -5.16859e-21)
(1.06119 0.36812 -2.53755e-20)
(1.30096 0.468514 4.04308e-20)
(1.35851 0.494237 -6.45702e-20)
(1.34112 0.504238 7.16297e-20)
(1.28832 0.497757 -7.12071e-20)
(1.22079 0.483483 1.48734e-19)
(1.15558 0.467147 -6.67225e-20)
(1.08944 0.44652 -2.8604e-19)
(1.02423 0.41993 -2.02303e-22)
(0.968166 0.389513 -2.82051e-19)
(0.928804 0.360882 -3.49713e-19)
(0.901278 0.335285 2.16338e-19)
(0.863889 0.307521 -1.25909e-19)
(0.766087 0.265461 3.02128e-19)
(0.584109 0.191995 0)
(0.347416 0.110599 -4.3027e-19)
(0.146932 0.0443018 6.35512e-19)
(0.0212076 0.00497408 1.20164e-18)
(-0.0202778 -0.00734477 -1.41329e-18)
(0.467596 0.192004 -1.07279e-19)
(1.05273 0.415554 4.84586e-20)
(1.29513 0.528079 -2.06063e-20)
(1.35198 0.554074 6.59973e-20)
(1.333 0.562459 1.2235e-20)
(1.27921 0.552373 -1.38435e-19)
(1.21015 0.534813 -8.67916e-20)
(1.14272 0.514843 -8.63439e-20)
(1.07385 0.490406 -1.62133e-19)
(1.00597 0.459947 2.60714e-19)
(0.947848 0.425654 2.84566e-19)
(0.90781 0.393702 5.54861e-19)
(0.87714 0.366421 0)
(0.830867 0.3358 6.4249e-21)
(0.740779 0.284742 -8.31189e-19)
(0.568691 0.212462 1.95384e-19)
(0.346206 0.125119 9.34634e-19)
(0.155684 0.05388 -2.75823e-19)
(0.0316286 0.00973298 5.71897e-19)
(-0.0151703 -0.00631424 -4.76555e-20)
(0.454199 0.208129 5.87682e-21)
(1.03584 0.455068 6.63189e-20)
(1.28391 0.581118 -1.86169e-21)
(1.3424 0.610081 5.96193e-20)
(1.32218 0.618711 -1.29447e-19)
(1.26712 0.605451 1.36408e-19)
(1.19673 0.584384 8.97446e-20)
(1.12786 0.560724 2.57044e-19)
(1.05679 0.532631 3.24266e-19)
(0.985745 0.498035 -3.02671e-19)
(0.924517 0.459525 0)
(0.881816 0.424338 -2.10533e-19)
(0.850434 0.393979 2.41717e-19)
(0.812038 0.361768 3.055e-19)
(0.719544 0.313442 -1.76887e-19)
(0.554656 0.23059 -4.2925e-19)
(0.34469 0.140504 -1.27778e-19)
(0.162881 0.063994 -2.04288e-21)
(0.0407898 0.0152091 0)
(-0.0103441 -0.00487091 0)
(0.446524 0.225269 -9.14668e-20)
(1.02566 0.49741 0)
(1.27342 0.634618 1.38303e-20)
(1.3308 0.664399 -1.86678e-20)
(1.30942 0.671535 1.49835e-19)
(1.25382 0.655279 -3.7477e-20)
(1.18241 0.631603 9.12348e-20)
(1.11183 0.60507 -1.73528e-19)
(1.03894 0.573864 2.4602e-19)
(0.96682 0.535893 -1.00481e-19)
(0.904028 0.493464 1.63443e-19)
(0.859864 0.456079 6.68731e-19)
(0.826821 0.423821 1.42906e-20)
(0.779584 0.387927 -3.19153e-19)
(0.695037 0.330356 5.9062e-19)
(0.53868 0.250913 3.29632e-21)
(0.340637 0.154738 1.36705e-19)
(0.1674 0.0742098 -6.51582e-19)
(0.0477952 0.0205918 6.71356e-19)
(-0.00627587 -0.00333847 -7.9073e-19)
(0.438322 0.24055 2.53376e-23)
(1.0104 0.532656 0)
(1.25963 0.681609 0)
(1.31769 0.714688 4.34075e-21)
(1.29549 0.72201 -4.25606e-20)
(1.23889 0.703253 6.26869e-20)
(1.16647 0.676822 -1.67879e-19)
(1.09518 0.647288 0)
(1.02104 0.613048 -3.63242e-19)
(0.945908 0.571573 4.39114e-19)
(0.879519 0.525758 4.68254e-19)
(0.833091 0.485023 -2.45575e-19)
(0.79987 0.448035 -2.97982e-19)
(0.761222 0.410598 6.99085e-19)
(0.673563 0.357264 -2.10194e-19)
(0.52263 0.266703 -2.50217e-19)
(0.334903 0.168434 -1.49518e-19)
(0.168861 0.08319 -7.04575e-19)
(0.0523901 0.0253261 1.0328e-19)
(-0.00310252 -0.00191856 8.56731e-19)
(0.432932 0.257741 -4.37073e-20)
(1.00044 0.570529 -5.92384e-20)
(1.24715 0.729065 2.38511e-20)
(1.30357 0.763353 -2.0474e-22)
(1.2805 0.769315 -4.96298e-20)
(1.22364 0.748115 9.73692e-20)
(1.15078 0.719544 0)
(1.07847 0.687724 1.05587e-19)
(1.00265 0.651202 -8.32561e-20)
(0.925903 0.607088 7.3388e-19)
(0.858383 0.557795 -1.05446e-19)
(0.810953 0.513557 1.2175e-19)
(0.776381 0.475814 0)
(0.728817 0.434103 -3.78735e-19)
(0.648689 0.369831 4.58942e-19)
(0.504881 0.284165 0)
(0.326149 0.179427 -3.21862e-19)
(0.167591 0.0909242 9.47548e-19)
(0.0546078 0.0291559 1.12639e-19)
(-0.000864579 -0.000762922 -1.05684e-18)
(0.428733 0.275007 -1.07877e-19)
(0.987425 0.602392 1.36536e-19)
(1.23249 0.770367 0)
(1.28896 0.807881 2.93708e-20)
(1.26542 0.814079 0)
(1.20787 0.790933 -1.29975e-19)
(1.13436 0.760208 0)
(1.06149 0.726087 0)
(0.984473 0.687194 -1.11473e-19)
(0.905182 0.640232 -6.97917e-19)
(0.834506 0.588227 -8.66407e-19)
(0.784102 0.540815 1.42941e-19)
(0.748161 0.49702 5.16741e-19)
(0.710123 0.45269 4.17689e-19)
(0.626532 0.393318 -1.47343e-18)
(0.487529 0.295208 -5.8824e-19)
(0.316522 0.189574 3.4502e-19)
(0.164277 0.0966265 0)
(0.0548802 0.0319775 9.68744e-19)
(0.000526137 5.08398e-05 -1.14011e-18)
(0.42664 0.290591 1.26853e-19)
(0.978945 0.636612 -1.57096e-19)
(1.2195 0.812423 0)
(1.2741 0.850934 -1.14234e-20)
(1.24987 0.855986 -6.20608e-21)
(1.19221 0.830938 0)
(1.11851 0.79852 5.20752e-20)
(1.0448 0.762558 7.412e-20)
(0.966258 0.722048 -2.08893e-19)
(0.885304 0.673307 9.22283e-20)
(0.812686 0.618438 0)
(0.761295 0.566989 5.92837e-19)
(0.724592 0.522286 6.26416e-21)
(0.677047 0.473104 2.25522e-19)
(0.601558 0.399894 2.67297e-19)
(0.468712 0.308056 0)
(0.305264 0.196298 -5.61582e-19)
(0.158988 0.101054 1.10138e-18)
(0.0538671 0.0335626 -1.17071e-18)
(0.00105888 0.000582511 2.45663e-18)
(0.42475 0.305376 0)
(0.967558 0.66507 0)
(1.20518 0.848532 -7.78645e-20)
(1.25942 0.889955 0)
(1.23482 0.895351 0)
(1.17661 0.868826 -1.02903e-19)
(1.10239 0.834759 5.32592e-20)
(1.02819 0.797119 1.79214e-20)
(0.948581 0.754813 -4.74753e-20)
(0.865289 0.703979 0)
(0.789632 0.64697 -1.32649e-19)
(0.734447 0.592807 -4.8365e-19)
(0.694717 0.540963 -5.83195e-19)
(0.657337 0.486578 -2.3472e-19)
(0.578834 0.419042 2.89521e-19)
(0.450708 0.312271 -6.81805e-19)
(0.295135 0.201277 1.20762e-18)
(0.153483 0.102803 1.49461e-21)
(0.0521871 0.0349364 -1.11814e-18)
(0.0015076 0.00144698 -1.65724e-19)
(0.423557 0.319348 0)
(0.95998 0.695992 -1.26574e-19)
(1.19273 0.885637 9.40676e-20)
(1.24485 0.927806 0)
(1.21957 0.932232 0)
(1.16126 0.904255 2.0409e-19)
(1.08701 0.868908 0)
(1.01221 0.82981 0)
(0.931335 0.786452 -4.59522e-19)
(0.846374 0.734577 1.28781e-19)
(0.767958 0.675491 -1.17663e-18)
(0.710882 0.61704 0)
(0.6706 0.564055 -6.35726e-19)
(0.622373 0.503719 9.90637e-21)
(0.552635 0.417732 -9.33032e-19)
(0.432223 0.31777 3.66545e-19)
(0.285471 0.200475 1.20716e-21)
(0.151859 0.101588 -1.26469e-18)
(0.0519585 0.0329412 6.01224e-19)
(-0.000278189 -0.00116918 1.77252e-19)
(0.422116 0.333112 0)
(0.949977 0.72169 -1.70553e-19)
(1.17933 0.917105 9.8917e-20)
(1.23074 0.96185 1.40487e-19)
(1.20511 0.966674 -4.78469e-21)
(1.14637 0.937572 2.01639e-20)
(1.07179 0.900996 -2.96896e-20)
(0.996709 0.860794 4.3275e-19)
(0.914884 0.81617 4.91558e-19)
(0.827599 0.762923 9.79793e-19)
(0.745912 0.702616 9.7759e-19)
(0.684235 0.642377 1.72391e-19)
(0.638352 0.581075 9.14199e-19)
(0.600131 0.512051 5.65315e-19)
(0.527339 0.430908 6.69446e-19)
(0.414097 0.311143 -4.00927e-19)
(0.27654 0.193455 -4.60355e-19)
(0.154622 0.0999243 5.45611e-19)
(0.0613625 0.0429002 -3.23229e-19)
(0.0080588 0.00952905 5.74824e-19)
(0.421121 0.346375 2.37554e-19)
(0.943383 0.74984 2.67456e-19)
(1.16776 0.949959 5.65074e-20)
(1.21691 0.995088 1.54017e-20)
(1.19064 0.999002 -1.89747e-20)
(1.13188 0.968789 -5.61841e-20)
(1.05746 0.931312 2.82764e-20)
(0.98198 0.89 -1.89708e-20)
(0.899019 0.844747 -5.73254e-19)
(0.810122 0.791148 -1.06387e-18)
(0.725349 0.729527 6.78744e-20)
(0.660452 0.665265 0)
(0.613517 0.602974 0)
(0.561128 0.527727 -2.95268e-19)
(0.49596 0.420124 -1.09883e-18)
(0.393835 0.304215 8.63767e-19)
(0.276373 0.175775 5.05006e-19)
(0.168462 0.077781 0)
(0.0793269 0.0115953 1.03443e-18)
(0.00180982 -0.0182001 -6.12164e-19)
(0.419876 0.359285 -1.26106e-19)
(0.934613 0.772911 1.11063e-19)
(1.15535 0.977403 -1.34697e-19)
(1.20368 1.02474 -1.14279e-19)
(1.17716 1.02905 -2.24653e-20)
(1.11812 0.997958 -1.79517e-20)
(1.04355 0.95958 0)
(0.967893 0.917643 -5.4447e-19)
(0.884047 0.871549 6.90865e-20)
(0.792961 0.817159 0)
(0.70489 0.755421 0)
(0.63454 0.691239 1.10742e-19)
(0.578646 0.620248 1.48872e-19)
(0.534174 0.532747 -3.19616e-19)
(0.463662 0.429348 7.88387e-19)
(0.367321 0.282185 -9.41787e-19)
(0.262226 0.150221 -1.08464e-18)
(0.193285 0.0680413 9.61242e-19)
(0.150506 0.0668633 -3.67605e-19)
(0.109456 0.0742035 2.13845e-19)
(0.419019 0.371347 1.55959e-19)
(0.928816 0.798288 0)
(1.14467 1.00656 0)
(1.19083 1.05392 -3.22233e-20)
(1.16377 1.05732 2.60857e-20)
(1.10481 1.02536 -1.97132e-20)
(1.03051 0.986388 1.30539e-19)
(0.954539 0.943611 5.56869e-19)
(0.869701 0.897201 1.04122e-18)
(0.777191 0.842983 -8.06321e-20)
(0.686145 0.780941 1.67258e-19)
(0.611376 0.713378 -9.92904e-19)
(0.553677 0.642568 -9.92698e-19)
(0.489009 0.551101 -1.72079e-19)
(0.417223 0.411114 0)
(0.332944 0.269565 -4.11095e-21)
(0.245897 0.0754853 5.993e-19)
(0.240995 -0.0369558 -1.00528e-18)
(0.208489 -0.112389 7.63698e-19)
(0.0885402 -0.100454 6.31851e-19)
(0.417722 0.383164 -3.43645e-19)
(0.920816 0.818678 -1.54328e-19)
(1.1331 1.03047 6.89326e-21)
(1.17852 1.07988 6.2619e-20)
(1.15129 1.08376 0)
(1.09212 1.05118 -4.31382e-20)
(1.0177 1.01161 -1.90085e-19)
(0.941577 0.968686 -2.26397e-21)
(0.855945 0.921928 -5.45539e-19)
(0.761432 0.867492 -7.92501e-20)
(0.667073 0.806385 7.36117e-20)
(0.586513 0.741542 8.72527e-19)
(0.515436 0.663284 9.68146e-19)
(0.4553 0.556161 1.68247e-19)
(0.375714 0.427984 8.57332e-19)
(0.271282 0.232936 0)
(0.145279 0.0555377 0)
(-0.0133916 0.171996 6.85872e-19)
(-0.0786462 0.62951 -2.67988e-20)
(0.00996181 1.54567 -8.52787e-19)
(0.416917 0.394194 1.8937e-19)
(0.915628 0.84169 4.3647e-19)
(1.12319 1.05676 -6.05256e-19)
(1.16648 1.10607 3.0976e-19)
(1.13868 1.10922 -1.17581e-20)
(1.07954 1.07617 7.17571e-21)
(1.00535 1.03649 0)
(0.928891 0.993208 -4.63656e-19)
(0.84237 0.946764 0)
(0.746515 0.893332 1.11324e-18)
(0.648963 0.833133 -9.04548e-20)
(0.562797 0.766046 1.01429e-19)
(0.490243 0.691078 1.11715e-18)
(0.400115 0.588929 -3.6561e-19)
(0.2863 0.410515 -4.3497e-19)
(0.1815 0.281854 0)
(0.0731434 0.455183 0)
(0.0241001 1.3643 0)
(0.0710552 2.47474 -3.89129e-19)
(0.0970396 2.91624 -2.40565e-19)
(0.415349 0.404768 0)
(0.908191 0.859613 0)
(1.11234 1.07771 2.20179e-19)
(1.15501 1.12913 -2.5232e-19)
(1.12702 1.13305 1.18651e-19)
(1.06765 1.09975 2.26033e-21)
(0.993328 1.0599 2.50816e-20)
(0.916754 1.01711 -1.95276e-20)
(0.829574 0.97107 7.77028e-20)
(0.731793 0.918287 -1.27771e-18)
(0.6308 0.860205 1.63678e-19)
(0.539324 0.799282 8.7933e-19)
(0.448321 0.720893 -1.11238e-18)
(0.361637 0.596073 -1.23e-18)
(0.263041 0.466702 4.12879e-19)
(0.178948 0.615448 0)
(0.112068 1.59164 5.60012e-19)
(0.117381 2.70209 6.02732e-19)
(0.124762 3.09085 -6.73262e-19)
(0.117581 3.22357 7.16046e-19)
(0.414325 0.415067 0)
(0.903549 0.880344 3.80886e-19)
(1.10323 1.10144 -5.51662e-20)
(1.14386 1.15267 3.47588e-19)
(1.11528 1.15601 -1.24544e-19)
(1.05592 1.12258 0)
(0.98184 1.08305 0)
(0.904991 1.04032 0)
(0.817117 0.995182 4.34196e-19)
(0.718296 0.94424 5.86621e-20)
(0.614541 0.888301 0)
(0.516801 0.825842 -8.7379e-19)
(0.42983 0.7533 0)
(0.304985 0.640685 8.80003e-19)
(0.198897 0.688698 -5.97269e-19)
(0.143412 1.46723 -4.77933e-19)
(0.147993 2.68854 -1.0962e-18)
(0.171681 3.12599 -5.75511e-19)
(0.162286 3.26505 -7.71818e-19)
(0.149496 3.30524 5.5846e-19)
(0.412675 0.424339 -1.32396e-19)
(0.896554 0.89581 1.47259e-20)
(1.0931 1.11958 -6.10946e-20)
(1.13331 1.17306 -2.69696e-19)
(1.10453 1.17743 0)
(1.04497 1.14406 0)
(0.970768 1.10465 0)
(0.893914 1.06291 3.28562e-20)
(0.805576 1.0188 -5.49258e-19)
(0.705101 0.96932 0)
(0.598214 0.916493 0)
(0.498076 0.862947 0)
(0.385702 0.785727 0)
(0.308642 0.733311 6.4743e-19)
(0.264489 1.13603 1.58627e-18)
(0.237051 2.4027 4.64728e-19)
(0.254719 3.08127 9.28382e-19)
(0.249309 3.27806 -7.1082e-19)
(0.201222 3.34339 2.59572e-19)
(0.169679 3.35666 0)
(0.411496 0.433482 1.35953e-19)
(0.892293 0.915004 -8.42224e-19)
(1.08458 1.14172 -2.27453e-19)
(1.12281 1.19486 -5.0547e-20)
(1.09345 1.19875 2.88906e-20)
(1.03394 1.16548 -1.17253e-19)
(0.960028 1.12672 -3.68522e-22)
(0.88298 1.0853 -3.58413e-19)
(0.794151 1.04248 0)
(0.693101 0.995537 -7.54553e-20)
(0.584774 0.945994 6.86432e-20)
(0.478561 0.890092 0)
(0.383078 0.826512 0)
(0.320895 0.926516 -8.11347e-19)
(0.265205 1.85173 1.02241e-19)
(0.261679 2.94498 -3.4973e-19)
(0.286981 3.28097 7.31113e-19)
(0.258221 3.37917 5.2229e-19)
(0.193981 3.40381 -7.05217e-19)
(0.169658 3.41408 3.47552e-19)
(0.409395 0.44288 2.66066e-19)
(0.884659 0.9297 8.18851e-19)
(1.07394 1.15909 2.73782e-19)
(1.11206 1.21481 0)
(1.08261 1.21997 0)
(1.02299 1.18682 9.08377e-20)
(0.94908 1.14819 5.12321e-20)
(0.872259 1.108 3.19024e-19)
(0.783309 1.06651 2.12028e-20)
(0.681182 1.02154 9.60453e-19)
(0.570624 0.975612 -1.14756e-18)
(0.459339 0.92573 0)
(0.380098 0.906283 0)
(0.332972 1.3046 -5.53955e-19)
(0.327763 2.49655 -6.64504e-19)
(0.372959 3.19352 0)
(0.398229 3.36116 -7.38419e-19)
(0.327361 3.42416 5.13235e-20)
(0.259286 3.46989 3.3801e-19)
(0.237258 3.49541 -1.0948e-19)
(0.407582 0.452605 -5.05414e-19)
(0.879826 0.950952 -3.92668e-19)
(1.06437 1.18362 0)
(1.10033 1.23837 0)
(1.07036 1.24269 0)
(1.01098 1.20951 0)
(0.937622 1.17152 -6.22261e-20)
(0.860853 1.13147 2.77351e-19)
(0.77181 1.09127 0)
(0.669907 1.04907 -8.74086e-19)
(0.55991 1.00668 2.06011e-18)
(0.449113 0.963978 8.45731e-20)
(0.39585 1.0266 1.14259e-19)
(0.384593 1.74006 9.02513e-19)
(0.395205 2.90136 -4.85239e-19)
(0.435476 3.31254 0)
(0.418454 3.43378 2.07682e-19)
(0.332597 3.52304 9.10921e-20)
(0.259141 3.58744 1.49009e-19)
(0.183625 3.56689 -1.63807e-20)
(0.404582 0.462875 2.40065e-19)
(0.870178 0.966542 -3.99116e-19)
(1.05166 1.20196 0)
(1.08792 1.25975 -7.40022e-20)
(1.05802 1.26554 2.55785e-19)
(0.998724 1.23228 0)
(0.925609 1.19411 0)
(0.84948 1.15529 -4.80676e-19)
(0.760854 1.11643 -5.56332e-20)
(0.658783 1.07628 8.5779e-19)
(0.5449 1.03707 -9.78725e-19)
(0.451968 1.01536 5.76775e-19)
(0.412409 1.21682 0)
(0.419802 2.18598 -4.78705e-19)
(0.461608 3.14179 3.13787e-19)
(0.526905 3.41411 1.96934e-19)
(0.517875 3.50954 0)
(0.455412 3.59212 -3.70283e-20)
(0.386746 3.6316 -4.09656e-19)
(0.306418 3.60388 -9.66517e-20)
(0.40183 0.47334 -4.76462e-19)
(0.864274 0.990797 5.71053e-19)