/*--------------------------------*- C++ -*----------------------------------*\
  =========                 |
  \\      /  F ield         | OpenFOAM: The Open Source CFD Toolbox
   \\    /   O peration     | Website:  https://openfoam.org
    \\  /    A nd           | Version:  10
     \\/     M anipulation  |
\*---------------------------------------------------------------------------*/
FoamFile
{
    format      ascii;
    class       volScalarField;
    location    "2.5";
    object      p;
}
// * * * * * * * * * * * * * * * * * * * * * * * * * * * * * * * * * * * * * //

dimensions      [1 -1 -2 0 0 0 0];

internalField   nonuniform List<scalar> 
16128
(
1
1
1
1
1
1
1
1
1
1
1
1
1
1
1
1
1
1
1
1
1
1
1
1
2.9836
9.60621
10.5244
10.621
10.748
10.8607
10.9682
11.0702
11.1686
11.2621
11.3494
11.4315
11.509
11.5815
11.6493
11.7118
11.7694
11.8227
11.8739
11.9206
11.9638
11.9941
12.0084
12.0245
1
1
1
1
1
1
1
1
1
1
1
1
1
1
1
1
1
1
1
1
1
1
1
1
2.92446
9.54275
10.5206
10.6227
10.7486
10.8591
10.9649
11.0658
11.1633
11.2561
11.3429
11.4246
11.5015
11.5733
11.6404
11.7025
11.7599
11.8128
11.8634
11.9088
11.9507
11.9793
11.9925
12.0111
1
1
1
1
1
1
1
1
1
1
1
1
1
1
1
1
1
1
1
1
1
1
1
1
2.78433
9.4479
10.5147
10.6147
10.7404
10.8501
10.9554
11.0556
11.1525
11.2447
11.3312
11.4127
11.4891
11.5602
11.6269
11.6895
11.7472
11.7996
11.8485
11.8913
11.9298
11.9561
11.9677
11.9904
1
1
1
1
1
1
1
1
1
1
1
1
1
1
1
1
1
1
1
1
1
1
1
1
2.57534
9.29301
10.5101
10.6035
10.7273
10.835
10.9392
11.0385
11.1344
11.2257
11.3118
11.3928
11.4684
11.5386
11.6047
11.6672
11.7249
11.7768
11.8244
11.8648
11.8999
11.9246
11.9359
11.9591
1
1
1
1
1
1
1
1
1
1
1
1
1
1
1
1
1
1
1
1
1
1
1
1
2.32132
9.06466
10.5009
10.5843
10.7049
10.8103
10.9135
11.0119
11.1069
11.1974
11.283
11.3639
11.4396
11.5099
11.5762
11.6388
11.6964
11.7474
11.7933
11.8307
11.8609
11.8826
11.8956
11.9224
1
1
1
1
1
1
1
1
1
1
1
1
1
1
1
1
1
1
1
1
1
1
1
1
2.04693
8.75554
10.4952
10.5653
10.6827
10.7853
10.887
10.9838
11.077
11.1658
11.25
11.3297
11.4045
11.474
11.5391
11.6
11.6561
11.7069
11.753
11.7889
11.8127
11.8282
11.8307
11.8785
1
1
1
1
1
1
1
1
1
1
1
1
1
1
1
1
1
1
1
1
1
1
1
1
1.76053
8.3563
10.4977
10.5436
10.6581
10.7567
10.8568
10.9521
11.0437
11.1304
11.2121
11.2892
11.362
11.4301
11.4937
11.5528
11.6071
11.6569
11.7017
11.7361
11.7578
11.7769
11.7554
11.81
1
1
1
1
1
1
1
1
1
1
1
1
1
1
1
1
1
1
1
1
1
1
1
1
1.46453
7.83988
10.4898
10.5098
10.6266
10.7225
10.8212
10.9144
11.0037
11.0885
11.1678
11.2421
11.3124
11.3788
11.4408
11.498
11.5504
11.5982
11.6395
11.6701
11.6877
11.7072
11.6739
11.7335
1
1
1
1
1
1
1
1
1
1
1
1
1
1
1
1
1
1
1
1
1
1
1
1
1.19059
7.27107
10.4824
10.4803
10.5901
10.6808
10.7746
10.8647
10.9518
11.0342
11.111
11.1825
11.2501
11.3141
11.3739
11.4291
11.4787
11.5225
11.5594
11.5882
11.6066
11.6251
11.5777
11.6467
1
1
1
1
1
1
1
1
1
1
1
1
1
1
1
1
1
1
1
1
1
1
1
1
1.0097
6.55232
10.341
10.4089
10.5189
10.6147
10.7079
10.7959
10.8813
10.9641
11.0415
11.1122
11.1772
11.2382
11.2952
11.3476
11.3932
11.4314
11.4635
11.493
11.5151
11.5261
11.4721
11.515
1
1
1
1
1
1
1
1
1
1
1
1
1
1
1
1
1
1
1
1
1
1
1
1
1.00006
5.70088
10.1797
10.3433
10.4548
10.5599
10.6538
10.7418
10.823
10.8982
10.9676
11.0321
11.0925
11.1493
11.2023
11.2504
11.2909
11.3228
11.347
11.366
11.3725
11.3782
11.3661
11.3783
1
1
1
1
1
1
1
1
1
1
1
1
1
1
1
1
1
1
1
1
1
1
1
1
1
4.77733
9.94564
10.2785
10.3912
10.497
10.5856
10.6662
10.7406
10.8109
10.8768
10.937
10.9908
11.0414
11.0891
11.1318
11.1668
11.1932
11.2127
11.2237
11.2169
11.2095
11.1814
11.1909
1
1
1
1
1
1
1
1
1
1
1
1
1
1
1
1
1
1
1
1
1
1
1
1
1
3.80908
9.59945
10.2341
10.3469
10.4499
10.5353
10.609
10.6739
10.7337
10.7875
10.8358
10.8806
10.9226
10.9617
10.9962
11.0229
11.041
11.0496
11.0418
11.0162
10.9951
10.926
10.9591
1
1
1
1
1
1
1
1
1
1
1
1
1
1
1
1
1
1
1
1
1
1
1
1
1
2.83836
9.05478
10.2133
10.3047
10.3954
10.474
10.5438
10.6038
10.6567
10.7029
10.7416
10.7727
10.7993
10.824
10.8453
10.8584
10.8623
10.852
10.8288
10.7865
10.7412
10.6214
10.5902
1
1
1
1
1
1
1
1
1
1
1
1
1
1
1
1
1
1
1
1
1
1
1
1
1
1.87729
8.31604
10.286
10.2634
10.3497
10.42
10.478
10.5288
10.5735
10.6118
10.6421
10.6632
10.6761
10.6836
10.6878
10.6813
10.6642
10.6294
10.573
10.4751
10.3361
10.1289
10.0766
1
1
1
1
1
1
1
1
1
1
1
1
1
1
1
1
1
1
1
1
1
1
1
1
1
1.11856
7.32338
10.3474
10.243
10.2728
10.3276
10.386
10.4374
10.4795
10.5117
10.5342
10.5444
10.5444
10.5352
10.5193
10.49
10.4462
10.3734
10.2676
10.109
9.92898
9.62057
9.58524
1
1
1
1
1
1
1
1
1
1
1
1
1
1
1
1
1
1
1
1
1
1
1
1
1
1.00159
6.03677
9.98604
10.0426
10.1468
10.2238
10.2845
10.3355
10.3749
10.4032
10.4172
10.4181
10.4068
10.3798
10.3431
10.288
10.2145
10.0994
9.94978
9.70028
9.33984
8.41073
6.36801
1
1
1
1
1
1
1
1
1
1
1
1
1
1
1
1
1
1
1
1
1
1
1
1
1
0.99999
4.58831
9.61829
9.99101
10.0912
10.1472
10.1879
10.2282
10.2614
10.2843
10.2901
10.2824
10.261
10.2166
10.1588
10.0753
9.97039
9.80982
9.59286
9.23505
8.61199
7.62467
5.38822
1
1
1
1
1
1
1
1
1
1
1
1
1
1
1
1
1
1
1
1
1
1
1
1
1
0.999998
3.14665
8.99122
9.94514
10.0248
10.0836
10.1147
10.1365
10.155
10.167
10.1615
10.1431
10.1088
10.0479
9.97016
9.85842
9.71844
9.51587
9.2327
8.80429
8.12882
7.00176
5.08723
1
1
1
1
1
1
1
1
1
1
1
1
1
1
1
1
1
1
1
1
1
1
1
1
1
1
1.84755
8.16244
9.99214
9.95739
10.0012
10.0329
10.048
10.0545
10.0511
10.0342
10.0031
9.9544
9.87889
9.78195
9.64407
9.47021
9.23085
8.90191
8.4188
7.75446
6.58149
5.08341
1
1
1
1
1
1
1
1
1
1
1
1
1
1
1
1
1
1
1
1
1
1
1
1
1
1
1.08346
6.78696
9.96071
9.88792
9.89709
9.93234
9.94605
9.94636
9.92988
9.90546
9.86168
9.79857
9.70791
9.59213
9.43238
9.23159
8.9635
8.60562
8.10761
7.45238
6.37812
5.16313
1
1
1
1
1
1
1
1
1
1
1
1
1
1
1
1
1
1
1
1
1
1
1
1
1
1
1.00049
5.03167
9.43718
9.73769
9.81537
9.83986
9.84126
9.83222
9.80619
9.77266
9.71858
9.64452
9.54037
9.40879
9.23266
9.01181
8.72422
8.34993
7.8577
7.21983
6.28358
5.302
1
1
1
1
1
1
1
1
1
1
1
1
1
1
1
1
1
1
1
1
1
1
1
1
1
1
0.999995
3.15033
8.84153
9.70274
9.73971
9.75082
9.75111
9.73106
9.69267
9.64562
9.57873
9.49327
9.37677
9.23142
9.04203
8.80691
8.50864
8.13201
7.65563
7.04981
6.23823
5.43607
1
1
1
1
1
1
1
1
1
1
1
1
1
1
1
1
1
1
1
1
1
1
1
1
1
1
0.999999
1.58178
7.92105
9.80025
9.68632
9.6604
9.63948
9.60995
9.56569
9.51159
9.43636
9.34248
9.21806
9.06432
8.86742
8.62456
8.32103
7.95008
7.49156
6.9241
6.22543
5.54943
1
1
1
1
1
1
1
1
1
1
1
1
1
1
1
1
1
1
1
1
1
1
1
1
1
1
1
1.03444
6.26981
9.43223
9.47842
9.5113
9.50293
9.47867
9.43425
9.37722
9.29698
9.19667
9.06594
8.90491
8.7034
8.45875
8.1583
7.79391
7.35406
6.83034
6.23208
5.63587
1
1
1
1
1
1
1
1
1
1
1
1
1
1
1
1
1
1
1
1
1
1
1
1
1
1
1
0.999977
4.07259
8.98064
9.4093
9.44243
9.42258
9.39076
9.33747
9.26904
9.17786
9.06722
8.92831
8.76041
8.55594
8.3117
8.01893
7.66494
7.244
6.76481
6.249
5.70886
1
1
1
1
1
1
1
1
1
1
1
1
1
1
1
1
1
1
1
1
1
1
1
1
1
1
1
0.999987
2.04623
8.18785
9.41163
9.36795
9.32449
9.28438
9.22547
9.15185
9.05477
8.9382
8.79585
8.62407
8.41961
8.17782
7.89061
7.55423
7.15562
6.72056
6.2607
5.76465
1
1
1
1
1
1
1
1
1
1
1
1
1
1
1
1
1
1
1
1
1
1
1
1
1
1
1
0.999998
1.0986
6.47974
9.25904
9.23719
9.20332
9.17087
9.11528
9.04173
8.9427
8.82201
8.67644
8.50365
8.30067
8.06064
7.77912
7.45895
7.08795
6.69567
6.27468
5.82689
1
1
1
1
1
1
1
1
1
1
1
1
1
1
1
1
1
1
1
1
1
1
1
1
1
1
1
1
1.00057
3.99573
8.7111
9.12892
9.11567
9.09614
9.03685
8.95422
8.8465
8.71912
8.56803
8.39202
8.19359
7.95556
7.68317
7.37802
7.03284
6.67641
6.28323
5.8756
1
1
1
1
1
1
1
1
1
1
1
1
1
1
1
1
1
1
1
1
1
1
1
1
1
1
1
1
0.999995
1.74413
7.87065
9.24254
9.08967
9.0103
8.93876
8.85063
8.7426
8.6168
8.46651
8.29222
8.09351
7.86365
7.60395
7.31127
6.99102
6.66082
6.29183
5.91943
1
1
1
1
1
1
1
1
1
1
1
1
1
1
1
1
1
1
1
1
1
1
1
1
1
1
1
1
0.999999
1.04771
5.96485
8.87021
8.89061
8.88457
8.82487
8.74292
8.64204
8.52118
8.37382
8.20227
8.00525
7.78137
7.53367
7.25423
6.95479
6.64321
6.29894
5.95073
1
1
1
1
1
1
1
1
1
1
1
1
1
1
1
1
1
1
1
1
1
1
1
1
1
1
1
1
1
1.00004
3.1787
8.21432
8.81899
8.82022
8.76614
8.68047
8.57432
8.44912
8.29835
8.12535
7.93002
7.71082
7.47165
7.2058
6.92266
6.62806
6.30926
5.97946
1
1
1
1
1
1
1
1
1
1
1
1
1
1
1
1
1
1
1
1
1
1
1
1
1
1
1
1
1
0.999998
1.32213
6.8815
8.90695
8.78004
8.69505
8.59894
8.49121
8.36759
8.21892
8.04823
7.85712
7.64548
7.41601
7.16375
6.89327
6.614
6.31644
6.0034
1
1
1
1
1
1
1
1
1
1
1
1
1
1
1
1
1
1
1
1
1
1
1
1
1
1
1
1
1
0.999999
1.00853
4.3874
8.37913
8.60547
8.57575
8.51517
8.42123
8.29964
8.15123
7.98231
7.79506
7.58995
7.36852
7.12669
6.8668
6.60172
6.32122
6.02592
1
1
1
1
1
1
1
1
1
1
1
1
1
1
1
1
1
1
1
1
1
1
1
1
1
1
1
1
1
1
0.999972
1.70255
7.45174
8.75179
8.58415
8.47673
8.36847
8.23644
8.08564
7.91882
7.73517
7.53536
7.32115
7.08947
6.84142
6.58853
6.32396
6.0478
1
1
1
1
1
1
1
1
1
1
1
1
1
1
1
1
1
1
1
1
1
1
1
1
1
1
1
1
1
1
0.999993
1.04075
5.3189
8.38024
8.43426
8.38813
8.28746
8.15849
8.01351
7.8525
7.67447
7.48135
7.27575
7.05541
6.81999
6.57737
6.32698
6.06669
1
1
1
1
1
1
1
1
1
1
1
1
1
1
1
1
1
1
1
1
1
1
1
1
1
1
1
1
1
1
0.999999
1.00004
2.2995
7.63863
8.47711
8.35348
8.23049
8.09897
7.95592
7.79738
7.6229
7.43486
7.23531
7.02337
6.79834
6.56587
6.32881
6.08372
1
1
1
1
1
1
1
1
1
1
1
1
1
1
1
1
1
1
1
1
1
1
1
1
1
1
1
1
1
1
1
1
1.1227
5.75243
8.33927
8.24541
8.1439
8.0211
7.88664
7.73571
7.56868
7.3875
7.19447
6.99022
6.77697
6.55698
6.33205
6.10103
1
1
1
1
1
1
1
1
1
1
1
1
1
1
1
1
1
1
1
1
1
1
1
1
1
1
1
1
1
1
1
1
1.00107
2.65436
7.61182
8.21488
8.10436
7.98596
7.85262
7.70171
7.53592
7.358
7.16961
6.97208
6.76798
6.55661
6.33838
6.11688
1
1
1
1
1
1
1
1
1
1
1
1
1
1
1
1
1
1
1
1
1
1
1
1
1
1
1
1
1
1
1
1
1
1.18632
5.78477
8.17725
8.064
7.94998
7.81135
7.65944
7.49575
7.32241
7.13998
6.94919
6.75209
6.54936
6.34072
6.12844
1
1
1
1
1
1
1
1
1
1
1
1
1
1
1
1
1
1
1
1
1
1
1
1
1
1
1
1
1
1
1
1
1
1.00269
2.64937
7.41034
8.01231
7.89958
7.76861
7.62099
7.46128
7.29306
7.11743
6.93526
6.74689
6.55274
6.35291
6.1475
1
1
1
1
1
1
1
1
1
1
1
1
1
1
1
1
1
1
1
1
1
1
1
1
1
1
1
1
1
1
1
1
1
1
1.18628
5.56586
7.99609
7.88118
7.74374
7.58849
7.42874
7.26521
7.09682
6.92274
6.74196
6.55374
6.35914
6.16081
1
1
1
1
1
1
1
1
1
1
1
1
1
1
1
1
1
1
1
1
1
1
1
1
1
1
1
1
1
1
1
1
1
1
1.0028
2.43099
7.12507
7.82865
7.68282
7.54231
7.39276
7.24006
7.08034
6.91268
6.73773
6.55585
6.36749
6.17625
1
1
1
1
1
1
1
1
1
1
1
1
1
1
1
1
1
1
1
1
1
1
1
1
1
1
1
1
1
1
1
1
1
1
1.00001
1.14248
5.08724
7.74343
7.66417
7.5272
7.37796
7.22798
7.07002
6.90454
6.73279
6.55653
6.37566
6.19043
1
1
1
1
1
1
1
1
1
1
1
1
1
1
1
1
1
1
1
1
1
1
1
1
1
1
1
1
1
1
1
1
1
1
1
1.00183
2.11794
6.6815
7.63832
7.4762
7.35253
7.20862
7.05514
6.89489
6.72876
6.55873
6.38584
6.20856
1
1
1
1
1
1
1
1
1
1
1
1
1
1
1
1
1
1
1
1
1
1
1
1
1
1
1
1
1
1
1
1
1
1
1
1
1.08835
4.24486
7.38861
7.46398
7.33938
7.19842
7.04889
6.89268
6.73187
6.56661
6.39814
6.22807
1
1
1
1
1
1
1
1
1
1
1
1
1
1
1
1
1
1
1
1
1
1
1
1
1
1
1
1
1
1
1
1
1
1
1
1
1.00096
1.69493
6.00919
7.50308
7.33065
7.19286
7.04611
6.89508
6.74064
6.58066
6.41449
6.2471
1
1
1
1
1
1
1
1
1
1
1
1
1
1
1
1
1
1
1
1
1
1
1
1
1
1
1
1
1
1
1
1
1
1
1
1
1
1.03637
3.15246
6.88428
7.30781
7.18065
7.04287
6.89657
6.74463
6.58841
6.42599
6.25871
1
1
1
1
1
1
1
1
1
1
1
1
1
1
1
1
1
1
1
1
1
1
1
1
1
1
1
1
1
1
1
1
1
1
1
1
1
1.00033
1.31394
5.04949
7.32258
7.19701
7.05855
6.91044
6.75794
6.60197
6.4429
6.27817
1
1
1
1
1
1
1
1
1
1
1
1
1
1
1
1
1
1
1
1
1
1
1
1
1
1
1
1
1
1
1
1
1
1
1
1
1
1
1.00862
2.21391
6.28938
7.16523
7.03094
6.89414
6.74739
6.59575
6.44351
6.28892
1
1
1
1
1
1
1
1
1
1
1
1
1
1
1
1
1
1
1
1
1
1
1
1
1
1
1
1
1
1
1
1
1
1
1
1
1
1
1.00005
1.10429
3.7626
6.81905
7.04033
6.9129
6.76826
6.61969
6.46895
6.3173
1
1
1
1
1
1
1
1
1
1
1
1
1
1
1
1
1
1
1
1
1
1
1
1
1
1
1
1
1
1
1
1
1
1
1
1
1
1
1
1.00156
1.51916
5.22974
7.03179
6.92755
6.78028
6.63508
6.48645
6.33558
1
1
1
1
1
1
1
1
1
1
1
1
1
1
1
1
1
1
1
1
1
1
1
1
1
1
1
1
1
1
1
1
1
1
1
1
1
1
1
1.00001
1.02187
2.43098
6.17013
6.89868
6.77584
6.63125
6.48904
6.34438
1
1
1
1
1
1
1
1
1
1
1
1
1
1
1
1
1
1
1
1
1
1
1
1
1
1
1
1
1
1
1
1
1
1
1
1
1
1
1
1
1.00019
1.14394
3.76556
6.57367
6.79456
6.66258
6.51682
6.3745
1
1
1
1
1
1
1
1
1
1
1
1
1
1
1
1
1
1
1
1
1
1
1
1
1
1
1
1
1
1
1
1
1
1
1
1
1
1
1
1
1
1.00272
1.53079
4.97471
6.72769
6.69074
6.54482
6.40042
1
1
1
1
1
1
1
1
1
1
1
1
1
1
1
1
1
1
1
1
1
1
1
1
1
1
1
1
1
1
1
1
1
1
1
1
1
1
1
1
1
1.00001
1.0234
2.27475
5.78779
6.65864
6.55964
6.41479
1
1
1
1
1
1
1
1
1
1
1
1
1
1
1
1
1
1
1
1
1
1
1
1
1
1
1
1
1
1
1
1
1
1
1
1
1
1
1
1
1
1
1.00023
1.11716
3.29639
6.24012
6.58172
6.4492
1
1
1
1
1
1
1
1
1
1
1
1
1
1
1
1
1
1
1
1
1
1
1
1
1
1
1
1
1
1
1
1
1
1
1
1
1
1
1
1
1
1
1
1.00211
1.37267
4.37542
6.38449
6.47588
1
1
1
1
1
1
1
1
1
1
1
1
1
1
1
1
1
1
1
1
1
1
1
1
1
1
1
1
1
1
1
1
1
1
1
1
1
1
1
1
1
1
1
1.00001
1.01329
1.87225
5.14772
6.40572
1
1
1
1
1
1
1
1
1
1
1
1
1
1
1
1
1
1
1
1
1
1
1
1
1
1
1
1
1
1
1
1
1
1
1
1
1
1
1
1
1
1
1
1
1.00011
1.05884
2.56972
5.66749
1
1
1
1
1
1
1
1
1
1
1
1
1
1
1
1
1
1
1
1
1
1
1
1
1
1
1
1
1
1
1
1
1
1
1
1
1
1
1
1
1
1
1
1
1
1.00085
1.17987
3.37803
1
1
1
1
1
1
1
1
1
1
1
1
1
1
1
1
1
1
1
1
1
1
1
1
1
1
1
1
1
1
1
1
1
1
1
1
1
1
1
1
1
1
1
1
1
1
1.00426
1.41923
1
1
1
1
1
1
1
1
1
1
1
1
1
1
1
1
1
1
1
1
1
1
1
1
1
1
1
1
1
1
1
1
1
1
1
1
1
1
1
1
1
1
1
1
1
1
1.00003
1.0169
1
1
1
1
1
1
1
1
1
1
1
1
1
1
1
1
1
1
1
1
1
1
1
1
1
1
1
1
1
1
1
1
1
1
1
1
1
1
1
1
1
1
1
1
1
1
1
1.00016
1
1
1
1
1
1
1
1
1
1
1
1
1
1
1
1
1
1
1
1
1
1
1
1
1
1
1
1
1
1
1
1
1
1
1
1
1
1
1
1
1
1
1
1
1
1
1
1
1
1
1
1
1
1
1
1
1
1
1
1
1
1
1
1
1
1
1
1
1
1
1
1
1
1
1
1
1
1
1
1
1
1
1
1
1
1
1
1
1
1
1
1
1
1
1
1
1
1
1
1
1
1
1
1
1
1
1
1
1
1
1
1
1
1
1
1
1
1
1
1
1
1
1
1
1
1
1
1
1
1
1
1
1
1
1
1
1
1
1
1
1
1
1
1
1
1
1
1
1
1
1
1
1
1
1
1
1
1
1
1
1
1
1
1
1
1
1
1
1
1
1
1
1
1
1
1
1
1
1
1
1
1
1
1
1
1
1
1
1
1
1
1
1
1
1
1
1
1
1
1
1
1
1
1
1
1
1
1
1
1
1
1
1
1
1
1
1
1
1
1
1
1
1
1
1
1
1
1
1
1
1
1
1
1
1
1
1
1
1
1
1
1
1
1
1
1
1
1
1
1
1
1
1
1
1
1
1
1
1
1
1
1
1
1
1
1
1
1
1
1
1
1
1
1
1
1
1
1
1
1
1
1
1
1
1
1
1
1
1
1
1
1
1
1
1
1
1
1
1
1
1
1
1
1
1
1
1
1
1
1
1
1
1
1
1
1
1
1
1
1
1
1
1
1
1
1
1
1
1
1
1
1
1
1
1
1
1
1
1
1
1
1
1
1
1
1
1
1
1
1
1
1
1
1
1
1
1
1
1
1
1
1
1
1
1
1
1
1
1
1
1
1
1
1
1
1
1
1
1
1
1
1
1
1
1
1
1
1
1
1
1
1
1
1
1
1
1
1
1
1
1
1
1
1
1
1
1
1
1
1
1
1
1
1
1
1
1
1
1
1
1
1
1
1
1
1
1
1
1
1
1
1
1
1
1
1
1
1
1
1
1
1
1
1
1
1
1
1
1
1
1
1
1
1
1
1
1
1
1
1
1
1
1
1
1
1
1
1
1
1
1
1
1
1
1
1
1
1
1
1
1
1
1
1
1
1
1
1
1
1
1
1
1
1
1
1
1
1
1
1
1
1
1
1
1
1
1
1
1
1
1
1
1
1
1
1
1
1
1
1
1
1
1
1
1
1
1
1
1
1
1
1
1
1
1
1
1
1
1
1
1
1
1
1
1
1
1
1
1
1
1
1
1
1
1
1
1
1
1
1
1
1
1
1
1
1
1
1
1
1
1
1
1
1
1
1
1
1
1
1
1
1
1
1
1
1
1
1
1
1
1
1
1
1
1
1
1
1
1
1
1
1
1
1
1
1
1
1
1
1
1
1
1
1
1
1
1
1
1
1
1
1
1
1
1
1
1
1
1
1
1
1
1
1
1
1
1
1
1
1
1
1
1
1
1
1
1
1
1
1
1
1
1
1
1
1
1
1
1
1
1
1
1
1
1
1
1
1
1
1
1
1
1
1
1
1
1
1
1
1
1
1
1
1
1
1
1
1
1
1
1
1
1
1
1
1
1
1
1
1
1
1
1
1
1
1
1
1
1
1
1
1
1
1
1
1
1
1
1
1
1
1
1
1
1
1
1
1
1
1
1
1
1
1
1
1
1
1
1
1
1
1
1
1
1
1
1
1
1
1
1
1
1
1
1
1
1
1
1
1
1
1
1
1
1
1
1
1
1.1726
0.181426
0.0766024
0.0301793
0.0185284
0.0269581
0.0677585
0.150767
0.235739
0.302382
0.34593
0.388741
0.469783
0.559855
0.602893
0.652408
0.722583
0.827863
0.930167
0.967425
0.981924
1.00381
1.01411
1.03586
1.04352
1.02944
1.03482
1.06269
1.10912
1.15676
1.1726
1.18606
1.19879
1.19684
1.19896
1.19762
1.19823
1.20424
1.21359
1.22499
1.23943
1.25508
1.26531
1.27133
1.27732
1.28567
1.30097
1.30926
1.31267
1.31363
1.30976
1.30756
1.30519
1.3029
1.30397
1.31174
1.32357
1.33311
1.33922
1.33853
1.32764
1.31662
1.31253
1.31279
1.31991
1.32957
1.33103
1.32783
1.32314
1.31774
1.31513
1.31982
1.34883
2.21442
4.62841
6.00806
6.31306
6.47439
6.54751
6.50613
6.46167
6.422
6.3574
6.28438
6.21835
6.16235
6.11897
6.03967
5.93588
5.84149
5.76911
5.72578
5.67441
5.61127
5.53303
5.44965
5.379
5.32104
5.27773
5.24333
5.21196
5.17979
5.13224
5.06473
4.99256
4.92111
4.86202
4.82986
4.80993
4.78262
4.74548
4.69845
4.64417
4.58942
4.53878
4.49719
4.45956
4.41636
4.36896
4.31369
4.25018
4.18793
4.13366
4.08806
4.05955
4.04486
4.02884
4.00918
3.98606
3.95805
3.92623
3.88688
3.84345
3.80176
3.76138
3.72175
3.68346
3.64632
3.60971
3.57256
3.53324
3.49107
3.44909
3.41179
3.37929
3.35538
3.3434
3.33706
3.3296
3.31806
3.30062
3.27824
3.24405
3.18699
3.11567
3.04966
3.00085
2.97003
2.94905
2.94231
2.94738
2.94818
2.93859
2.92275
2.90454
2.87821
2.83609
2.79043
2.75779
2.73431
2.71042
2.68139
2.64866
2.61753
2.59367
2.57621
2.56514
2.56266
2.56262
2.55917
2.55291
2.54197
2.50545
2.43834
2.38227
2.34869
2.32787
2.31292
2.30718
2.30493
2.30169
2.27845
2.06795
0.921415
0.518957
0.373299
0.20979
0.128632
0.123349
0.138885
0.159613
0.185643
0.210468
0.236519
0.268224
0.343775
0.422712
0.484306
0.551865
0.60908
0.698123
0.775394
0.836669
0.897847
0.938352
0.966227
0.98879
1.0248
1.04873
1.07642
1.10872
1.12849
1.14253
1.1513
1.16029
1.1645
1.16864
1.18019
1.19524
1.21412
1.23327
1.25078
1.26157
1.26782
1.2743
1.28208
1.28801
1.29194
1.29293
1.2904
1.28971
1.29635
1.2996
1.30098
1.30454
1.31222
1.32639
1.33498
1.33767
1.33624
1.32384
1.30946
1.30317
1.30256
1.30923
1.3226
1.33047
1.33083
1.32375
1.31675
1.31615
1.32413
1.33326
1.33419
1.35317
1.68518
3.94361
6.39937
6.61095
6.49441
6.46563
6.42535
6.43248
6.41608
6.35835
6.29092
6.22267
6.16507
6.11351
6.02751
5.93163
5.84437
5.77754
5.73383
5.6828
5.61275
5.53295
5.44728
5.37511
5.31649
5.277
5.25414
5.22791
5.18437
5.12716
5.06207
4.99226
4.92807
4.87823
4.84123
4.81444
4.78328
4.74011
4.68755
4.6313
4.58234
4.5381
4.49527
4.45456
4.41189
4.36267
4.30708
4.25112
4.2011
4.1586
4.11861
4.08153
4.05118
4.02598
4.0016
3.97215
3.93743
3.89745
3.85693
3.82005
3.78589
3.75197
3.71842
3.68806
3.65816
3.62285
3.57925
3.53221
3.489
3.45136
3.41714
3.38803
3.36741
3.35253
3.3414
3.32728
3.30617
3.27665
3.23532
3.18803
3.14756
3.11726
3.08672
3.04486
3.00008
2.96825
2.94989
2.93598
2.9252
2.91635
2.89985
2.87891
2.85713
2.83684
2.81185
2.76526
2.70878
2.67188
2.65078
2.63712
2.62649
2.61127
2.58741
2.57206
2.5656
2.56406
2.55735
2.53467
2.48696
2.44146
2.41864
2.40426
2.37904
2.33946
2.3177
2.31017
2.30423
2.29407
2.25823
2.91573
1.7232
1.05557
0.827899
0.58074
0.366407
0.345078
0.339969
0.303505
0.278779
0.28602
0.291946
0.296311
0.313229
0.34419
0.376356
0.404421
0.423433
0.47749
0.583608
0.677075
0.754425
0.822165
0.874525
0.93198
1.00458
1.06447
1.0992
1.1136
1.12799
1.14276
1.14014
1.14846
1.16386
1.19132
1.22894
1.25608
1.26555
1.26771
1.26641
1.26167
1.2583
1.25595
1.25418
1.25608
1.26455
1.27341
1.28225
1.29254
1.30245
1.31326
1.32711
1.33788
1.34342
1.34371
1.33564
1.31415
1.29627
1.29062
1.29477
1.31477
1.3356
1.34387
1.34569
1.3368
1.32335
1.31974
1.32222
1.33409
1.33695
1.33096
1.34224
1.5403
2.1727
3.22633
5.17103
6.34403
6.60127
6.5513
6.43364
6.40425
6.35048
6.29521
6.24354
6.18048
6.1204
6.06801
6.00306
5.94435
5.89475
5.83654
5.75827
5.6724
5.57603
5.49185
5.43217
5.39505
5.37548
5.34843
5.30563
5.2401
5.1507
5.0773
5.02334
4.97787
4.94748
4.91723
4.87576
4.82772
4.77081
4.70594
4.64885
4.60541
4.56699
4.52644
4.48285
4.43583
4.38425
4.33153
4.28705
4.25214
4.22293
4.19284
4.1583
4.12015
4.08157
4.04586
4.01168
3.97184
3.92393
3.87748
3.8382
3.80506
3.77578
3.7476
3.72049
3.69379
3.66114
3.61885
3.57197
3.52651
3.4882
3.46004
3.43891
3.42123
3.40262
3.38087
3.35522
3.32226
3.28529
3.25025
3.21732
3.18693
3.15885
3.13033
3.09652
3.06447
3.03625
3.00796
2.97992
2.95806
2.94081
2.92703
2.91249
2.89246
2.86578
2.82942
2.78816
2.7484
2.7209
2.70071
2.68084
2.66208
2.64669
2.63214
2.62119
2.61227
2.59818
2.57465
2.53897
2.50089
2.47084
2.449
2.43109
2.41113
2.38914
2.3738
2.35833
2.33538
2.30974
2.28786
2.25274
3.53484
2.40675
1.6852
1.32894
1.0305
0.735555
0.647731
0.596616
0.519308
0.458974
0.45232
0.438285
0.408116
0.392346
0.396025
0.409541
0.426365
0.427712
0.41693
0.425901
0.454702
0.510831
0.605864
0.703822
0.804987
0.905482
0.987922
1.02569
1.03811
1.06735
1.09419
1.10114
1.11768
1.15969
1.21337
1.24117
1.25047
1.25318
1.24632
1.23684
1.2354
1.23798
1.24171
1.24747
1.25442
1.26492
1.2771
1.2876
1.29414
1.29935
1.30756
1.32027
1.32649
1.32718
1.32291
1.30818
1.29469
1.29095
1.29557
1.31441
1.34035
1.34827
1.34546
1.33619
1.32192
1.31374
1.31479
1.32178
1.3264
1.32379
1.34384
1.53635
2.24077
3.02683
3.17169
3.7133
5.0276
6.07815
6.46939
6.52891
6.45484
6.34574
6.27052
6.22266
6.17581
6.12446
6.08046
6.03716
5.99447
5.92972
5.84173
5.73288
5.62203
5.54435
5.48967
5.46885
5.4656
5.42725
5.3626
5.27547
5.1719
5.09496
5.04805
5.01296
4.99831
4.98608
4.94637
4.89132
4.81184
4.72566
4.66365
4.6242
4.58982
4.55374
4.51367
4.46741
4.41316
4.35941
4.31863
4.28864
4.26475
4.2469
4.2245
4.19624
4.15971
4.10938
4.0477
3.98749
3.93664
3.89113
3.84908
3.81172
3.77779
3.74737
3.72321
3.70714
3.68425
3.64993
3.6109
3.57613
3.54241
3.50832
3.47911
3.45726
3.43712
3.41454
3.38433
3.33965
3.29014
3.24799
3.21562
3.19095
3.16932
3.14643
3.12129
3.10234
3.08774
3.06974
3.04368
3.0055
2.95778
2.91664
2.89073
2.87565
2.85973
2.83736
2.80688
2.77693
2.76145
2.74429
2.71543
2.68214
2.65752
2.64157
2.63227
2.62915
2.61745
2.59538
2.55457
2.50539
2.47191
2.45278
2.43763
2.42193
2.4085
2.40227
2.39261
2.37349
2.33651
2.29062
2.26469
2.23915
3.96071
3.03442
2.27139
1.79353
1.49735
1.21094
1.03589
0.923752
0.788028
0.678616
0.625861
0.598566
0.566571
0.547897
0.534366
0.525356
0.513527
0.494389
0.469507
0.457685
0.460283
0.465099
0.479791
0.510223
0.564926
0.645255
0.736522
0.819001
0.873752
0.941531
1.01205
1.04838
1.08624
1.13774
1.19095
1.21228
1.21818
1.22043
1.21215
1.20611
1.21521
1.23577
1.26027
1.27861
1.28489
1.28507
1.27988
1.27918
1.28284
1.28685
1.29216
1.2996
1.30262
1.30323
1.3019
1.30071
1.30357
1.31158
1.32641
1.34306
1.34627
1.34197
1.33372
1.31899
1.30569
1.30514
1.30722
1.31278
1.31728
1.34874
1.60867
2.28573
3.04101
3.34351
3.25376
3.25125
3.56859
4.61482
5.83633
6.45038
6.45459
6.36888
6.29661
6.25647
6.21912
6.16365
6.10312
6.04141
5.97083
5.89123
5.80632
5.71206
5.62227
5.56146
5.52465
5.50274
5.46275
5.40142
5.32581
5.22237
5.13111
5.08293
5.05139
5.03894
5.03258
4.99493
4.94307
4.87769
4.78327
4.69176
4.645
4.61291
4.58332
4.55042
4.51285
4.46652
4.40372
4.34838
4.31757
4.29331
4.27813
4.269
4.2555
4.22868
4.19026
4.12911
4.03874
3.95524
3.9013
3.86402
3.83153
3.8028
3.77593
3.74993
3.72287
3.69096
3.65974
3.63564
3.61098
3.58558
3.56444
3.54251
3.51785
3.48839
3.45363
3.41235
3.36461
3.31571
3.27145
3.23206
3.19789
3.17149
3.15295
3.1389
3.12906
3.12103
3.10977
3.0921
3.06705
3.02876
2.97409
2.91891
2.87668
2.84412
2.82256
2.80597
2.79456
2.78503
2.77225
2.75395
2.72391
2.68927
2.6669
2.65451
2.64768
2.63649
2.61557
2.57941
2.53111
2.48862
2.45853
2.44108
2.43064
2.42395
2.42377
2.41865
2.40434
2.37967
2.33627
2.28414
2.25365
2.23244
4.32106
3.51231
2.84455
2.32285
1.93357
1.6346
1.41495
1.24967
1.10254
0.967342
0.834831
0.762849
0.722355
0.684086
0.663371
0.653881
0.636822
0.608929
0.571837
0.549426
0.534553
0.526032
0.526426
0.533485
0.539121
0.544714
0.555097
0.578063
0.618418
0.679659
0.783086
0.898848
0.985133
1.08065
1.13849
1.15886
1.16426
1.16195
1.16082
1.16738
1.18888
1.23235
1.26931
1.28413
1.28705
1.28678
1.28121
1.2734
1.27162
1.27172
1.27342
1.28719
1.29244
1.29332
1.29711
1.3029
1.30862
1.31614
1.32627
1.33511
1.33649
1.33277
1.31926
1.30448
1.30237
1.30299
1.30815
1.3151
1.34799
1.63816
2.38587
3.10868
3.32351
3.2894
3.26902
3.25618
3.26673
3.46885
4.33914
5.69774
6.19348
6.32816
6.32415
6.28716
6.21756
6.15085
6.07497
5.99235
5.92551
5.86791
5.8026
5.73433
5.6624
5.59196
5.53145
5.47907
5.42506
5.35709
5.27731
5.19676
5.13514
5.09642
5.07354
5.05758
5.0218
4.97471
4.92206
4.85691
4.77639
4.69436
4.6422
4.60803
4.57853
4.54997
4.51564
4.47476
4.41713
4.35566
4.31481
4.28561
4.27147
4.27479
4.25895
4.22587
4.18421
4.12312
4.03281
3.94
3.88703
3.85505
3.8298
3.81039
3.78908
3.76183
3.72395
3.6715
3.63057
3.6057
3.58682
3.5728
3.56884
3.56034
3.53942
3.50787
3.45594
3.39116
3.33654
3.29625
3.26073
3.2286
3.19887
3.17157
3.14889
3.1326
3.12356
3.12646
3.11713
3.09634
3.06989
3.03507
2.99317
2.9376
2.87478
2.82764
2.79892
2.78271
2.77298
2.77358
2.76442
2.74718
2.73004
2.71364
2.6961
2.67506
2.64825
2.61629
2.58475
2.54869
2.51372
2.48332
2.46205
2.44722
2.43611
2.42784
2.42093
2.41158
2.40033
2.37839
2.33605
2.28509
2.25743
2.23594
4.60092
3.88008
3.28888
2.77356
2.33479
2.04714
1.78798
1.56079
1.37208
1.22453
1.08327
0.977395
0.926049
0.866711
0.812942
0.796579
0.768782
0.733449
0.689704
0.652913
0.629652
0.61124
0.607068
0.600715
0.591909
0.584354
0.572366
0.555153
0.551787
0.558096
0.585186
0.649343
0.73471
0.839146
0.938429
1.01725
1.07559
1.09382
1.11728
1.13375
1.15471
1.21231
1.25549
1.26745
1.274
1.27679
1.27175
1.2571
1.25509
1.26149
1.27973
1.29934
1.30373
1.30208
1.29675
1.29788
1.30125
1.30687
1.31507
1.31781
1.31835
1.31616
1.31124
1.30872
1.31035
1.31534
1.32185
1.36063
1.63342
2.47653
3.15266
3.34039
3.30915
3.25852
3.2586
3.28079
3.28952
3.27414
3.38211
4.10461
5.27217
6.03588
6.29866
6.26712
6.18256
6.10057
6.02499
5.95162
5.89049
5.83696
5.7845
5.72949
5.66628
5.59181
5.50966
5.43567
5.3689
5.30859
5.25308
5.2054
5.16603
5.1207
5.07215
5.02688
4.98435
4.94009
4.89218
4.83955
4.78411
4.72626
4.66761
4.62552
4.59501
4.56488
4.5296
4.48689
4.42915
4.36742
4.31936
4.28417
4.25451
4.23134
4.219
4.19489
4.15729
4.10033
4.02501
3.9549
3.90654
3.8762
3.8556
3.83632
3.81
3.77567
3.72314
3.65971
3.61395
3.58986
3.57587
3.58231
3.59426
3.57812
3.55168
3.51188
3.44453
3.36657
3.31363
3.27998
3.2558
3.2343
3.21183
3.18707
3.16215
3.14185
3.12679
3.10851
3.08729
3.06799
3.04866
3.02675
2.99686
2.95691
2.89589
2.82904
2.79043
2.77188
2.75997
2.75265
2.75536
2.75785
2.75275
2.74124
2.72231
2.68732
2.6358
2.58284
2.5418
2.51541
2.49718
2.48553
2.47507
2.46426
2.45245
2.43871
2.42365
2.40803
2.38346
2.35239
2.32079
2.29367
2.27555
2.24786
4.82429
4.18931
3.65171
3.14187
2.7117
2.40148
2.12121
1.85953
1.66005
1.47994
1.31314
1.18485
1.12499
1.06692
1.00707
0.963077
0.915038
0.849047
0.793098
0.753112
0.72456
0.710578
0.703627
0.691425
0.680881
0.66759
0.644285
0.60781
0.588986
0.588158
0.591758
0.60064
0.616277
0.639855
0.676858
0.723222
0.791391
0.877997
0.96498
1.06531
1.11649
1.17256
1.21852
1.22862
1.23566
1.23831
1.22958
1.22312
1.22994
1.25342
1.29049
1.31274
1.31575
1.31379
1.30197
1.28986
1.28861
1.28897
1.29059
1.2957
1.3044
1.30891
1.31213
1.3172
1.31926
1.32256
1.3619
1.67059
2.42404
3.22282
3.35217
3.3056
3.2723
3.25903
3.28301
3.30553
3.29123
3.26066
3.21642
3.27571
3.78655
4.89428
5.93032
6.14256
6.15152
6.06461
6.00776
5.93841
5.85683
5.7981
5.74573
5.69848
5.6405
5.57543
5.49448
5.40789
5.34206
5.28732
5.24527
5.22086
5.18389
5.13366
5.07041
5.00486
4.94869
4.90503
4.86588
4.82857
4.79573
4.75957
4.71357
4.65592
4.60493
4.56468
4.52456
4.47993
4.43234
4.38723
4.34121
4.29198
4.24415
4.20389
4.17147
4.13957
4.10187
4.05693
4.01163
3.97782
3.94642
3.91462
3.88428
3.8537
3.81809
3.77196
3.71668
3.66243
3.62182
3.59295
3.57255
3.55774
3.55457
3.54965
3.52854
3.49218
3.42753
3.35293
3.30356
3.27636
3.25592
3.23875
3.22437
3.20881
3.18871
3.16138
3.12098
3.07578
3.0491
3.03294
3.01981
3.00613
2.98974
2.96335
2.922
2.86483
2.80784
2.77459
2.7569
2.74663
2.75603
2.7777
2.76967
2.75136
2.72552
2.68094
2.61764
2.56147
2.525
2.50149
2.48905
2.4807
2.47748
2.47545
2.46637
2.45288
2.43209
2.39566
2.35674
2.32673
2.30775
2.29792
2.28834
2.26251
4.9935
4.44437
3.93574
3.43811
3.05623
2.71793
2.41473
2.14191
1.91815
1.73255
1.55969
1.43081
1.34157
1.24904
1.17685
1.12178
1.06345
0.987295
0.919997
0.876738
0.834249
0.818311
0.809416
0.791561
0.773564
0.752101
0.718769
0.672447
0.652557
0.649179
0.644227
0.642037
0.641091
0.640591
0.634034
0.622765
0.62831
0.654937
0.710959
0.813537
0.943192
1.05237
1.15496
1.19206
1.20313
1.20124
1.1833
1.18179
1.20127
1.24489
1.29335
1.30967
1.31044
1.30579
1.29391
1.27997
1.27395
1.27222
1.27423
1.28877
1.30474
1.3132
1.31469
1.31439
1.31587
1.34655
1.66977
2.44531
3.16667
3.34047
3.32945
3.3089
3.29658
3.28663
3.28895
3.28257
3.25952
3.23116
3.19729
3.16357
3.19487
3.5565
4.59807
5.60225
5.99
6.02474
6.02493
5.94538
5.84152
5.76576
5.70816
5.6585
5.61407
5.55953
5.49136
5.40411
5.33684
5.2882
5.25738
5.2326
5.18874
5.13759
5.07246
4.99738
4.93504
4.88864
4.85392
4.83353
4.81529
4.78132
4.73667
4.67813
4.611
4.55565
4.51009
4.46946
4.43371
4.39892
4.3597
4.30977
4.24802
4.18517
4.12725
4.08247
4.04818
4.02334
4.0081
3.99587
3.97382
3.94321
3.90037
3.85091
3.80498
3.7605
3.71921
3.68863
3.65833
3.62288
3.58382
3.54888
3.52255
3.5009
3.47648
3.44373
3.40142
3.35592
3.32152
3.29462
3.27275
3.25637
3.24304
3.22597
3.20269
3.1644
3.10762
3.05529
3.02484
3.00716
2.99197
2.97778
2.96299
2.94765
2.92811
2.89855
2.85782
2.80969
2.77367
2.75606
2.74419
2.74028
2.73723
2.72343
2.70015
2.65898
2.60451
2.55764
2.52433
2.50494
2.49423
2.49132
2.49818
2.49278
2.47978
2.46053
2.4236
2.37537
2.33804
2.31722
2.30804
2.29991
2.29168
2.26855
5.14984
4.65287
4.15746
3.71552
3.34251
2.99237
2.66654
2.41743
2.18365
1.98246
1.80136
1.66228
1.55117
1.45479
1.36232
1.28149
1.19771
1.10461
1.04064
1.0002
0.960803
0.938335
0.919604
0.892505
0.861453
0.832339
0.794442
0.746606
0.728192
0.723088
0.713159
0.708106
0.704009
0.692158
0.670667
0.642581
0.631739
0.633615
0.640314
0.661925
0.711202
0.776549
0.858986
0.936377
1.00256
1.07464
1.11665
1.14611
1.19283
1.24823
1.2827
1.28659
1.28345
1.27472
1.26375
1.25493
1.2584
1.26812
1.28462
1.30862
1.32051
1.32259
1.31746
1.30583
1.33976
1.63575
2.49455
3.05721
3.3047
3.36168
3.35134
3.33217
3.29534
3.27495
3.26086
3.2545
3.24112
3.21745
3.18895
3.15459
3.13035
3.14502
3.37225
4.19091
5.21554
5.79717
5.97954
5.94954
5.8564
5.75095
5.68423
5.63124
5.59219
5.54392
5.48796
5.4179
5.35268
5.30317
5.26169
5.22024
5.17617
5.12973
5.07756
5.01623
4.9513
4.89422
4.84979
4.81329
4.77981
4.74966
4.71827
4.6757
4.61411
4.54553
4.49694
4.46094
4.42985
4.40112
4.36702
4.32517
4.26366
4.1835
4.11098
4.05742
4.02595
4.00767
4.01464
4.01031
3.98473
3.95068
3.89551
3.83021
3.78139
3.74922
3.72708
3.71009
3.68718
3.65606
3.61135
3.55423
3.49871
3.45075
3.41403
3.38774
3.3717
3.36063
3.34353
3.32578
3.30583
3.28196
3.25424
3.22334
3.18806
3.14525
3.09492
3.04887
3.01328
2.98562
2.96702
2.95162
2.94003
2.93245
2.92339
2.90854
2.8908
2.86403
2.82426
2.77928
2.74375
2.7187
2.69918
2.67789
2.65133
2.62145
2.59341
2.57043
2.55307
2.53601
2.51753
2.49911
2.48136
2.47031
2.45898
2.43831
2.40231
2.36329
2.33651
2.3227