/*--------------------------------*- C++ -*----------------------------------*\
  =========                 |
  \\      /  F ield         | OpenFOAM: The Open Source CFD Toolbox
   \\    /   O peration     | Website:  https://openfoam.org
    \\  /    A nd           | Version:  10
     \\/     M anipulation  |
\*---------------------------------------------------------------------------*/
FoamFile
{
    format      ascii;
    class       volScalarField;
    location    "2.5";
    object      T;
}
// * * * * * * * * * * * * * * * * * * * * * * * * * * * * * * * * * * * * * //

dimensions      [0 0 0 1 0 0 0];

internalField   nonuniform List<scalar> 
16128
(
1
1
1
1
1
1
1
1
1
1
1
1
1
1
1
1
1
1
1
1
1
1
1
1
1.71354
2.62856
2.69806
2.70859
2.72176
2.73461
2.74654
2.75609
2.76255
2.76617
2.76823
2.77038
2.77402
2.77987
2.78719
2.79406
2.79893
2.80173
2.80375
2.80644
2.81187
2.81908
2.82491
2.82822
1
1
1
1
1
1
1
1
1
1
1
1
1
1
1
1
1
1
1
1
1
1
1
1
1.70109
2.6239
2.6976
2.70862
2.72174
2.73443
2.74623
2.75568
2.76207
2.76563
2.76767
2.76982
2.77348
2.77932
2.78661
2.79343
2.79825
2.80101
2.803
2.80566
2.81101
2.81811
2.82388
2.82736
1
1
1
1
1
1
1
1
1
1
1
1
1
1
1
1
1
1
1
1
1
1
1
1
1.66633
2.61319
2.69545
2.70714
2.72059
2.73331
2.74512
2.75456
2.76094
2.7645
2.76659
2.76881
2.77252
2.7784
2.7857
2.79253
2.79731
2.8
2.80193
2.80452
2.8097
2.81663
2.82231
2.82605
1
1
1
1
1
1
1
1
1
1
1
1
1
1
1
1
1
1
1
1
1
1
1
1
1.60936
2.5933
2.69202
2.7044
2.71826
2.73106
2.74291
2.75241
2.75888
2.76255
2.76477
2.76709
2.77088
2.77678
2.78408
2.79089
2.79564
2.79829
2.8002
2.80283
2.80789
2.81465
2.82032
2.82408
1
1
1
1
1
1
1
1
1
1
1
1
1
1
1
1
1
1
1
1
1
1
1
1
1.53883
2.56906
2.68931
2.70112
2.71482
2.72747
2.73931
2.74893
2.75561
2.75955
2.76202
2.76457
2.76851
2.77449
2.78183
2.78867
2.79344
2.79606
2.79798
2.80072
2.80563
2.81202
2.81772
2.82171
1
1
1
1
1
1
1
1
1
1
1
1
1
1
1
1
1
1
1
1
1
1
1
1
1.45381
2.538
2.68875
2.69838
2.71121
2.72332
2.73497
2.74465
2.75162
2.75592
2.75871
2.76148
2.76553
2.7715
2.77876
2.78555
2.7903
2.79299
2.79507
2.79819
2.80308
2.80874
2.81328
2.81853
1
1
1
1
1
1
1
1
1
1
1
1
1
1
1
1
1
1
1
1
1
1
1
1
1.35338
2.49529
2.68934
2.69539
2.70709
2.71836
2.7297
2.73952
2.74694
2.75174
2.75486
2.75778
2.76185
2.76774
2.77489
2.78164
2.78643
2.78922
2.79139
2.79488
2.80032
2.80603
2.80785
2.81312
1
1
1
1
1
1
1
1
1
1
1
1
1
1
1
1
1
1
1
1
1
1
1
1
1.23039
2.43252
2.68875
2.69154
2.70224
2.71242
2.72337
2.73345
2.74151
2.74696
2.75049
2.75353
2.75753
2.76325
2.77026
2.77698
2.78189
2.78479
2.78698
2.79052
2.79618
2.80188
2.80193
2.80716
1
1
1
1
1
1
1
1
1
1
1
1
1
1
1
1
1
1
1
1
1
1
1
1
1.09957
2.36329
2.68974
2.68908
2.69732
2.70594
2.71627
2.72659
2.73529
2.74138
2.74527
2.7484
2.75225
2.75771
2.76449
2.77116
2.77616
2.77914
2.78129
2.78477
2.79054
2.79626
2.79527
2.80116
1
1
1
1
1
1
1
1
1
1
1
1
1
1
1
1
1
1
1
1
1
1
1
1
1.00439
2.28379
2.68529
2.68617
2.69263
2.70072
2.71032
2.72009
2.72868
2.73509
2.73935
2.74261
2.74629
2.7514
2.75784
2.76435
2.76933
2.77231
2.77443
2.77791
2.7836
2.78893
2.78811
2.7925
1
1
1
1
1
1
1
1
1
1
1
1
1
1
1
1
1
1
1
1
1
1
1
1
1.00002
2.18113
2.67939
2.68616
2.69267
2.7005
2.70874
2.71704
2.7243
2.72972
2.73341
2.73633
2.7397
2.74436
2.75031
2.75644
2.7612
2.76409
2.76611
2.76884
2.77276
2.77792
2.78104
2.78354
1
1
1
1
1
1
1
1
1
1
1
1
1
1
1
1
1
1
1
1
1
1
1
1
1
2.04659
2.65994
2.68358
2.69157
2.69942
2.70643
2.71296
2.71863
2.72312
2.72647
2.72924
2.73224
2.73637
2.74167
2.74716
2.7515
2.75426
2.7564
2.7588
2.76171
2.76606
2.76788
2.76996
1
1
1
1
1
1
1
1
1
1
1
1
1
1
1
1
1
1
1
1
1
1
1
1
1
1.87589
2.61911
2.67458
2.68662
2.69617
2.70348
2.70908
2.71349
2.71699
2.71966
2.72196
2.72463
2.72815
2.73252
2.73698
2.74051
2.74285
2.7444
2.74558
2.74749
2.75101
2.74933
2.75249
1
1
1
1
1
1
1
1
1
1
1
1
1
1
1
1
1
1
1
1
1
1
1
1
1
1.66095
2.54525
2.65639
2.67425
2.68657
2.6953
2.70149
2.70605
2.70965
2.71257
2.71507
2.71746
2.72013
2.72317
2.72611
2.7283
2.72949
2.72953
2.72969
2.73036
2.73236
2.72666
2.72386
1
1
1
1
1
1
1
1
1
1
1
1
1
1
1
1
1
1
1
1
1
1
1
1
1
1.36768
2.43519
2.64338
2.6562
2.67105
2.68148
2.68907
2.69486
2.69955
2.70356
2.70701
2.70987
2.71217
2.71397
2.71512
2.71514
2.71454
2.71275
2.71025
2.70655
2.70176
2.68954
2.68439
1
1
1
1
1
1
1
1
1
1
1
1
1
1
1
1
1
1
1
1
1
1
1
1
1
1.05143
2.32886
2.64644
2.6442
2.65097
2.66116
2.67099
2.67908
2.68575
2.69156
2.69662
2.70044
2.70284
2.70357
2.70314
2.70128
2.69821
2.69326
2.68661
2.67778
2.67022
2.65496
2.66125
1
1
1
1
1
1
1
1
1
1
1
1
1
1
1
1
1
1
1
1
1
1
1
1
1
1.00064
2.20889
2.63231
2.63035
2.63595
2.64433
2.65313
2.66145
2.6692
2.67656
2.68292
2.68825
2.69139
2.69141
2.69005
2.68642
2.68086
2.67227
2.66169
2.64495
2.62203
2.55861
2.41592
1
1
1
1
1
1
1
1
1
1
1
1
1
1
1
1
1
1
1
1
1
1
1
1
1
0.999997
2.01533
2.61854
2.63382
2.63664
2.63877
2.64183
2.64665
2.65279
2.65974
2.66634
2.67272
2.6769
2.67683
2.67503
2.67001
2.66225
2.64991
2.63344
2.60681
2.56005
2.4856
2.28641
1
1
1
1
1
1
1
1
1
1
1
1
1
1
1
1
1
1
1
1
1
1
1
1
1
0.999999
1.72783
2.54577
2.6294
2.63356
2.63597
2.63671
2.6378
2.64038
2.64461
2.64936
2.65507
2.65944
2.65949
2.65768
2.65183
2.64219
2.62673
2.60448
2.57068
2.51652
2.41969
2.21971
1
1
1
1
1
1
1
1
1
1
1
1
1
1
1
1
1
1
1
1
1
1
1
1
1
1
1.34512
2.41033
2.62
2.62349
2.62884
2.63098
2.63115
2.63153
2.6325
2.63431
2.63742
2.64036
2.64024
2.63821
2.63184
2.62087
2.60323
2.5772
2.53766
2.48154
2.37207
2.20664
1
1
1
1
1
1
1
1
1
1
1
1
1
1
1
1
1
1
1
1
1
1
1
1
1
1
1.03368
2.26592
2.6136
2.61256
2.61628
2.62157
2.62315
2.62308
2.62208
2.62159
2.6214
2.6215
2.62026
2.61711
2.60996
2.59821
2.57943
2.5515
2.5101
2.45258
2.34792
2.2124
1
1
1
1
1
1
1
1
1
1
1
1
1
1
1
1
1
1
1
1
1
1
1
1
1
1
1.0002
2.06195
2.57253
2.59532
2.60522
2.61101
2.61317
2.61331
2.61193
2.61008
2.6075
2.60479
2.60109
2.59602
2.58762
2.57503
2.55574
2.52732
2.48651
2.42948
2.33663
2.22682
1
1
1
1
1
1
1
1
1
1
1
1
1
1
1
1
1
1
1
1
1
1
1
1
1
1
0.999998
1.71149
2.4947
2.57908
2.59214
2.5983
2.60198
2.60266
2.60136
2.59899
2.59508
2.59025
2.58393
2.57631
2.56589
2.5519
2.53213
2.50422
2.46529
2.41111
2.33058
2.24179
1
1
1
1
1
1
1
1
1
1
1
1
1
1
1
1
1
1
1
1
1
1
1
1
1
1
1
1.23834
2.35776
2.57582
2.57532
2.58061
2.58562
2.5882
2.5878
2.58612
2.58227
2.57663
2.56873
2.55903
2.54652
2.53076
2.50996
2.48256
2.44556
2.39531
2.32645
2.25353
1
1
1
1
1
1
1
1
1
1
1
1
1
1
1
1
1
1
1
1
1
1
1
1
1
1
1
1.01404
2.20798
2.54995
2.55313
2.56005
2.56555
2.57016
2.57166
2.57106
2.56817
2.56285
2.55454
2.54357
2.52946
2.51212
2.4903
2.46263
2.42699
2.38104
2.32351
2.26074
1
1
1
1
1
1
1
1
1
1
1
1
1
1
1
1
1
1
1
1
1
1
1
1
1
1
1
1.00001
1.89359
2.50715
2.54127
2.54916
2.5514
2.55452
2.55627
2.55595
2.55358
2.54875
2.54069
2.52942
2.51463
2.49631
2.47384
2.44578
2.41084
2.36866
2.32
2.26474
1
1
1
1
1
1
1
1
1
1
1
1
1
1
1
1
1
1
1
1
1
1
1
1
1
1
1
0.999998
1.39671
2.38768
2.53248
2.53471
2.53613
2.5381
2.53934
2.53912
2.53713
2.53292
2.52567
2.51491
2.50045
2.48211
2.45934
2.43175
2.39766
2.3588
2.31554
2.2655
1
1
1
1
1
1
1
1
1
1
1
1
1
1
1
1
1
1
1
1
1
1
1
1
1
1
1
0.999999
1.03939
2.21938
2.51882
2.51772
2.51888
2.52133
2.52266
2.52247
2.52061
2.51666
2.50996
2.50001
2.48644
2.46869
2.44643
2.41986
2.38759
2.35203
2.31212
2.2672
1
1
1
1
1
1
1
1
1
1
1
1
1
1
1
1
1
1
1
1
1
1
1
1
1
1
1
1
1.00025
1.8636
2.46086
2.49943
2.5043
2.50846
2.50884
2.50792
2.50522
2.50075
2.49389
2.48423
2.47174
2.4549
2.434
2.40906
2.37917
2.34681
2.30927
2.26834
1
1
1
1
1
1
1
1
1
1
1
1
1
1
1
1
1
1
1
1
1
1
1
1
1
1
1
1
0.999999
1.28656
2.3252
2.49844
2.49254
2.49392
2.49405
2.49271
2.48962
2.48489
2.47786
2.46837
2.4562
2.44061
2.42151
2.39838
2.37139
2.34195
2.30699
2.26981
1
1
1
1
1
1
1
1
1
1
1
1
1
1
1
1
1
1
1
1
1
1
1
1
1
1
1
1
1
1.01896
2.14629
2.46741
2.47101
2.47636
2.47738
2.47672
2.4743
2.46975
2.4626
2.45301
2.44087
2.42595
2.40836
2.38709
2.36285
2.33598
2.30419
2.26985
1
1
1
1
1
1
1
1
1
1
1
1
1
1
1
1
1
1
1
1
1
1
1
1
1
1
1
1
1
1.00003
1.68416
2.38332
2.45074
2.46204
2.46455
2.46369
2.46113
2.45641
2.44887
2.43886
2.42653
2.41181
2.395
2.37528
2.35317
2.32887
2.30061
2.26918
1
1
1
1
1
1
1
1
1
1
1
1
1
1
1
1
1
1
1
1
1
1
1
1
1
1
1
1
1
1
1.12611
2.22293
2.45341
2.44761
2.44898
2.44841
2.44632
2.44209
2.43489
2.42499
2.41272
2.39829
2.38204
2.36346
2.3427
2.32042
2.29518
2.2667
1
1
1
1
1
1
1
1
1
1
1
1
1
1
1
1
1
1
1
1
1
1
1
1
1
1
1
1
1
1
1.00337
1.91005
2.40347
2.42249
2.42768
2.43139
2.43097
2.4279
2.42148
2.41212
2.40022
2.38612
2.37019
2.35218
2.33221
2.31133
2.28819
2.26237
1
1
1
1
1
1
1
1
1
1
1
1
1
1
1
1
1
1
1
1
1
1
1
1
1
1
1
1
1
1
0.999995
1.26345
2.25539
2.42429
2.41634
2.41694
2.41623
2.4131
2.4074
2.39906
2.388
2.37448
2.35896
2.34143
2.32211
2.30206
2.28041
2.25682
1
1
1
1
1
1
1
1
1
1
1
1
1
1
1
1
1
1
1
1
1
1
1
1
1
1
1
1
1
1
0.999998
1.01587
2.03891
2.38859
2.39938
2.39991
2.39859
2.3959
2.39151
2.3847
2.37505
2.36271
2.34815
2.33151
2.313
2.29347
2.27284
2.25069
1
1
1
1
1
1
1
1
1
1
1
1
1
1
1
1
1
1
1
1
1
1
1
1
1
1
1
1
1
1
1
1.00003
1.44687
2.26717
2.39125
2.38603
2.38299
2.37976
2.3756
2.36962
2.36125
2.35035
2.33708
2.32159
2.3041
2.28534
2.26568
2.24472
1
1
1
1
1
1
1
1
1
1
1
1
1
1
1
1
1
1
1
1
1
1
1
1
1
1
1
1
1
1
1
1
1.04791
2.07978
2.37259
2.3679
2.3652
2.3619
2.35813
2.35295
2.3458
2.33638
2.32463
2.31061
2.29479
2.27749
2.25901
2.23928
1
1
1
1
1
1
1
1
1
1
1
1
1
1
1
1
1
1
1
1
1
1
1
1
1
1
1
1
1
1
1
1
1.00042
1.53454
2.26193
2.35564
2.3507
2.34752
2.34368
2.33842
2.33158
2.32301
2.31254
2.30015
2.28597
2.27006
2.25255
2.23386
1
1
1
1
1
1
1
1
1
1
1
1
1
1
1
1
1
1
1
1
1
1
1
1
1
1
1
1
1
1
1
1
1
1.07247
2.07281
2.34479
2.3384
2.33419
2.329
2.32313
2.31625
2.3082
2.29873
2.2877
2.2751
2.26088
2.24498
2.22767
1
1
1
1
1
1
1
1
1
1
1
1
1
1
1
1
1
1
1
1
1
1
1
1
1
1
1
1
1
1
1
1
1
1.00102
1.52722
2.22871
2.32409
2.31895
2.31418
2.3084
2.30159
2.29384
2.28507
2.2752
2.26407
2.25149
2.2373
2.22141
1
1
1
1
1
1
1
1
1
1
1
1
1
1
1
1
1
1
1
1
1
1
1
1
1
1
1
1
1
1
1
1
1
1
1.07218
2.03561
2.31497
2.3087
2.30219
2.2949
2.28759
2.27992
2.27163
2.26251
2.25233
2.24082
2.22783
2.21343
1
1
1
1
1
1
1
1
1
1
1
1
1
1
1
1
1
1
1
1
1
1
1
1
1
1
1
1
1
1
1
1
1
1
1.00105
1.46792
2.18602
2.29446
2.28643
2.28038
2.27376
2.26679
2.25903
2.2503
2.24058
2.22979
2.21777
2.20465
1
1
1
1
1
1
1
1
1
1
1
1
1
1
1
1
1
1
1
1
1
1
1
1
1
1
1
1
1
1
1
1
1
1
1
1.05514
1.96339
2.27932
2.27623
2.26944
2.26234
2.25533
2.24749
2.23875
2.22914
2.21877
2.20752
2.19526
1
1
1
1
1
1
1
1
1
1
1
1
1
1
1
1
1
1
1
1
1
1
1
1
1
1
1
1
1
1
1
1
1
1
1
1.00067
1.38119
2.13239
2.26355
2.25381
2.24951
2.2433
2.23589
2.22752
2.21827
2.20833
2.19775
2.1863
1
1
1
1
1
1
1
1
1
1
1
1
1
1
1
1
1
1
1
1
1
1
1
1
1
1
1
1
1
1
1
1
1
1
1
1
1.03406
1.82846
2.22062
2.24709
2.23997
2.23288
2.22543
2.21729
2.20848
2.1989
2.18864
2.17782
1
1
1
1
1
1
1
1
1
1
1
1
1
1
1
1
1
1
1
1
1
1
1
1
1
1
1
1
1
1
1
1
1
1
1
1
1.00033
1.25184
2.04328
2.23588
2.22673
2.22171
2.21516
2.20766
2.19948
2.19042
2.18034
2.1697
1
1
1
1
1
1
1
1
1
1
1
1
1
1
1
1
1
1
1
1
1
1
1
1
1
1
1
1
1
1
1
1
1
1
1
1
1
1.01381
1.61316
2.13843
2.21487
2.20849
2.20319
2.19694
2.18959
2.18122
2.17169
2.16114
1
1
1
1
1
1
1
1
1
1
1
1
1
1
1
1
1
1
1
1
1
1
1
1
1
1
1
1
1
1
1
1
1
1
1
1
1
1.0001
1.11857
1.91837
2.20142
2.19623
2.19133
2.18571
2.17917
2.17156
2.16293
2.15305
1
1
1
1
1
1
1
1
1
1
1
1
1
1
1
1
1
1
1
1
1
1
1
1
1
1
1
1
1
1
1
1
1
1
1
1
1
1
1.00315
1.39429
2.05796
2.18199
2.17505
2.17051
2.16515
2.15876
2.15152
2.14324
1
1
1
1
1
1
1
1
1
1
1
1
1
1
1
1
1
1
1
1
1
1
1
1
1
1
1
1
1
1
1
1
1
1
1
1
1
1
1.00002
1.03967
1.721
2.12176
2.16952
2.16169
2.15488
2.14846
2.14164
2.13415
1
1
1
1
1
1
1
1
1
1
1
1
1
1
1
1
1
1
1
1
1
1
1
1
1
1
1
1
1
1
1
1
1
1
1
1
1
1
1
1.00052
1.19012
1.92349
2.15453
2.15043
2.14369
2.13734
2.13061
2.12337
1
1
1
1
1
1
1
1
1
1
1
1
1
1
1
1
1
1
1
1
1
1
1
1
1
1
1
1
1
1
1
1
1
1
1
1
1
1
1
1
1.00809
1.44249
2.02947
2.13711
2.13043
2.12391
2.11787
2.11133
1
1
1
1
1
1
1
1
1
1
1
1
1
1
1
1
1
1
1
1
1
1
1
1
1
1
1
1
1
1
1
1
1
1
1
1
1
1
1
1
1.00006
1.05442
1.70878
2.0798
2.12514
2.11657
2.10883
2.102
1
1
1
1
1
1
1
1
1
1
1
1
1
1
1
1
1
1
1
1
1
1
1
1
1
1
1
1
1
1
1
1
1
1
1
1
1
1
1
1
1
1.00092
1.19217
1.87669
2.10542
2.1077
2.10048
2.09324
1
1
1
1
1
1
1
1
1
1
1
1
1
1
1
1
1
1
1
1
1
1
1
1
1
1
1
1
1
1
1
1
1
1
1
1
1
1
1
1
1
1
1.00857
1.39979
1.9714
2.09394
2.08953
2.0825
1
1
1
1
1
1
1
1
1
1
1
1
1
1
1
1
1
1
1
1
1
1
1
1
1
1
1
1
1
1
1
1
1
1
1
1
1
1
1
1
1
1
1.00007
1.04399
1.61481
2.02449
2.08298
2.07434
1
1
1
1
1
1
1
1
1
1
1
1
1
1
1
1
1
1
1
1
1
1
1
1
1
1
1
1
1
1
1
1
1
1
1
1
1
1
1
1
1
1
1
1.0007
1.13705
1.78766
2.0423
2.07107
1
1
1
1
1
1
1
1
1
1
1
1
1
1
1
1
1
1
1
1
1
1
1
1
1
1
1
1
1
1
1
1
1
1
1
1
1
1
1
1
1
1
1
1
1.00472
1.29298
1.8777
2.05022
1
1
1
1
1
1
1
1
1
1
1
1
1
1
1
1
1
1
1
1
1
1
1
1
1
1
1
1
1
1
1
1
1
1
1
1
1
1
1
1
1
1
1
1
1.00003
1.02179
1.46078
1.93972
1
1
1
1
1
1
1
1
1
1
1
1
1
1
1
1
1
1
1
1
1
1
1
1
1
1
1
1
1
1
1
1
1
1
1
1
1
1
1
1
1
1
1
1
1
1.00027
1.06703
1.61713
1
1
1
1
1
1
1
1
1
1
1
1
1
1
1
1
1
1
1
1
1
1
1
1
1
1
1
1
1
1
1
1
1
1
1
1
1
1
1
1
1
1
1
1
1
1
1.00144
1.15138
1
1
1
1
1
1
1
1
1
1
1
1
1
1
1
1
1
1
1
1
1
1
1
1
1
1
1
1
1
1
1
1
1
1
1
1
1
1
1
1
1
1
1
1
1
1
1.00001
1.006
1
1
1
1
1
1
1
1
1
1
1
1
1
1
1
1
1
1
1
1
1
1
1
1
1
1
1
1
1
1
1
1
1
1
1
1
1
1
1
1
1
1
1
1
1
1
1
1.00005
1
1
1
1
1
1
1
1
1
1
1
1
1
1
1
1
1
1
1
1
1
1
1
1
1
1
1
1
1
1
1
1
1
1
1
1
1
1
1
1
1
1
1
1
1
1
1
1
1
1
1
1
1
1
1
1
1
1
1
1
1
1
1
1
1
1
1
1
1
1
1
1
1
1
1
1
1
1
1
1
1
1
1
1
1
1
1
1
1
1
1
1
1
1
1
1
1
1
1
1
1
1
1
1
1
1
1
1
1
1
1
1
1
1
1
1
1
1
1
1
1
1
1
1
1
1
1
1
1
1
1
1
1
1
1
1
1
1
1
1
1
1
1
1
1
1
1
1
1
1
1
1
1
1
1
1
1
1
1
1
1
1
1
1
1
1
1
1
1
1
1
1
1
1
1
1
1
1
1
1
1
1
1
1
1
1
1
1
1
1
1
1
1
1
1
1
1
1
1
1
1
1
1
1
1
1
1
1
1
1
1
1
1
1
1
1
1
1
1
1
1
1
1
1
1
1
1
1
1
1
1
1
1
1
1
1
1
1
1
1
1
1
1
1
1
1
1
1
1
1
1
1
1
1
1
1
1
1
1
1
1
1
1
1
1
1
1
1
1
1
1
1
1
1
1
1
1
1
1
1
1
1
1
1
1
1
1
1
1
1
1
1
1
1
1
1
1
1
1
1
1
1
1
1
1
1
1
1
1
1
1
1
1
1
1
1
1
1
1
1
1
1
1
1
1
1
1
1
1
1
1
1
1
1
1
1
1
1
1
1
1
1
1
1
1
1
1
1
1
1
1
1
1
1
1
1
1
1
1
1
1
1
1
1
1
1
1
1
1
1
1
1
1
1
1
1
1
1
1
1
1
1
1
1
1
1
1
1
1
1
1
1
1
1
1
1
1
1
1
1
1
1
1
1
1
1
1
1
1
1
1
1
1
1
1
1
1
1
1
1
1
1
1
1
1
1
1
1
1
1
1
1
1
1
1
1
1
1
1
1
1
1
1
1
1
1
1
1
1
1
1
1
1
1
1
1
1
1
1
1
1
1
1
1
1
1
1
1
1
1
1
1
1
1
1
1
1
1
1
1
1
1
1
1
1
1
1
1
1
1
1
1
1
1
1
1
1
1
1
1
1
1
1
1
1
1
1
1
1
1
1
1
1
1
1
1
1
1
1
1
1
1
1
1
1
1
1
1
1
1
1
1
1
1
1
1
1
1
1
1
1
1
1
1
1
1
1
1
1
1
1
1
1
1
1
1
1
1
1
1
1
1
1
1
1
1
1
1
1
1
1
1
1
1
1
1
1
1
1
1
1
1
1
1
1
1
1
1
1
1
1
1
1
1
1
1
1
1
1
1
1
1
1
1
1
1
1
1
1
1
1
1
1
1
1
1
1
1
1
1
1
1
1
1
1
1
1
1
1
1
1
1
1
1
1
1
1
1
1
1
1
1
1
1
1
1
1
1
1
1
1
1
1
1
1
1
1
1
1
1
1
1
1
1
1
1
1
1
1
1
1
1
1
1
1
1
1
1
1
1
1
1
1
1
1
1
1
1
1
1
1
1
1
1
1
1
1
1
1
1
1
1
1
1
1
1
1
1
1
1
1
1
1
1
1
1
1
1
1
1
1
1
1
1
1
1
1
1
1
1
1
1
1
1
1
1
1
1
1
1
1
1
1
1
1
1
1
1
1
1
1
1
1
1
1
1
1
1
1
1
1
1
1
1
1
1
1
1
1.45511
0.655597
0.823297
0.867204
0.611605
0.570926
0.719562
0.930446
1.09493
1.2159
1.26047
1.28093
1.30848
1.33681
1.37087
1.44774
1.5281
1.5616
1.55721
1.54602
1.55025
1.5778
1.59818
1.60627
1.59177
1.56433
1.5621
1.57727
1.60552
1.61779
1.61409
1.61344
1.61553
1.61367
1.61046
1.60293
1.59771
1.59724
1.59975
1.60548
1.61134
1.61313
1.61193
1.61097
1.61174
1.61494
1.62092
1.62247
1.62234
1.62126
1.61798
1.61608
1.61477
1.61365
1.61372
1.61629
1.62065
1.62264
1.62215
1.61843
1.61058
1.60542
1.60511
1.60583
1.60957
1.6132
1.61322
1.61119
1.60895
1.60733
1.60673
1.60863
1.61561
1.94797
2.49617
2.67938
2.69569
2.71069
2.705
2.68673
2.66702
2.65111
2.63515
2.62155
2.60948
2.59796
2.58753
2.57282
2.5561
2.54148
2.53041
2.52323
2.51481
2.50451
2.49183
2.47837
2.4668
2.45735
2.45018
2.44406
2.4381
2.43187
2.42344
2.41243
2.40111
2.39039
2.38182
2.37709
2.37386
2.36921
2.36283
2.35487
2.34598
2.33728
2.3293
2.32273
2.31674
2.30983
2.30216
2.2932
2.28303
2.27322
2.26485
2.25784
2.25361
2.25163
2.24945
2.24677
2.24363
2.2395
2.23433
2.22762
2.22022
2.21321
2.20656
2.20012
2.19385
2.18769
2.18148
2.17493
2.16767
2.15971
2.15174
2.14471
2.13872
2.13444
2.13231
2.13103
2.12924
2.12627
2.12181
2.11601
2.10756
2.09504
2.08037
2.0668
2.05653
2.04992
2.04562
2.04424
2.04532
2.04543
2.04319
2.03974
2.0359
2.03031
2.02142
2.01219
2.00574
2.00093
1.99627
1.99076
1.98457
1.97864
1.97405
1.971
1.96964
1.9701
1.97118
1.97114
1.97005
1.96737
1.9585
1.94343
1.9314
1.92456
1.92094
1.91921
1.91941
1.92026
1.92041
1.91585
1.7637
1.32119
1.13081
1.13909
1.07477
0.889667
0.814521
0.81349
0.852302
0.927163
0.995355
1.04552
1.07028
1.1063
1.14532
1.21626
1.30198
1.34402
1.38112
1.40605
1.43328
1.47203
1.50931
1.52984
1.53085
1.53477
1.54046
1.55511
1.5751
1.5779
1.57793
1.57868
1.58175
1.58403
1.58356
1.58349
1.58484
1.59016
1.59823
1.60663
1.6104
1.61017
1.60876
1.60808
1.6085
1.6093
1.60954
1.60813
1.60732
1.60892
1.60921
1.60907
1.60983
1.61224
1.61647
1.61811
1.61807
1.61624
1.60971
1.60291
1.59906
1.59811
1.60034
1.60574
1.60892
1.60896
1.60614
1.60328
1.60297
1.60616
1.60941
1.6087
1.61419
1.73948
2.31903
2.69152
2.7046
2.68409
2.66943
2.65277
2.64314
2.63217
2.61817
2.60542
2.59372
2.58346
2.57384
2.56007
2.54537
2.53197
2.52157
2.51447
2.50656
2.49616
2.48425
2.47124
2.45979
2.45014
2.4433
2.43891
2.43404
2.42641
2.41668
2.406
2.39493
2.38512
2.3778
2.3725
2.36849
2.36351
2.3564
2.34787
2.33897
2.33124
2.32429
2.31761
2.31122
2.30443
2.29665
2.28805
2.2795
2.27193
2.26556
2.25953
2.25383
2.24909
2.24511
2.24126
2.23669
2.23124
2.22489
2.21846
2.21262
2.20724
2.20193
2.19669
2.19194
2.18714
2.1812
2.17358
2.16518
2.15731
2.15028
2.14375
2.13818
2.13422
2.13123
2.12876
2.12558
2.12071
2.11393
2.10478
2.09449
2.08574
2.07927
2.07282
2.06422
2.05518
2.04848
2.04426
2.04094
2.03838
2.03621
2.03256
2.02827
2.02402
2.02005
2.01487
2.00519
1.99363
1.9862
1.9823
1.98024
1.97885
1.97635
1.97189
1.96919
1.96845
1.96878
1.96763
1.96242
1.95155
1.94164
1.93754
1.93547
1.93081
1.92263
1.91866
1.918
1.91777
1.91615
1.90859
1.91632
1.6455
1.42735
1.36843
1.25982
1.09046
1.04476
1.04086
1.01454
1.01248
1.02331
1.02139
1.01427
1.02025
1.0419
1.08042
1.11762
1.13443
1.17156
1.24089
1.29303
1.33051
1.37008
1.4036
1.43502
1.46849
1.49422
1.51028
1.51692
1.52094
1.52673
1.529
1.53638
1.54549
1.5539
1.56334
1.57103
1.57662
1.57982
1.58046
1.57923
1.57726
1.57566
1.57455
1.57492
1.57729
1.57967
1.58216
1.58557
1.58951
1.59435
1.60006
1.6033
1.60401
1.60312
1.59845
1.5899
1.58356
1.58195
1.58403
1.59178
1.59814
1.59967
1.59984
1.5961
1.59094
1.58973
1.59087
1.59548
1.59651
1.59468
1.59917
1.67143
1.86628
2.09872
2.4307
2.58505
2.62005
2.61031
2.59094
2.58211
2.57212
2.56223
2.55289
2.5431
2.53486
2.52828
2.52037
2.51271
2.50549
2.4968
2.48591
2.47491
2.46318
2.4527
2.44451
2.43853
2.43471
2.42994
2.42347
2.41418
2.4014
2.38994
2.38058
2.37239
2.36683
2.36219
2.35682
2.35076
2.34308
2.33375
2.32514
2.31837
2.31241
2.30632
2.29993
2.293
2.28527
2.2773
2.27068
2.26571
2.26177
2.25765
2.25281
2.24724
2.24127
2.23552
2.2299
2.22335
2.21573
2.20869
2.20304
2.1984
2.19434
2.19036
2.18645
2.18262
2.17774
2.17101
2.16328
2.1556
2.1489
2.14373
2.13964
2.13606
2.13223
2.12781
2.12259
2.11589
2.10829
2.10084
2.09386
2.08756
2.08164
2.07554
2.06857
2.06223
2.05683
2.05116
2.04527
2.04023
2.0362
2.033
2.02957
2.02517
2.01977
2.0127
2.00442
1.99627
1.99111
1.9874
1.9836
1.98008
1.97748
1.97528
1.97375
1.97243
1.96974
1.9648
1.95707
1.9488
1.94273
1.93894
1.9358
1.93218
1.92824
1.92585
1.92326
1.91877
1.91368
1.90936
1.90251
1.99757
1.79828
1.63342
1.54208
1.44313
1.3012
1.24585
1.21208
1.16763
1.14157
1.13878
1.12512
1.09374
1.07908
1.08186
1.09222
1.10234
1.10189
1.09373
1.10195
1.12478
1.16336
1.22259
1.27697
1.32937
1.37865
1.41752
1.43373
1.43677
1.44526
1.45768
1.46825
1.48287
1.50306
1.51794
1.52332
1.52752
1.53164
1.53157
1.5301
1.52917
1.52946
1.53089
1.53449
1.53887
1.54381
1.54789
1.5506
1.55234
1.55463
1.5594
1.56596
1.56807
1.56782
1.56517
1.55901
1.5552
1.555
1.55825
1.5666
1.57565
1.5778
1.57608
1.57153
1.56553
1.56257
1.5631
1.56613
1.56809
1.56874
1.57723
1.64651
1.85294
2.0221
2.03848
2.12929
2.32752
2.46993
2.51289
2.52799
2.52084
2.50909
2.49913
2.49175
2.48516
2.47948
2.47588
2.4726
2.46873
2.46109
2.44979
2.43631
2.42378
2.41597
2.41064
2.40874
2.40846
2.40327
2.3947
2.38358
2.3704
2.36022
2.35311
2.34664
2.34263
2.33947
2.33384
2.3274
2.31804
2.30741
2.29941
2.29392
2.28887
2.28368
2.2782
2.27199
2.2645
2.25679
2.25073
2.24627
2.24309
2.24113
2.23865
2.23531
2.23053
2.22323
2.21371
2.20423
2.19629
2.1895
2.18354
2.17844
2.17386
2.16973
2.16651
2.16459
2.1616
2.15678
2.15124
2.14634
2.14133
2.13585
2.13095
2.12721
2.12362
2.11949
2.114
2.1058
2.09646
2.08832
2.08185
2.07672
2.07204
2.06699
2.06163
2.05793
2.05535
2.05204
2.0471
2.03966
2.02993
2.02107
2.01513
2.01144
2.0076
2.00251
1.99619
1.99058
1.988
1.98496
1.97947
1.97299
1.96839
1.96577
1.96467
1.96481
1.96328
1.95921
1.95054
1.94038
1.93398
1.93077
1.92812
1.9249
1.92235
1.92185
1.92062
1.91736
1.90989
1.90007
1.8953
1.89109
2.05261
1.90778
1.76582
1.66098
1.57911
1.48247
1.42145
1.37902
1.31883
1.26421
1.23181
1.21272
1.19179
1.18141
1.17382
1.16745
1.15821
1.14352
1.12619
1.11874
1.12082
1.12454
1.13452
1.15484
1.18906
1.23678
1.28621
1.32619
1.34813
1.37298
1.40076
1.4203
1.44068
1.4629
1.47844
1.48251
1.48542
1.48894
1.48916
1.4894
1.49389
1.49982
1.50743
1.51556
1.51945
1.52017
1.51904
1.51862
1.51936
1.52073
1.52382
1.5284
1.53016
1.53048
1.53011
1.53009
1.53195
1.53609
1.54248
1.54848
1.54949
1.54789
1.54483
1.53959
1.53495
1.53479
1.53573
1.53758
1.54062
1.55358
1.64421
1.83312
1.99357
2.04239
2.02236
2.01684
2.07076
2.23355
2.39014
2.46213
2.47259
2.4662
2.45718
2.45199
2.44784
2.4424
2.43682
2.4311
2.42374
2.41442
2.40427
2.39358
2.38418
2.37856
2.37577
2.37447
2.37034
2.36276
2.35349
2.34117
2.33051
2.32481
2.32045
2.318
2.31615
2.31025
2.30354
2.29604
2.28499
2.27395
2.26844
2.26445
2.26056
2.25623
2.25142
2.2455
2.23702
2.22916
2.22457
2.22089
2.21877
2.21799
2.21691
2.214
2.2091
2.20038
2.18674
2.17398
2.1661
2.16098
2.15672
2.15312
2.14975
2.14638
2.1427
2.13826
2.13408
2.13117
2.12824
2.12517
2.12275
2.11995
2.11638
2.1118
2.10626
2.09959
2.09166
2.08337
2.07562
2.06838
2.06169
2.05608
2.05182
2.04851
2.0462
2.04447
2.04256
2.03968
2.03526
2.02795
2.01708
2.00551
1.99636
1.98938
1.98461
1.98097
1.97864
1.9768
1.97448
1.97107
1.96536
1.95887
1.95512
1.95354
1.95318
1.95208
1.94881
1.94211
1.93272
1.92464
1.91907
1.91591
1.91395
1.91273
1.91291
1.91209
1.90939
1.90467
1.89594
1.885
1.87934
1.87577
2.10087
1.98255
1.87181
1.77202
1.68334
1.60583
1.54691
1.495
1.44213
1.39016
1.33148
1.29474
1.27437
1.25545
1.24496
1.23976
1.22947
1.21194
1.1896
1.17616
1.16751
1.16164
1.16124
1.16433
1.16717
1.17087
1.17835
1.19276
1.21661
1.24937
1.30059
1.35438
1.39098
1.42819
1.44695
1.45148
1.45384
1.45464
1.45649
1.46141
1.47054
1.48474
1.49703
1.50307
1.50479
1.5052
1.50397
1.50115
1.50043
1.50073
1.50197
1.50742
1.5097
1.51032
1.51208
1.51471
1.51742
1.52085
1.52479
1.52759
1.52793
1.52686
1.52273
1.51806
1.51752
1.51776
1.51951
1.52253
1.53496
1.63291
1.8382
1.98787
2.02306
2.01614
2.00937
2.00514
2.0063
2.04076
2.18022
2.35817
2.41881
2.43762
2.438
2.434
2.42707
2.42072
2.41247
2.40312
2.39563
2.38916
2.38184
2.37431
2.36649
2.35903
2.35301
2.34777
2.34204
2.33434
2.32497
2.31559
2.30864
2.30437
2.30186
2.29996
2.29518
2.28891
2.2825
2.27502
2.26572
2.25578
2.24933
2.24512
2.24137
2.2376
2.23306
2.2277
2.2198
2.21092
2.20486
2.20049
2.19847
2.19922
2.19745
2.19318
2.18746
2.1786
2.16518
2.15122
2.14356
2.13932
2.1361
2.13374
2.13104
2.12734
2.12193
2.11421
2.10859
2.1056
2.1034
2.10205
2.10239
2.10201
2.09936
2.09468
2.08653
2.07611
2.06737
2.061
2.05519
2.04962
2.04404
2.03852
2.03372
2.03019
2.02825
2.0288
2.02713
2.02343
2.01864
2.01221
2.00425
1.99329
1.98047
1.9707
1.96485
1.96147
1.95921
1.95905
1.95703
1.95366
1.95059
1.94793
1.94523
1.94206
1.93789
1.9326
1.92714
1.92072
1.91464
1.90924
1.90551
1.9028
1.90067
1.89907
1.8977
1.89564
1.8933
1.8888
1.88001
1.86933
1.86402
1.86001
2.13804
2.03741
1.94551
1.85483
1.76638
1.70476
1.64449
1.58406
1.52671
1.47823
1.42562
1.38403
1.36498
1.34138
1.3166
1.30715
1.29179
1.27319
1.25151
1.23272
1.21986
1.20887
1.20545
1.20088
1.19567
1.19192
1.18502
1.17381
1.17137
1.17534
1.19232
1.2304
1.27603
1.32667
1.37046
1.40206
1.42343
1.42978
1.43845
1.44511
1.45307
1.47356
1.48813
1.49217
1.4948
1.49632
1.49517
1.49059
1.48982
1.49181
1.49774
1.5044
1.50631
1.50607
1.50478
1.50534
1.50672
1.50884
1.51187
1.51332
1.51365
1.51312
1.51184
1.51113
1.51198
1.51375
1.516
1.52964
1.62019
1.84993
1.98919
2.01844
2.01203
2.00258
2.00186
2.00487
2.00651
2.00225
2.02123
2.14274
2.30575
2.39892
2.42781
2.42494
2.41738
2.4093
2.40027
2.39052
2.38278
2.37702
2.37166
2.3658
2.35875
2.3504
2.3413
2.33314
2.32591
2.31934
2.31307
2.30746
2.30274
2.29729
2.29157
2.28624
2.28122
2.27612
2.27061
2.26457
2.25821
2.25121
2.24385
2.23855
2.23458
2.2305
2.22553
2.21934
2.21092
2.2017
2.19423
2.18866
2.18411
2.18053
2.17865
2.1752
2.17001
2.16203
2.15126
2.14114
2.13412
2.1298
2.12699
2.12431
2.12056
2.11552
2.10747
2.09775
2.09126
2.08852
2.08729
2.08923
2.09211
2.09018
2.08632
2.07981
2.06858
2.05569
2.04728
2.04218
2.03855
2.03516
2.0313
2.02671
2.02182
2.01771
2.01477
2.01146
2.00765
2.00424
2.00098
1.99728
1.99195
1.98459
1.97288
1.95944
1.95126
1.94715
1.94442
1.94257
1.94276
1.94313
1.94222
1.94035
1.93725
1.93096
1.92116
1.91106
1.90368
1.89939
1.89667
1.89521
1.89397
1.89248
1.89037
1.88747
1.88413
1.88071
1.87531
1.86844
1.86163
1.85613
1.85264
1.84709
2.16649
2.08193
2.0026
1.91842
1.83986
1.7798
1.71996
1.65734
1.60556
1.55424
1.50146
1.45833
1.43851
1.41757
1.39439
1.3762
1.35503
1.32524
1.3002
1.28133
1.26698
1.25937
1.25537
1.24866
1.24305
1.23622
1.22367
1.203
1.19171
1.19117
1.19321
1.1985
1.20777
1.22148
1.24284
1.26857
1.30298
1.34305
1.38007
1.42
1.44015
1.46006
1.47473
1.4771
1.47947
1.48142
1.47957
1.4783
1.48059
1.48723
1.49841
1.50627
1.50788
1.50769
1.50442
1.49997
1.4992
1.49927
1.50005
1.50271
1.50636
1.50787
1.50885
1.51049
1.511
1.5122
1.52577
1.62765
1.83131
1.99871
2.01813
2.00952
2.00194
1.99914
2.00331
2.00654
2.00369
1.99792
1.98959
2.00059
2.09093
2.25792
2.38749
2.41467
2.41597
2.40563
2.39802
2.38811
2.37767
2.3712
2.36579
2.36068
2.35407
2.34674
2.33774
2.32822
2.32098
2.31478
2.30981
2.30673
2.30188
2.29543
2.28752
2.27967
2.27344
2.26889
2.26455
2.26018
2.25628
2.25187
2.24622
2.23888
2.23211
2.22653
2.22066
2.21387
2.2065
2.19939
2.19196
2.1839
2.17601
2.16945
2.16424
2.15952
2.15422
2.148
2.14178
2.13737
2.13312
2.12857
2.12423
2.11984
2.11441
2.10721
2.09858
2.09018
2.08401
2.07983
2.07733
2.07591
2.07596
2.07561
2.07232
2.06628
2.05556
2.04319
2.03514
2.03093
2.02783
2.0252
2.02286
2.02009
2.01639
2.01115
2.00343
1.99492
1.99018
1.98765
1.98583
1.9839
1.98141
1.97699
1.9696
1.95868
1.94699
1.9397
1.9354
1.93286
1.93445
1.93848
1.93687
1.93352
1.92884
1.9203
1.90777
1.89676
1.8901
1.88606
1.88421
1.88321
1.88324
1.8836
1.88237
1.87968
1.87497
1.86664
1.85774
1.85111
1.84701
1.84501
1.84308
1.83783
2.18616
2.11631
2.04493
1.9675
1.90344
1.84195
1.78145
1.72173
1.66943
1.62146
1.57316
1.53621
1.50987
1.47941
1.45357
1.43332
1.41108
1.38157
1.35483
1.3363
1.31691
1.30907
1.30469
1.29616
1.28771
1.27752
1.26089
1.23657
1.22563
1.22386
1.22133
1.22044
1.21994
1.21952
1.21582
1.2097
1.21325
1.22881
1.25949
1.31137
1.37149
1.41677
1.45422
1.46545
1.46731
1.46751
1.46306
1.46351
1.47096
1.48399
1.49855
1.5046
1.50524
1.50444
1.50136
1.4966
1.49383
1.49296
1.49367
1.49913
1.50536
1.5082
1.5083
1.50788
1.50824
1.51875
1.62548
1.83297
1.98517
2.0137
2.01136
2.00728
2.00477
2.00211
2.00209
2.00076
1.9965
1.99158
1.98548
1.97918
1.98517
2.0517
2.21883
2.35311
2.40348
2.40202
2.4009
2.39055
2.37833
2.36975
2.363
2.35698
2.35158
2.34528
2.33772
2.32807
2.32046
2.31475
2.31094
2.30765
2.30167
2.29487
2.28672
2.27786
2.27087
2.26594
2.26233
2.26018
2.25805
2.25377
2.24796
2.24014
2.23102
2.2232
2.2164
2.21009
2.20427
2.19846
2.192
2.18395
2.17395
2.16384
2.15487
2.14811
2.14295
2.13924
2.13708
2.13568
2.13305
2.12917
2.12307
2.11545
2.10804
2.10079
2.09419
2.08938
2.0846
2.07904
2.07303
2.0678
2.06388
2.06055
2.05678
2.05167
2.04495
2.03756
2.03214
2.02793
2.02457
2.02206
2.01995
2.01699
2.01271
2.00555
1.99491
1.98524
1.9798
1.97675
1.97418
1.97194
1.96974
1.96732
1.96403
1.95875
1.95093
1.94099
1.933
1.92889
1.92624
1.92527
1.92454
1.92203
1.91795
1.91039
1.90005
1.89106
1.88468
1.88116
1.87947
1.87921
1.88133
1.8806
1.87832
1.87435
1.86614
1.85514
1.84669
1.84182
1.83944
1.83738
1.8353
1.83013
2.20226
2.1418
2.07551
2.0111
1.95245
1.89245
1.83105
1.78108
1.73046
1.68333
1.638
1.60215
1.57132
1.54216
1.51319
1.48735
1.45885
1.42532
1.40138
1.38535
1.3693
1.36016
1.35247
1.34089
1.32732
1.31421
1.29648
1.27336
1.26432
1.26186
1.2569
1.2542
1.25188
1.2457
1.23469
1.21969
1.21317
1.21421
1.21793
1.2303
1.25766
1.29192
1.33226
1.36598
1.3921
1.41886
1.43589
1.44878
1.46673
1.48387
1.49369
1.49516
1.49441
1.49276
1.4904
1.48728
1.48797
1.49034
1.49537
1.50387
1.50868
1.5097
1.50781
1.50358
1.51556
1.61505
1.84138
1.96009
2.00506
2.01522
2.01332
2.00961
2.00268
1.99872
1.99609
1.99508
1.99283
1.98866
1.98349
1.97721
1.97276
1.97563
2.01843
2.15716
2.30424
2.3775
2.39697
2.39306
2.38153
2.36875
2.36031
2.35381
2.34929
2.34379
2.33742
2.32927
2.32164
2.3157
2.31041
2.30487
2.29885
2.29259
2.28601
2.27873
2.27132
2.26509
2.26044
2.25661
2.25264
2.2488
2.24456
2.23856
2.2298
2.21992
2.21263
2.20703
2.20196
2.1971
2.19134
2.18445
2.17489
2.16246
2.1511
2.14272
2.13799
2.13537
2.13658
2.13614
2.13278
2.12807
2.11968
2.10917
2.1011
2.09562
2.09167
2.08867
2.08494
2.08015
2.07339
2.0645
2.05589
2.04851
2.0427
2.03839
2.0357
2.03389
2.03127
2.02877
2.02596
2.02247
2.01815
2.01299
2.00663
1.99876
1.98949
1.98078
1.97404
1.96904
1.96585
1.96317
1.96121
1.96003
1.95855
1.95597
1.9525
1.9469
1.93874
1.92935
1.92184
1.91675
1.91293
1.90898
1.90421
1.89896
1.89411
1.8902
1.88722
1.88426
1.88089
1.87752
1.87423
1.87215
1.86994
1.86556
1.85773
1.84906
1.84284
1.83918
1.83607
1.83342
1.83175
1.82688
2.21279
2.15776
2.09871
2.04513
1.98958
1.93056
1.87866
1.83135
1.78467
1.73601
1.69746
1.66131
1.62552
1.59284
1.56472
1.53479
1.5061
1.47579
1.45117
1.43091
1.41305
1.40449
1.39512
1.38417
1.36909
1.35036
1.32983
1.31011
1.30552
1.30236
1.29708
1.29029
1.28253
1.27213
1.25677
1.2393
1.2332
1.23206
1.23233