/*--------------------------------*- C++ -*----------------------------------*\
  =========                 |
  \\      /  F ield         | OpenFOAM: The Open Source CFD Toolbox
   \\    /   O peration     | Website:  https://openfoam.org
    \\  /    A nd           | Version:  10
     \\/     M anipulation  |
\*---------------------------------------------------------------------------*/
FoamFile
{
    format      ascii;
    class       volVectorField;
    location    "2.5";
    object      U;
}
// * * * * * * * * * * * * * * * * * * * * * * * * * * * * * * * * * * * * * //

dimensions      [0 1 -1 0 0 0 0];

internalField   nonuniform List<vector> 
16128
(
(3 1.04226e-14 0)
(3 1.65693e-14 0)
(3 1.0343e-15 0)
(3 -1.12824e-14 0)
(3 -4.11329e-14 0)
(3 -6.08673e-14 0)
(3 -1.19157e-13 0)
(3 -1.86081e-13 0)
(3 -1.72105e-13 0)
(3 -1.17029e-13 0)
(3 -1.13985e-13 0)
(3 -6.41385e-14 0)
(3 -5.9664e-14 0)
(3 -4.67492e-14 0)
(3 -3.27116e-14 0)
(3 -3.28441e-15 0)
(3 4.84378e-15 0)
(3 -4.61097e-14 0)
(3 -6.50377e-14 0)
(3 -6.27732e-14 0)
(3 -3.29478e-14 0)
(3 -4.00451e-14 0)
(3 -1.29976e-13 0)
(3 -2.04214e-13 0)
(2.11645 0.00651007 0)
(0.831402 0.00736932 0)
(0.725291 0.0144673 0)
(0.693516 0.0143239 0)
(0.660259 0.0140579 0)
(0.629106 0.013851 0)
(0.598255 0.0138814 0)
(0.567364 0.0140533 0)
(0.536209 0.014176 0)
(0.505045 0.0142512 0)
(0.474122 0.0143531 0)
(0.443576 0.0144328 0)
(0.413193 0.0145939 0)
(0.382457 0.0149567 0)
(0.351199 0.0152991 0)
(0.319674 0.0155388 0)
(0.287754 0.0158823 0)
(0.254727 0.0165468 0)
(0.220155 0.0172861 0)
(0.184038 0.0179679 0)
(0.146924 0.0184345 0)
(0.107364 0.0197051 0)
(0.0655954 0.0212389 0)
(0.0226929 0.0218163 0)
(3 1.47146e-15 0)
(3 -2.1987e-14 0)
(3 -5.64299e-14 0)
(3 -7.08741e-14 0)
(3 -5.35673e-14 0)
(3 -1.87948e-14 0)
(3 -6.77911e-14 0)
(3 -1.26685e-13 0)
(3 -1.79347e-13 0)
(3 -1.30434e-13 0)
(3 -1.0076e-13 0)
(3 -9.13015e-14 0)
(3 -1.08478e-13 0)
(3 -6.98067e-14 0)
(3 -4.71493e-15 0)
(3 5.50747e-14 0)
(3 8.32328e-15 0)
(3 -5.13933e-14 0)
(3 -1.7235e-13 0)
(3 -1.20358e-13 0)
(3 -2.46587e-14 0)
(3 3.38051e-14 0)
(3 -3.62401e-14 0)
(3 -1.42023e-13 0)
(2.13414 0.0329836 0)
(0.826254 0.0351122 0)
(0.713658 0.0420478 0)
(0.682106 0.0386043 0)
(0.649852 0.0378728 0)
(0.619658 0.0381532 0)
(0.589539 0.0391476 0)
(0.559148 0.0402977 0)
(0.528309 0.0410922 0)
(0.49728 0.0416309 0)
(0.466293 0.0421339 0)
(0.435534 0.0424181 0)
(0.404926 0.0428507 0)
(0.374095 0.0439115 0)
(0.342911 0.0449587 0)
(0.31162 0.0457391 0)
(0.280096 0.0468909 0)
(0.247696 0.0490576 0)
(0.214069 0.0514007 0)
(0.179256 0.0536673 0)
(0.14352 0.0554335 0)
(0.105304 0.059877 0)
(0.0643215 0.0647198 0)
(0.0228895 0.0660224 0)
(3 -2.63604e-14 0)
(3 -4.24425e-14 0)
(3 -5.94987e-14 0)
(3 -1.24379e-14 0)
(3 3.39913e-14 0)
(3 2.01086e-14 0)
(3 1.48797e-14 0)
(3 -5.43353e-14 0)
(3 -9.68307e-14 0)
(3 -9.10424e-14 0)
(3 -4.6719e-14 0)
(3 -5.03673e-14 0)
(3 -6.24764e-14 0)
(3 -2.23896e-14 0)
(3 -4.42518e-14 0)
(3 -5.59302e-14 0)
(3 -5.80052e-14 0)
(3 -4.55058e-14 0)
(3 -7.65633e-14 0)
(3 -3.29652e-14 0)
(3 -7.09321e-15 0)
(3 -4.62123e-14 0)
(3 -9.24347e-15 0)
(3 -6.18656e-15 0)
(2.19845 0.0620018 0)
(0.836539 0.0658419 0)
(0.715772 0.0723539 0)
(0.683697 0.0663847 0)
(0.650599 0.0649302 0)
(0.619846 0.0650467 0)
(0.589326 0.0664338 0)
(0.558645 0.068219 0)
(0.527532 0.0695023 0)
(0.49614 0.0704355 0)
(0.464605 0.0713515 0)
(0.43309 0.0718837 0)
(0.401629 0.0725567 0)
(0.369971 0.0741369 0)
(0.337988 0.0755862 0)
(0.305915 0.0765189 0)
(0.273672 0.0780234 0)
(0.240789 0.0811763 0)
(0.207092 0.0845345 0)
(0.172768 0.0879765 0)
(0.137745 0.0907812 0)
(0.101055 0.0985577 0)
(0.061391 0.106426 0)
(0.0227703 0.108078 0)
(3 -3.86111e-14 0)
(3 -3.8572e-14 0)
(3 -2.92254e-14 0)
(3 2.01375e-14 0)
(3 1.681e-14 0)
(3 -2.53301e-14 0)
(3 -3.26946e-14 0)
(3 -6.39938e-14 0)
(3 -4.99437e-14 0)
(3 6.54213e-15 0)
(3 3.76672e-15 0)
(3 9.03708e-15 0)
(3 3.54371e-14 0)
(3 5.88876e-14 0)
(3 4.80173e-15 0)
(3 -1.58173e-13 0)
(3 -1.59377e-13 0)
(3 -1.62677e-13 0)
(3 -7.31829e-14 0)
(3 -2.38477e-14 0)
(3 -3.29826e-14 0)
(3 -4.54275e-14 0)
(3 -4.63771e-14 0)
(3 -4.40702e-14 0)
(2.30321 0.0812611 0)
(0.858347 0.0930155 0)
(0.727165 0.0997681 0)
(0.696075 0.0919381 0)
(0.662584 0.090293 0)
(0.63107 0.0906655 0)
(0.599667 0.0927866 0)
(0.568181 0.0954765 0)
(0.53634 0.0974984 0)
(0.504242 0.0991064 0)
(0.471932 0.100774 0)
(0.439489 0.101917 0)
(0.406993 0.103115 0)
(0.374281 0.105399 0)
(0.341188 0.107411 0)
(0.307895 0.108657 0)
(0.27433 0.110619 0)
(0.240165 0.114691 0)
(0.205377 0.118682 0)
(0.170378 0.12287 0)
(0.134834 0.126044 0)
(0.0987015 0.136741 0)
(0.0594589 0.147161 0)
(0.0211717 0.148104 0)
(3 1.45361e-14 0)
(3 -9.36748e-15 0)
(3 1.87859e-15 0)
(3 2.33578e-14 0)
(3 -1.2893e-14 0)
(3 4.55688e-15 0)
(3 -5.25542e-14 0)
(3 -8.99411e-14 0)
(3 -7.8321e-14 0)
(3 -4.61136e-14 0)
(3 1.27055e-14 0)
(3 6.7936e-14 0)
(3 7.23474e-14 0)
(3 9.067e-14 0)
(3 5.97174e-14 0)
(3 -8.1159e-14 0)
(3 -1.04213e-13 0)
(3 -1.10186e-13 0)
(3 -8.54717e-14 0)
(3 -8.60043e-14 0)
(3 -8.07597e-14 0)
(3 -5.34624e-14 0)
(3 3.82922e-14 0)
(3 4.44265e-14 0)
(2.42514 0.0936588 0)
(0.878471 0.119927 0)
(0.731986 0.126237 0)
(0.701903 0.119076 0)
(0.668472 0.117726 0)
(0.636792 0.118242 0)
(0.605278 0.120672 0)
(0.574036 0.123802 0)
(0.542756 0.126191 0)
(0.511372 0.128226 0)
(0.479679 0.130548 0)
(0.447497 0.132341 0)
(0.414844 0.134129 0)
(0.381667 0.137198 0)
(0.347794 0.139933 0)
(0.313408 0.14171 0)
(0.278492 0.144342 0)
(0.242869 0.149463 0)
(0.206615 0.153942 0)
(0.170413 0.158727 0)
(0.133554 0.161734 0)
(0.0973798 0.174938 0)
(0.0584756 0.187826 0)
(0.0189783 0.187368 0)
(3 3.12885e-14 0)
(3 5.06394e-14 0)
(3 9.36783e-14 0)
(3 5.45914e-14 0)
(3 4.90804e-14 0)
(3 6.42461e-14 0)
(3 5.77941e-14 0)
(3 5.74946e-14 0)
(3 4.88751e-14 0)
(3 1.1242e-14 0)
(3 6.98627e-14 0)
(3 8.73956e-14 0)
(3 8.11363e-14 0)
(3 6.84813e-14 0)
(3 2.34214e-14 0)
(3 1.2476e-14 0)
(3 -6.41263e-14 0)
(3 -5.75349e-14 0)
(3 -6.79639e-14 0)
(3 -8.01678e-14 0)
(3 -2.91495e-14 0)
(3 9.25768e-14 0)
(3 1.5303e-13 0)
(3 1.82536e-13 0)
(2.56225 0.100833 0)
(0.906002 0.147636 0)
(0.735361 0.15105 0)
(0.706196 0.145409 0)
(0.673335 0.144754 0)
(0.642264 0.145632 0)
(0.611193 0.14826 0)
(0.580458 0.151623 0)
(0.549671 0.154297 0)
(0.518651 0.156901 0)
(0.48709 0.160262 0)
(0.454656 0.163222 0)
(0.421432 0.165996 0)
(0.387638 0.17006 0)
(0.353201 0.173661 0)
(0.318301 0.176089 0)
(0.282815 0.179493 0)
(0.246459 0.185782 0)
(0.209066 0.190804 0)
(0.171611 0.196392 0)
(0.132707 0.198833 0)
(0.09633 0.213564 0)
(0.0582104 0.226873 0)
(0.0255947 0.227615 0)
(3 3.1939e-16 0)
(3 1.31639e-14 0)
(3 -1.17955e-14 0)
(3 3.66434e-15 0)
(3 2.91675e-14 0)
(3 3.2574e-14 0)
(3 1.22063e-13 0)
(3 1.9053e-13 0)
(3 1.58243e-13 0)
(3 8.18979e-14 0)
(3 6.01495e-15 0)
(3 1.58831e-16 0)
(3 1.80387e-14 0)
(3 -3.9352e-14 0)
(3 -4.68419e-14 0)
(3 -6.46942e-16 0)
(3 5.13471e-15 0)
(3 2.9565e-14 0)
(3 5.54076e-14 0)
(3 6.11905e-14 0)
(3 9.06292e-14 0)
(3 1.31842e-13 0)
(3 8.67935e-14 0)
(3 7.8594e-14 0)
(2.70839 0.10594 0)
(0.944408 0.180072 0)
(0.744214 0.174588 0)
(0.71804 0.171473 0)
(0.685861 0.171507 0)
(0.655406 0.172893 0)
(0.624305 0.175832 0)
(0.593178 0.179586 0)
(0.561666 0.182792 0)
(0.529737 0.186179 0)
(0.497322 0.190734 0)
(0.464128 0.194957 0)
(0.430262 0.198635 0)
(0.396049 0.2035 0)
(0.361293 0.20789 0)
(0.325951 0.211051 0)
(0.28975 0.215368 0)
(0.252483 0.223115 0)
(0.213811 0.229132 0)
(0.175082 0.236186 0)
(0.133884 0.238401 0)
(0.0958192 0.254021 0)
(0.0560029 0.263985 0)
(0.0373384 0.26762 0)
(3 -3.28069e-15 0)
(3 -1.01794e-14 0)
(3 -3.38173e-14 0)
(3 1.51414e-15 0)
(3 5.4499e-15 0)
(3 2.1732e-14 0)
(3 3.72731e-14 0)
(3 4.89116e-14 0)
(3 8.78014e-14 0)
(3 2.9654e-14 0)
(3 -1.5901e-14 0)
(3 -7.69362e-14 0)
(3 -7.97072e-14 0)
(3 -7.69119e-14 0)
(3 -1.6487e-14 0)
(3 2.06948e-14 0)
(3 8.49663e-14 0)
(3 6.90942e-14 0)
(3 4.73477e-14 0)
(3 8.38236e-14 0)
(3 1.02703e-13 0)
(3 -8.25036e-14 0)
(3 -1.40027e-13 0)
(3 -1.42502e-13 0)
(2.86176 0.100953 0)
(1.00532 0.206743 0)
(0.764555 0.18908 0)
(0.741571 0.1929 0)
(0.708621 0.195381 0)
(0.678094 0.198383 0)
(0.646485 0.202566 0)
(0.614424 0.20756 0)
(0.581445 0.21202 0)
(0.547775 0.216535 0)
(0.513832 0.222279 0)
(0.479478 0.227639 0)
(0.444684 0.23206 0)
(0.409677 0.23767 0)
(0.374044 0.243095 0)
(0.337497 0.247427 0)
(0.299797 0.252974 0)
(0.261107 0.262401 0)
(0.220969 0.269591 0)
(0.180878 0.278124 0)
(0.138694 0.280129 0)
(0.100342 0.296165 0)
(0.059076 0.302298 0)
(0.0399887 0.308266 0)
(3 -3.80494e-16 0)
(3 1.55148e-14 0)
(3 4.68442e-14 0)
(3 2.94759e-14 0)
(3 9.87128e-15 0)
(3 -1.44431e-14 0)
(3 -3.09164e-14 0)
(3 -5.38886e-16 0)
(3 2.23047e-14 0)
(3 3.98952e-14 0)
(3 3.68552e-14 0)
(3 1.28353e-14 0)
(3 -6.87096e-15 0)
(3 -1.64022e-15 0)
(3 -5.71696e-15 0)
(3 -3.27023e-15 0)
(3 5.15088e-14 0)
(3 5.19842e-14 0)
(3 7.66972e-14 0)
(3 8.84188e-14 0)
(3 7.88135e-14 0)
(3 -3.49028e-14 0)
(3 -8.53433e-14 0)
(3 -1.27575e-13 0)
(2.9758 0.0321882 0)
(1.07039 0.229269 0)
(0.779599 0.200194 0)
(0.76304 0.213671 0)
(0.731196 0.218741 0)
(0.701646 0.222719 0)
(0.670852 0.228242 0)
(0.638994 0.23526 0)
(0.605527 0.241825 0)
(0.570965 0.247722 0)
(0.536207 0.254416 0)
(0.501244 0.260697 0)
(0.4658 0.265855 0)
(0.429991 0.27237 0)
(0.39329 0.279198 0)
(0.355314 0.285121 0)
(0.316076 0.292039 0)
(0.276273 0.30317 0)
(0.234963 0.311598 0)
(0.193559 0.321481 0)
(0.149481 0.32332 0)
(0.10893 0.339623 0)
(0.0647535 0.343387 0)
(0.0444937 0.352734 0)
(3 8.26174e-15 0)
(3 1.88707e-14 0)
(3 2.09412e-14 0)
(3 1.65943e-14 0)
(3 1.02307e-14 0)
(3 8.7836e-16 0)
(3 -3.37869e-14 0)
(3 -3.70672e-14 0)
(3 -5.75309e-14 0)
(3 -6.66479e-14 0)
(3 -4.79722e-14 0)
(3 -7.24476e-15 0)
(3 -8.35033e-15 0)
(3 -2.44942e-15 0)
(3 1.10483e-14 0)
(3 -3.62661e-14 0)
(3 -9.80593e-14 0)
(3 -8.36274e-14 0)
(3 -3.88427e-14 0)
(3 1.26082e-15 0)
(3 4.85717e-14 0)
(3 9.78768e-14 0)
(3 5.83141e-14 0)
(3 3.21548e-14 0)
(3.00637 0.00368587 0)
(1.14997 0.242984 0)
(0.780979 0.214974 0)
(0.761815 0.236829 0)
(0.733646 0.245352 0)
(0.706612 0.249806 0)
(0.679579 0.255903 0)
(0.651893 0.263942 0)
(0.622111 0.272104 0)
(0.590285 0.279384 0)
(0.557658 0.287076 0)
(0.524365 0.294437 0)
(0.48982 0.300641 0)
(0.454022 0.308424 0)
(0.416524 0.317089 0)
(0.377105 0.325005 0)
(0.336225 0.333306 0)
(0.295283 0.345966 0)
(0.252724 0.355608 0)
(0.209803 0.367023 0)
(0.162878 0.370274 0)
(0.119251 0.388618 0)
(0.0701074 0.391674 0)
(0.0441273 0.400391 0)
(3 -2.35119e-15 0)
(3 -3.62772e-14 0)
(3 -7.49584e-14 0)
(3 -5.41353e-14 0)
(3 -3.46085e-14 0)
(3 8.98235e-15 0)
(3 -2.29777e-14 0)
(3 -9.21967e-14 0)
(3 -6.73925e-14 0)
(3 -6.87581e-14 0)
(3 -1.77432e-14 0)
(3 2.34531e-14 0)
(3 2.67751e-14 0)
(3 2.99174e-14 0)
(3 6.05784e-14 0)
(3 4.40861e-14 0)
(3 1.71557e-15 0)
(3 3.81721e-14 0)
(3 7.11823e-14 0)
(3 6.01737e-14 0)
(3 3.68137e-14 0)
(3 -7.19518e-15 0)
(3 3.3492e-14 0)
(3 -3.26627e-14 0)
(3.00018 9.89684e-06 0)
(1.28008 0.269607 0)
(0.779345 0.233261 0)
(0.747219 0.253891 0)
(0.721806 0.266045 0)
(0.69681 0.271976 0)
(0.673465 0.279129 0)
(0.651373 0.288776 0)
(0.628864 0.298699 0)
(0.604136 0.307163 0)
(0.57727 0.315669 0)
(0.548148 0.324689 0)
(0.516082 0.333391 0)
(0.481418 0.343874 0)
(0.444013 0.355493 0)
(0.403842 0.366257 0)
(0.361666 0.376287 0)
(0.319624 0.390329 0)
(0.27614 0.401006 0)
(0.232283 0.413554 0)
(0.185323 0.418173 0)
(0.140307 0.44063 0)
(0.08347 0.44977 0)
(0.032971 0.452726 0)
(3 -5.09329e-15 0)
(3 6.41367e-15 0)
(3 -4.25113e-15 0)
(3 -6.76288e-14 0)
(3 -8.41527e-14 0)
(3 -8.34897e-14 0)
(3 -4.34252e-14 0)
(3 -3.78453e-14 0)
(3 -8.67135e-15 0)
(3 -3.84095e-15 0)
(3 2.1093e-14 0)
(3 2.07911e-15 0)
(3 -8.10401e-15 0)
(3 4.67777e-14 0)
(3 6.63199e-14 0)
(3 1.00578e-13 0)
(3 5.36787e-14 0)
(3 2.73664e-14 0)
(3 3.07608e-14 0)
(3 -1.76886e-14 0)
(3 -5.60384e-14 0)
(3 -1.09948e-13 0)
(3 -2.18778e-14 0)
(3 -4.42497e-14 0)
(3 -1.86748e-08 0)
(1.49088 0.300893 0)
(0.792528 0.269434 0)
(0.731566 0.275953 0)
(0.703969 0.283143 0)
(0.679171 0.287373 0)
(0.657465 0.293668 0)
(0.638338 0.304061 0)
(0.620626 0.317251 0)
(0.601501 0.32961 0)
(0.581043 0.341274 0)
(0.559021 0.353171 0)
(0.533356 0.364989 0)
(0.503691 0.378723 0)
(0.469864 0.393919 0)
(0.431858 0.408299 0)
(0.390326 0.420653 0)
(0.347937 0.436406 0)
(0.302987 0.449117 0)
(0.255655 0.464986 0)
(0.203901 0.472051 0)
(0.153566 0.499476 0)
(0.0927432 0.516951 0)
(0.040012 0.519391 0)
(3 2.52405e-14 0)
(3 2.49548e-14 0)
(3 1.04226e-14 0)
(3 -3.83937e-14 0)
(3 -7.88836e-14 0)
(3 -9.8043e-14 0)
(3 -1.21889e-15 0)
(3 6.12433e-14 0)
(3 4.45509e-14 0)
(3 4.13548e-14 0)
(3 -7.54065e-15 0)
(3 -3.96006e-14 0)
(3 -1.18175e-14 0)
(3 8.64843e-14 0)
(3 1.0069e-13 0)
(3 6.35891e-14 0)
(3 3.8926e-14 0)
(3 4.23491e-14 0)
(3 8.70991e-15 0)
(3 -9.76065e-14 0)
(3 -1.18734e-13 0)
(3 -1.13077e-13 0)
(3 -7.31242e-14 0)
(3 3.78133e-14 0)
(3 -1.30282e-08 0)
(1.78896 0.333399 0)
(0.819603 0.321389 0)
(0.727406 0.312219 0)
(0.696969 0.308975 0)
(0.670937 0.310234 0)
(0.648414 0.31339 0)
(0.628739 0.320713 0)
(0.611703 0.332598 0)
(0.594492 0.345816 0)
(0.576572 0.359166 0)
(0.558822 0.374201 0)
(0.539395 0.390563 0)
(0.516785 0.408874 0)
(0.489737 0.428818 0)
(0.457339 0.448324 0)
(0.419161 0.464786 0)
(0.378417 0.484002 0)
(0.332948 0.500794 0)
(0.285843 0.521541 0)
(0.231177 0.531785 0)
(0.176479 0.565754 0)
(0.107822 0.587899 0)
(0.0698691 0.595109 0)
(3 -1.27723e-14 0)
(3 -4.58741e-14 0)
(3 -4.88579e-14 0)
(3 -5.82612e-15 0)
(3 -1.34883e-14 0)
(3 -3.02262e-14 0)
(3 -5.96506e-14 0)
(3 -1.04852e-14 0)
(3 3.38283e-14 0)
(3 6.01745e-14 0)
(3 5.35166e-14 0)
(3 5.8257e-14 0)
(3 6.53955e-14 0)
(3 4.9133e-14 0)
(3 4.82994e-14 0)
(3 6.59054e-14 0)
(3 7.89491e-14 0)
(3 6.24534e-14 0)
(3 -7.97157e-15 0)
(3 -6.1966e-14 0)
(3 -8.65869e-14 0)
(3 -7.874e-14 0)
(3 -4.02113e-14 0)
(3 8.67332e-14 0)
(3 -2.45964e-09 0)
(2.18967 0.353044 0)
(0.87653 0.386024 0)
(0.754381 0.346084 0)
(0.722173 0.340235 0)
(0.690574 0.338681 0)
(0.662065 0.337652 0)
(0.6369 0.342723 0)
(0.615867 0.353243 0)
(0.596627 0.365992 0)
(0.577512 0.378707 0)
(0.55958 0.393371 0)
(0.542159 0.411233 0)
(0.524098 0.433096 0)
(0.503553 0.458005 0)
(0.478718 0.483599 0)
(0.44678 0.506204 0)
(0.410552 0.530757 0)
(0.368275 0.552336 0)
(0.323057 0.57971 0)
(0.264138 0.599604 0)
(0.202571 0.647887 0)
(0.121853 0.677903 0)
(0.0745725 0.695318 0)
(3 -2.53611e-14 0)
(3 7.71607e-15 0)
(3 5.55814e-14 0)
(3 1.01425e-13 0)
(3 8.50176e-14 0)
(3 1.4147e-14 0)
(3 -7.20004e-14 0)
(3 -7.76231e-14 0)
(3 -1.53851e-14 0)
(3 1.87174e-14 0)
(3 2.72678e-14 0)
(3 5.30055e-14 0)
(3 3.08467e-14 0)
(3 -4.92123e-14 0)
(3 -8.4038e-14 0)
(3 -2.31948e-14 0)
(3 1.54643e-14 0)
(3 -7.54933e-15 0)
(3 -2.22679e-14 0)
(3 -5.00379e-15 0)
(3 -1.48859e-14 0)
(3 -2.82289e-14 0)
(3 -5.27966e-14 0)
(3 3.51632e-14 0)
(3 -2.18839e-10 0)
(2.73358 0.259686 0)
(1.00135 0.431481 0)
(0.821821 0.369075 0)
(0.790585 0.357479 0)
(0.748545 0.363908 0)
(0.708049 0.364364 0)
(0.671886 0.366803 0)
(0.641474 0.375305 0)
(0.6158 0.387942 0)
(0.592027 0.400634 0)
(0.57042 0.414577 0)
(0.551189 0.432099 0)
(0.533916 0.454887 0)
(0.516692 0.482531 0)
(0.498129 0.513384 0)
(0.472954 0.542885 0)
(0.443699 0.574414 0)
(0.405889 0.603617 0)
(0.365448 0.641953 0)
(0.310586 0.674766 0)
(0.258735 0.736287 0)
(0.173924 0.780118 0)
(0.116385 0.81243 0)
(3 1.22117e-14 0)
(3 3.52723e-14 0)
(3 8.79277e-14 0)
(3 6.80783e-14 0)
(3 7.06508e-14 0)
(3 4.80941e-14 0)
(3 3.20022e-14 0)
(3 2.01378e-14 0)
(3 -1.97121e-14 0)
(3 -1.83373e-14 0)
(3 -8.71273e-15 0)
(3 1.26232e-16 0)
(3 3.7318e-14 0)
(3 3.02949e-14 0)
(3 -4.17213e-14 0)
(3 -1.22595e-13 0)
(3 -1.04221e-13 0)
(3 -2.27618e-14 0)
(3 -9.93638e-15 0)
(3 -3.03239e-14 0)
(3 -5.69237e-14 0)
(3 -6.31213e-14 0)
(3 -8.98827e-14 0)
(3 -7.01122e-15 0)
(3 -6.65301e-12 0)
(3.05572 0.0337743 0)
(1.18139 0.404585 0)
(0.869594 0.389479 0)
(0.842054 0.400183 0)
(0.805455 0.40243 0)
(0.764092 0.402554 0)
(0.722119 0.402222 0)
(0.683662 0.406224 0)
(0.650568 0.415742 0)
(0.620969 0.426443 0)
(0.594047 0.438491 0)
(0.570627 0.454043 0)
(0.551669 0.476127 0)
(0.534554 0.504441 0)
(0.519783 0.538708 0)
(0.500442 0.574247 0)
(0.479236 0.613493 0)
(0.448578 0.651388 0)
(0.419773 0.699523 0)
(0.37181 0.742531 0)
(0.324982 0.833215 0)
(0.211718 0.940097 0)
(0.165615 1.03395 0)
(3 6.80677e-15 0)
(3 -2.11382e-14 0)
(3 -2.95689e-14 0)
(3 -3.10041e-14 0)
(3 -7.85084e-15 0)
(3 6.2352e-14 0)
(3 4.98266e-14 0)
(3 1.74868e-14 0)
(3 -3.84368e-14 0)
(3 -1.22891e-14 0)
(3 5.85752e-14 0)
(3 3.68271e-14 0)
(3 -9.71904e-16 0)
(3 -2.05157e-14 0)
(3 -7.65656e-14 0)
(3 -9.55725e-14 0)
(3 -3.33959e-14 0)
(3 2.31126e-14 0)
(3 -7.25925e-15 0)
(3 -5.27737e-14 0)
(3 -7.32577e-14 0)
(3 -5.99838e-14 0)
(3 -5.00732e-15 0)
(3 5.47779e-15 0)
(3 -9.53871e-14 0)
(3.00586 0.000305655 0)
(1.32615 0.385645 0)
(0.852057 0.422153 0)
(0.832797 0.43945 0)
(0.807036 0.440178 0)
(0.783666 0.440052 0)
(0.756046 0.439222 0)
(0.723934 0.441151 0)
(0.691094 0.448699 0)
(0.658398 0.458413 0)
(0.627642 0.468863 0)
(0.5995 0.480731 0)
(0.577412 0.500336 0)
(0.558135 0.527016 0)
(0.545505 0.562258 0)
(0.530103 0.601818 0)
(0.517725 0.647381 0)
(0.495283 0.692712 0)
(0.479376 0.751284 0)
(0.440114 0.820145 0)
(0.419827 0.948683 0)
(0.402378 1.0957 0)
(0.544638 1.34675 0)
(3 4.10934e-15 0)
(3 -9.28956e-15 0)
(3 -4.10494e-14 0)
(3 -5.66766e-14 0)
(3 4.95111e-15 0)
(3 3.85909e-14 0)
(3 5.31779e-14 0)
(3 5.10507e-14 0)
(3 2.95694e-14 0)
(3 4.72682e-14 0)
(3 8.99692e-14 0)
(3 9.35434e-14 0)
(3 -6.92281e-14 0)
(3 -1.02031e-13 0)
(3 -1.09934e-13 0)
(3 -5.98567e-14 0)
(3 -3.52092e-14 0)
(3 -2.9792e-14 0)
(3 -4.1585e-14 0)
(3 -5.96701e-14 0)
(3 -6.59751e-14 0)
(3 -6.18147e-14 0)
(3 -6.1549e-14 0)
(3 -4.92744e-14 0)
(3 -2.49219e-14 0)
(3.00003 -1.30038e-06 0)
(1.61358 0.411232 0)
(0.839091 0.428255 0)
(0.811048 0.44427 0)
(0.797098 0.452385 0)
(0.782381 0.458014 0)
(0.765969 0.464366 0)
(0.745174 0.471145 0)
(0.72127 0.481021 0)
(0.694364 0.49154 0)
(0.666289 0.502102 0)
(0.637382 0.510663 0)
(0.612948 0.527082 0)
(0.590685 0.550234 0)
(0.578027 0.584342 0)
(0.564871 0.625288 0)
(0.559901 0.674818 0)
(0.546934 0.727606 0)
(0.544707 0.795797 0)
(0.534756 0.884008 0)
(0.547709 1.018 0)
(0.632981 1.16634 0)
(0.939419 1.36122 0)
(3 -1.36501e-16 0)
(3 2.06351e-14 0)
(3 -2.41099e-15 0)
(3 -2.94669e-14 0)
(3 -2.28762e-14 0)
(3 1.18774e-17 0)
(3 2.18055e-14 0)
(3 8.51697e-15 0)
(3 1.0964e-14 0)
(3 8.13545e-15 0)
(3 -3.46708e-14 0)
(3 -3.24891e-14 0)
(3 -6.00243e-14 0)
(3 -2.33498e-14 0)
(3 8.76203e-15 0)
(3 2.18001e-14 0)
(3 -1.54657e-14 0)
(3 9.84102e-15 0)
(3 2.75989e-14 0)
(3 7.26319e-15 0)
(3 4.09074e-15 0)
(3 3.81919e-14 0)
(3 3.98972e-14 0)
(3 6.95884e-14 0)
(3 3.99605e-14 0)
(3 -1.28031e-06 0)
(2.10893 0.437066 0)
(0.895949 0.484086 0)
(0.811629 0.456202 0)
(0.803346 0.465849 0)
(0.789138 0.47435 0)
(0.774649 0.482747 0)
(0.759109 0.492285 0)
(0.742786 0.505086 0)
(0.723669 0.519044 0)
(0.702449 0.533516 0)
(0.677195 0.543076 0)
(0.653764 0.558509 0)
(0.630128 0.577596 0)
(0.616546 0.608791 0)
(0.605141 0.648117 0)
(0.605352 0.698092 0)
(0.603027 0.755346 0)
(0.614503 0.827818 0)
(0.632453 0.921939 0)
(0.68154 1.04071 0)
(0.831079 1.17524 0)
(1.14892 1.29176 0)
(3 1.67501e-15 0)
(3 -2.39734e-14 0)
(3 -6.12787e-15 0)
(3 3.21896e-14 0)
(3 6.00361e-15 0)
(3 -2.23588e-14 0)
(3 -2.40912e-14 0)
(3 -3.07148e-14 0)
(3 -3.56223e-14 0)
(3 -2.00944e-14 0)
(3 -2.88552e-14 0)
(3 -6.34687e-14 0)
(3 -2.7788e-14 0)
(3 4.51427e-14 0)
(3 8.54923e-14 0)
(3 7.41053e-14 0)
(3 3.72066e-14 0)
(3 7.13785e-14 0)
(3 1.61751e-13 0)
(3 1.39756e-13 0)
(3 1.39742e-13 0)
(3 1.72724e-13 0)
(3 1.95446e-13 0)
(3 1.82603e-13 0)
(3 1.13205e-13 0)
(3 -2.60899e-07 0)
(2.79045 0.274416 0)
(1.05613 0.529453 0)
(0.870247 0.46666 0)
(0.841969 0.476262 0)
(0.815813 0.490431 0)
(0.794534 0.500559 0)
(0.776889 0.51073 0)
(0.76244 0.524411 0)
(0.748528 0.540649 0)
(0.734676 0.558864 0)
(0.715856 0.571687 0)
(0.697343 0.588613 0)
(0.676018 0.605115 0)
(0.662238 0.633058 0)
(0.652114 0.66925 0)
(0.65508 0.716936 0)
(0.661329 0.774461 0)
(0.685525 0.84509 0)
(0.722811 0.937081 0)
(0.804888 1.04587 0)
(0.974809 1.15061 0)
(1.25743 1.22072 0)
(3 3.211e-15 0)
(3 -1.39061e-14 0)
(3 4.78217e-15 0)
(3 5.72325e-14 0)
(3 9.27713e-14 0)
(3 6.08104e-14 0)
(3 2.07161e-14 0)
(3 4.61321e-14 0)
(3 4.6489e-14 0)
(3 5.54818e-14 0)
(3 5.16833e-14 0)
(3 5.63755e-14 0)
(3 6.26181e-15 0)
(3 8.55021e-15 0)
(3 4.8365e-14 0)
(3 7.35372e-14 0)
(3 6.63304e-14 0)
(3 7.17357e-14 0)
(3 6.65585e-14 0)
(3 5.06783e-14 0)
(3 3.46827e-14 0)
(3 4.66523e-14 0)
(3 1.09643e-13 0)
(3 1.21986e-13 0)
(3 9.83885e-14 0)
(3 -2.52571e-08 0)
(3.06608 0.0235662 0)
(1.30145 0.502722 0)
(0.917883 0.504075 0)
(0.881506 0.516314 0)
(0.851067 0.51793 0)
(0.823612 0.522512 0)
(0.801891 0.52938 0)
(0.785235 0.541935 0)
(0.772558 0.55839 0)
(0.763273 0.578714 0)
(0.750382 0.595829 0)
(0.738181 0.61616 0)
(0.722557 0.633566 0)
(0.711405 0.659486 0)
(0.70346 0.691895 0)
(0.708391 0.73516 0)
(0.720639 0.78861 0)
(0.753612 0.852525 0)
(0.803763 0.934653 0)
(0.903416 1.02976 0)
(1.07188 1.1083 0)
(1.30606 1.15513 0)
(3 -1.28499e-15 0)
(3 3.18583e-14 0)
(3 1.64507e-14 0)
(3 1.36866e-14 0)
(3 4.68317e-14 0)
(3 8.60681e-14 0)
(3 1.00388e-13 0)
(3 9.96687e-14 0)
(3 6.95374e-14 0)
(3 -7.59596e-15 0)
(3 -1.62499e-14 0)
(3 -6.25714e-15 0)
(3 -1.74694e-14 0)
(3 -4.02361e-15 0)
(3 1.80196e-14 0)
(3 6.59483e-14 0)
(3 6.96225e-14 0)
(3 3.62842e-14 0)
(3 -6.14575e-14 0)
(3 -9.32079e-14 0)
(3 -8.68244e-14 0)
(3 -1.08239e-13 0)
(3 -6.98576e-14 0)
(3 -2.02326e-14 0)
(3 4.50567e-14 0)
(3 -9.2243e-10 0)
(3.00383 2.32559e-05 0)
(1.56328 0.490591 0)
(0.90064 0.554761 0)
(0.871309 0.543694 0)
(0.856876 0.54588 0)
(0.840783 0.551388 0)
(0.82341 0.554652 0)
(0.807925 0.563629 0)
(0.795695 0.577171 0)
(0.789293 0.596477 0)
(0.781069 0.615589 0)
(0.775511 0.637942 0)
(0.766701 0.657909 0)
(0.761007 0.683504 0)
(0.757093 0.712927 0)
(0.764125 0.75161 0)
(0.780568 0.799292 0)
(0.817699 0.854816 0)
(0.875552 0.924267 0)
(0.981102 1.00417 0)
(1.13623 1.06397 0)
(1.33159 1.09576 0)
(3 6.89318e-15 0)
(3 -6.76625e-15 0)
(3 -1.76869e-14 0)
(3 -4.65594e-14 0)
(3 -3.87327e-14 0)
(3 1.04987e-14 0)
(3 8.14135e-14 0)
(3 6.94215e-14 0)
(3 3.42617e-14 0)
(3 -5.4877e-14 0)
(3 -1.95082e-14 0)
(3 -4.16201e-14 0)
(3 -1.42647e-14 0)
(3 -8.99868e-15 0)
(3 -3.71196e-14 0)
(3 -7.04335e-15 0)
(3 1.4661e-14 0)
(3 -4.93965e-14 0)
(3 -6.31889e-14 0)
(3 -3.33226e-14 0)
(3 -1.86998e-14 0)
(3 -3.61413e-14 0)
(3 -6.75689e-15 0)
(3 -2.0297e-14 0)
(3 6.79548e-15 0)
(3 -1.28627e-11 0)
(3.00001 -6.94608e-07 0)
(2.16787 0.488061 0)
(0.960174 0.585536 0)
(0.88959 0.544891 0)
(0.882076 0.552768 0)
(0.871041 0.565054 0)
(0.854904 0.57329 0)
(0.839352 0.583169 0)
(0.825214 0.59443 0)
(0.818107 0.612448 0)
(0.811334 0.632014 0)
(0.809642 0.655308 0)
(0.806581 0.677964 0)
(0.807289 0.704345 0)
(0.80937 0.732522 0)
(0.81986 0.767069 0)
(0.839869 0.808479 0)
(0.878176 0.854955 0)
(0.938079 0.910019 0)
(1.03992 0.973483 0)
(1.17487 1.01771 0)
(1.34294 1.04146 0)
(3 8.22629e-15 0)
(3 1.71381e-14 0)
(3 1.38287e-14 0)
(3 2.37618e-15 0)
(3 -1.57216e-14 0)
(3 1.02305e-14 0)
(3 -4.01853e-14 0)
(3 -4.77885e-14 0)
(3 -6.06384e-14 0)
(3 -4.71015e-14 0)
(3 -5.88926e-14 0)
(3 -5.8208e-14 0)
(3 -1.60401e-14 0)
(3 -1.96805e-14 0)
(3 -7.51588e-14 0)
(3 -3.20776e-14 0)
(3 1.87496e-14 0)
(3 3.55067e-14 0)
(3 7.48466e-14 0)
(3 3.92802e-14 0)
(3 1.32199e-14 0)
(3 6.76798e-14 0)
(3 8.27539e-14 0)
(3 9.09844e-14 0)
(3 1.46915e-13 0)
(3 1.09366e-14 0)
(3 -7.08221e-07 0)
(2.94832 0.192931 0)
(1.17112 0.587683 0)
(0.94705 0.560306 0)
(0.926487 0.567855 0)
(0.909214 0.583386 0)
(0.891872 0.593198 0)
(0.876124 0.604269 0)
(0.859913 0.613845 0)
(0.850045 0.629963 0)
(0.842473 0.647946 0)
(0.841777 0.670254 0)
(0.842491 0.693686 0)
(0.848509 0.720269 0)
(0.857083 0.748554 0)
(0.872674 0.780441 0)
(0.89649 0.81678 0)
(0.936057 0.856278 0)
(0.995663 0.899726 0)
(1.08896 0.948142 0)
(1.20706 0.981435 0)
(1.35184 1.00067 0)
(3 5.35424e-15 0)
(3 3.83205e-14 0)
(3 3.94614e-14 0)
(3 4.24428e-14 0)
(3 3.13636e-14 0)
(3 -1.00839e-14 0)
(3 -8.48832e-14 0)
(3 -5.50063e-14 0)
(3 -1.87761e-14 0)
(3 -2.85949e-14 0)
(3 -4.54065e-14 0)
(3 -5.10812e-14 0)
(3 -3.15764e-14 0)
(3 2.88958e-15 0)
(3 1.05157e-14 0)
(3 1.64302e-14 0)
(3 -1.84251e-14 0)
(3 6.59812e-14 0)
(3 9.10522e-14 0)
(3 9.19601e-14 0)
(3 8.74965e-14 0)
(3 1.20871e-13 0)
(3 8.01232e-14 0)
(3 1.10616e-13 0)
(3 1.16264e-13 0)
(3 1.19994e-13 0)
(3 -1.40976e-07 0)
(3.04416 0.00783529 0)
(1.3956 0.55415 0)
(0.966269 0.612303 0)
(0.934729 0.603602 0)
(0.915235 0.609544 0)
(0.90361 0.617281 0)
(0.895405 0.628872 0)
(0.885482 0.637544 0)
(0.8779 0.651069 0)
(0.871912 0.665899 0)
(0.872111 0.685244 0)
(0.87558 0.706928 0)
(0.885212 0.731847 0)
(0.898899 0.759253 0)
(0.919809 0.789269 0)
(0.948043 0.822407 0)
(0.990022 0.855336 0)
(1.04762 0.889045 0)
(1.12862 0.923518 0)
(1.23309 0.948645 0)
(1.35295 0.962926 0)
(3 8.53402e-15 0)
(3 -2.93431e-15 0)
(3 -1.41915e-14 0)
(3 -1.69993e-14 0)
(3 -1.07896e-14 0)
(3 -3.11124e-14 0)
(3 -6.29679e-14 0)
(3 -3.27183e-14 0)
(3 7.0684e-14 0)
(3 8.25508e-14 0)
(3 6.61929e-14 0)
(3 5.67587e-14 0)
(3 1.91264e-14 0)
(3 3.41999e-15 0)
(3 -1.85155e-14 0)
(3 -1.02471e-13 0)
(3 -1.00919e-13 0)
(3 -6.94849e-14 0)
(3 8.80368e-14 0)
(3 1.10334e-13 0)
(3 9.26557e-14 0)
(3 2.31855e-14 0)
(3 1.57813e-14 0)
(3 2.58185e-14 0)
(3 2.86926e-14 0)
(3 1.45786e-14 0)
(3 -1.17004e-08 0)
(3.00102 -5.34266e-06 0)
(1.86983 0.550981 0)
(0.98134 0.643427 0)
(0.938223 0.621016 0)
(0.928957 0.626024 0)
(0.921496 0.631477 0)
(0.916802 0.642633 0)
(0.91124 0.653267 0)
(0.906611 0.667374 0)
(0.9027 0.681392 0)
(0.903269 0.698844 0)
(0.907961 0.71852 0)
(0.919275 0.741354 0)
(0.935839 0.76695 0)
(0.960533 0.79466 0)
(0.993096 0.82583 0)
(1.03855 0.856009 0)
(1.09529 0.88372 0)
(1.16701 0.908865 0)
(1.25884 0.928316 0)
(1.3599 0.937752 0)
(3 -1.17381e-14 0)
(3 -1.53935e-14 0)
(3 -2.75935e-15 0)
(3 9.62194e-15 0)
(3 -1.37819e-14 0)
(3 -3.54416e-15 0)
(3 4.53979e-14 0)
(3 1.12376e-14 0)
(3 8.43758e-16 0)
(3 -1.05573e-14 0)
(3 -1.86151e-14 0)
(3 -5.04818e-15 0)
(3 3.44678e-14 0)
(3 -2.76026e-14 0)
(3 -9.7739e-16 0)
(3 1.1844e-14 0)
(3 -6.85163e-15 0)
(3 -3.53553e-14 0)
(3 -1.72651e-14 0)
(3 -1.85056e-14 0)
(3 2.89352e-14 0)
(3 -1.66245e-14 0)
(3 -1.5277e-13 0)
(3 -1.59276e-13 0)
(3 -1.73245e-13 0)
(3 -1.06433e-13 0)
(3 -1.18158e-10 0)
(3.00002 -5.89624e-06 0)
(2.72261 0.333822 0)
(1.13053 0.665803 0)
(0.979988 0.626417 0)
(0.961905 0.631453 0)
(0.950633 0.640638 0)
(0.943637 0.653221 0)
(0.938488 0.665617 0)
(0.935671 0.681047 0)
(0.934032 0.695805 0)
(0.935396 0.712097 0)
(0.940439 0.729423 0)
(0.952053 0.749237 0)
(0.969553 0.771523 0)
(0.995495 0.795566 0)
(1.03005 0.822686 0)
(1.07746 0.851382 0)
(1.13318 0.874759 0)
(1.20004 0.89419 0)
(1.28027 0.908112 0)
(1.36779 0.912314 0)
(3 8.44707e-16 0)
(3 -1.82733e-14 0)
(3 -1.69043e-14 0)
(3 -2.46098e-14 0)
(3 -1.02814e-14 0)
(3 1.40762e-14 0)
(3 3.22987e-14 0)
(3 1.70957e-14 0)
(3 -3.204e-16 0)
(3 -1.51688e-14 0)
(3 -2.17902e-14 0)
(3 -2.42281e-14 0)
(3 -6.71259e-15 0)
(3 2.44789e-14 0)
(3 3.14085e-15 0)
(3 5.83656e-14 0)
(3 4.07809e-14 0)
(3 1.56266e-14 0)
(3 -6.27946e-14 0)
(3 -3.9873e-14 0)
(3 -1.6367e-14 0)
(3 -6.04186e-15 0)
(3 -1.14998e-13 0)
(3 -1.62424e-13 0)
(3 -2.55546e-13 0)
(3 -1.20625e-13 0)
(3 -2.99947e-13 0)
(3 -1.67081e-06 0)
(3.07099 0.0269579 0)
(1.42036 0.633688 0)
(1.0294 0.670669 0)
(0.996551 0.665149 0)
(0.976842 0.666342 0)
(0.965494 0.672663 0)
(0.960262 0.681852 0)
(0.959794 0.695962 0)
(0.96158 0.710956 0)
(0.965622 0.72692 0)
(0.972022 0.741798 0)
(0.983571 0.759089 0)
(1.0019 0.778253 0)
(1.02825 0.798348 0)
(1.06318 0.821213 0)
(1.11 0.84685 0)
(1.1648 0.86759 0)
(1.22954 0.885124 0)
(1.30162 0.896739 0)
(1.38049 0.898772 0)
(3 8.12752e-15 0)
(3 6.73591e-15 0)
(3 -4.75581e-14 0)
(3 -8.43421e-14 0)
(3 -5.79899e-14 0)
(3 -2.29057e-14 0)
(3 -3.6264e-14 0)
(3 -7.37271e-15 0)
(3 -4.50091e-15 0)
(3 1.33071e-14 0)
(3 4.36088e-14 0)
(3 1.0049e-13 0)
(3 6.0646e-14 0)
(3 6.01767e-14 0)
(3 1.92324e-14 0)
(3 5.99972e-14 0)
(3 1.03976e-13 0)
(3 6.9527e-14 0)
(3 1.55596e-14 0)
(3 -2.27467e-14 0)
(3 -2.94132e-15 0)
(3 1.12433e-14 0)
(3 5.60891e-14 0)
(3 2.58968e-14 0)
(3 -1.5222e-15 0)
(3 -6.69814e-14 0)
(3 -5.74118e-14 0)
(3 -1.80723e-07 0)
(3.00385 8.6772e-05 0)
(1.9387 0.608942 0)
(1.05259 0.715209 0)
(1.01714 0.689007 0)
(1.01045 0.685111 0)
(0.998932 0.688174 0)
(0.990425 0.693148 0)
(0.988199 0.705382 0)
(0.990623 0.720346 0)
(0.996275 0.7366 0)
(1.00421 0.751443 0)
(1.01551 0.765117 0)
(1.03369 0.78181 0)
(1.05928 0.79865 0)
(1.09266 0.817359 0)
(1.13585 0.837473 0)
(1.18692 0.854773 0)
(1.24833 0.870703 0)
(1.3146 0.880935 0)
(1.38927 0.883064 0)
(3 -1.49183e-14 0)
(3 1.64617e-15 0)
(3 1.75368e-14 0)
(3 2.02249e-14 0)
(3 1.39274e-15 0)
(3 1.81207e-14 0)
(3 2.41175e-14 0)
(3 1.15785e-14 0)
(3 -2.13064e-14 0)
(3 -1.96598e-14 0)
(3 8.04611e-14 0)
(3 1.10501e-13 0)
(3 1.21447e-13 0)
(3 1.52155e-13 0)
(3 1.41259e-13 0)
(3 1.03345e-13 0)
(3 8.64206e-14 0)
(3 6.38679e-14 0)
(3 -3.91881e-14 0)
(3 -1.54147e-13 0)
(3 -1.0804e-13 0)
(3 1.84995e-14 0)
(3 1.03801e-13 0)
(3 1.08453e-13 0)
(3 4.8304e-14 0)
(3 -5.4431e-14 0)
(3 -4.64538e-15 0)
(3 -6.79022e-09 0)
(3.00001 -2.85081e-07 0)
(2.88109 0.257859 0)
(1.24329 0.694583 0)
(1.06003 0.690053 0)
(1.05449 0.696857 0)
(1.04369 0.705726 0)
(1.03081 0.710138 0)
(1.02273 0.719435 0)
(1.02114 0.732748 0)
(1.02558 0.748354 0)
(1.03412 0.763483 0)
(1.04627 0.775902 0)
(1.06397 0.788949 0)
(1.08894 0.80328 0)
(1.12133 0.818822 0)
(1.16143 0.834031 0)
(1.20923 0.848522 0)
(1.26595 0.86167 0)
(1.32745 0.870151 0)
(1.39685 0.87392 0)
(3 -3.32739e-14 0)
(3 -5.494e-14 0)
(3 1.80118e-14 0)
(3 8.30482e-14 0)
(3 8.25581e-14 0)
(3 1.9484e-14 0)
(3 2.89624e-15 0)
(3 -1.35134e-14 0)
(3 -2.21575e-14 0)
(3 -2.46949e-14 0)
(3 -6.6319e-15 0)
(3 9.44256e-15 0)
(3 6.33302e-14 0)
(3 1.03598e-13 0)
(3 1.16841e-13 0)
(3 5.98196e-14 0)
(3 4.38015e-14 0)
(3 -5.33789e-14 0)
(3 -1.55571e-13 0)
(3 -1.73744e-13 0)
(3 -1.07102e-13 0)
(3 -3.121e-14 0)
(3 -1.0189e-15 0)
(3 4.69698e-16 0)
(3 -4.03802e-14 0)
(3 -1.15405e-13 0)
(3 -5.79438e-15 0)