/*--------------------------------*- C++ -*----------------------------------*\
  =========                 |
  \\      /  F ield         | OpenFOAM: The Open Source CFD Toolbox
   \\    /   O peration     | Website:  https://openfoam.org
    \\  /    A nd           | Version:  10
     \\/     M anipulation  |
\*---------------------------------------------------------------------------*/
FoamFile
{
    format      ascii;
    class       volScalarField;
    location    "70";
    object      p;
}
// * * * * * * * * * * * * * * * * * * * * * * * * * * * * * * * * * * * * * //

dimensions      [0 2 -2 0 0 0 0];

internalField   nonuniform List<scalar> 
2200
(
0.772192
0.750694
0.734791
0.719129
0.704527
0.69202
0.681682
0.673599
0.667919
0.66502
0.66556
0.669387
0.675768
0.684353
0.69505
0.707836
0.722637
0.738572
0.75462
0.776118
0.704611
0.701353
0.698432
0.694319
0.688867
0.682406
0.675806
0.669881
0.665416
0.663095
0.663616
0.666971
0.672175
0.678654
0.685658
0.692423
0.698091
0.702191
0.705044
0.708407
0.664669
0.664891
0.666958
0.668311
0.668711
0.66787
0.665906
0.663257
0.660753
0.659315
0.659916
0.662435
0.665756
0.669013
0.671363
0.672374
0.672107
0.671108
0.669466
0.669219
0.642163
0.643617
0.646214
0.64867
0.651125
0.653162
0.654338
0.654598
0.654267
0.654035
0.65472
0.656162
0.65741
0.657834
0.657175
0.655522
0.653379
0.651205
0.648601
0.647198
0.627765
0.629737
0.632562
0.63541
0.638286
0.641136
0.643623
0.645522
0.646792
0.647632
0.64845
0.648984
0.648802
0.647745
0.645917
0.643565
0.641032
0.638318
0.635533
0.63361
0.620378
0.621977
0.624188
0.62673
0.629412
0.632102
0.634723
0.637179
0.639252
0.640839
0.641795
0.641902
0.641128
0.639663
0.637807
0.635697
0.633387
0.631051
0.628956
0.627382
0.616898
0.61792
0.619198
0.621079
0.623244
0.62544
0.627674
0.630019
0.632306
0.634236
0.635363
0.635468
0.634768
0.633621
0.632276
0.630753
0.62908
0.62752
0.626413
0.625396
0.614166
0.614835
0.615474
0.616792
0.618429
0.620148
0.621946
0.623935
0.626085
0.628145
0.629518
0.629938
0.629709
0.629157
0.628433
0.627532
0.626512
0.625608
0.625172
0.624493
0.610835
0.611279
0.611685
0.612699
0.613989
0.61541
0.61696
0.6187
0.620657
0.62275
0.624405
0.625321
0.625686
0.625717
0.625499
0.625079
0.624537
0.624033
0.623858
0.623392
0.606682
0.606977
0.607342
0.608229
0.609366
0.610676
0.612167
0.613853
0.615765
0.617944
0.619979
0.62145
0.622353
0.62284
0.62301
0.622942
0.622698
0.622406
0.622292
0.621965
0.601849
0.602049
0.602427
0.603274
0.604398
0.605749
0.607333
0.60916
0.61125
0.613658
0.616133
0.618143
0.619515
0.620354
0.620799
0.620972
0.620917
0.620782
0.620694
0.620453
0.596514
0.596659
0.597038
0.597866
0.599036
0.60051
0.602283
0.604359
0.606785
0.609632
0.612667
0.615212
0.617003
0.618178
0.618876
0.619238
0.619398
0.619413
0.619359
0.619164
0.59072
0.590827
0.591211
0.592049
0.593309
0.594953
0.596978
0.599409
0.602313
0.605768
0.609441
0.612567
0.614817
0.616342
0.61734
0.617967
0.618347
0.618502
0.618492
0.618318
0.584525
0.584588
0.584981
0.585857
0.587226
0.589055
0.591349
0.594177
0.597643
0.601823
0.606323
0.61016
0.612951
0.614934
0.616335
0.617286
0.617915
0.618225
0.618257
0.618088
0.577754
0.57779
0.578217
0.579135
0.580653
0.582696
0.585303
0.588601
0.592759
0.597835
0.603288
0.60797
0.611455
0.61402
0.615906
0.61725
0.618153
0.618626
0.618708
0.618539
0.57033
0.570287
0.570726
0.571761
0.573511
0.575843
0.578846
0.582709
0.587646
0.593788
0.600387
0.606065
0.610446
0.613714
0.616184
0.617971
0.619185
0.619826
0.619957
0.619782
0.561984
0.561986
0.56242
0.563538
0.565535
0.568188
0.571664
0.576193
0.582036
0.589364
0.597465
0.604446
0.609847
0.614007
0.617154
0.619474
0.621045
0.621864
0.622051
0.621862
0.552492
0.552508
0.552964
0.554233
0.556532
0.559624
0.563739
0.569127
0.576118
0.584932
0.594623
0.603201
0.609862
0.615016
0.618946
0.621847
0.623824
0.624838
0.625078
0.62487
0.541505
0.541478
0.542054
0.543547
0.546191
0.549863
0.5548
0.561274
0.569672
0.580342
0.592041
0.602384
0.610487
0.616768
0.621572
0.625181
0.627619
0.628821
0.629105
0.628869
0.52838
0.528311
0.529002
0.53088
0.534103
0.53857
0.544589
0.552498
0.562727
0.575588
0.589707
0.602049
0.611779
0.619343
0.625171
0.629528
0.632452
0.633855
0.63417
0.633905
0.51287
0.512757
0.513534
0.515771
0.519769
0.525357
0.532837
0.542622
0.555196
0.570794
0.587633
0.602352
0.613861
0.622827
0.629753
0.634966
0.638412
0.639978
0.640303
0.640004
0.494042
0.493968
0.49499
0.497764
0.502707
0.509719
0.519162
0.531454
0.547018
0.565948
0.585921
0.60319
0.616632
0.627167
0.635343
0.64148
0.645429
0.647154
0.647453
0.647124
0.470737
0.470588
0.471926
0.475573
0.482041
0.491221
0.50343
0.519064
0.538343
0.561153
0.584755
0.604828
0.620429
0.632541
0.641966
0.649017
0.653422
0.655242
0.655471
0.655121
0.440772
0.440798
0.442919
0.448025
0.456868
0.469273
0.48537
0.505295
0.529045
0.556358
0.583978
0.607133
0.624934
0.638777
0.649552
0.657477
0.662216
0.664062
0.664183
0.66382
0.401312
0.401565
0.405135
0.413176
0.426018
0.44335
0.464773
0.490159
0.519318
0.551834
0.583853
0.610169
0.630281
0.645873
0.65792
0.666614
0.671531
0.673272
0.673266
0.672913
0.348706
0.349183
0.356327
0.369694
0.389138
0.413792
0.44229
0.474389
0.509827
0.548023
0.584598
0.614172
0.63655
0.653803
0.667068
0.676255
0.680954
0.68227
0.682125
0.681838
0.280042
0.282775
0.298106
0.319969
0.348421
0.382012
0.41874
0.458312
0.500586
0.545073
0.586726
0.619977
0.645043
0.664357
0.678824
0.688401
0.692708
0.693423
0.693314
0.693099
0.201907
0.211715
0.237316
0.268875
0.307535
0.35036
0.395354
0.442642
0.492189
0.543406
0.590641
0.628055
0.656217
0.677512
0.693321
0.702957
0.706648
0.706817
0.706831
0.706697
0.132187
0.146853
0.179138
0.219861
0.268263
0.319965
0.373058
0.428143
0.484953
0.542688
0.59532
0.636697
0.667481
0.690619
0.707304
0.716675
0.719903
0.719812
0.719961
0.719883
0.0791195
0.0928434
0.12969
0.176485
0.23241
0.291811
0.352427
0.414771
0.478413
0.542546
0.600512
0.645644
0.678765
0.703458
0.720944
0.730602
0.733257
0.733452
0.733705
0.733675
0.0351874
0.0481007
0.0889925
0.139798
0.201233
0.266636
0.33368
0.402515
0.472509
0.542738
0.605701
0.654357
0.69004
0.716397
0.734896
0.744833
0.747826
0.748358
0.748407
0.748489
-0.0018878
0.0110031
0.0545553
0.108325
0.174113
0.244356
0.31691
0.391479
0.467195
0.542905
0.610569
0.6628
0.701023
0.728982
0.748714
0.759352
0.762797
0.763318
0.763317
0.763379
-0.0343535
-0.0211978
0.0245142
0.08089
0.150355
0.224658
0.301902
0.381399
0.462173
0.542969
0.615385
0.671116
0.711515
0.741199
0.762161
0.773088
0.776819
0.777349
0.77739
0.777438
-0.0628928
-0.049883
-0.00240477
0.0564056
0.129057
0.206842
0.288133
0.371932
0.457366
0.543204
0.620269
0.67909
0.721519
0.752488
0.77436
0.785774
0.789712
0.790337
0.790374
0.790413
-0.0889652
-0.0759171
-0.027128
0.0340303
0.109517
0.190394
0.275271
0.362974
0.452836
0.54346
0.624594
0.686259
0.73073
0.763007
0.78528
0.797124
0.801394
0.802086
0.802124
0.802142
-0.112877
-0.099799
-0.0501686
0.0132053
0.0912032
0.174861
0.262988
0.354304
0.448179
0.542913
0.627934
0.692728
0.739175
0.772325
0.794959
0.807382
0.811733
0.812526
0.81255
0.812548
-0.135457
-0.122019
-0.0717829
-0.00643381
0.0737486
0.159954
0.251044
0.34554
0.44287
0.541471
0.63075
0.698581
0.746718
0.781006
0.803811
0.816427
0.820878
0.82172
0.821732
0.82171
-0.156736
-0.143011
-0.0922075
-0.0251378
0.0569264
0.145407
0.239075
0.336336
0.436867
0.539374
0.632829
0.703795
0.753898
0.789041
0.812042
0.824559
0.828909
0.829779
0.829771
0.829729
-0.17682
-0.163131
-0.111607
-0.0430987
0.040539
0.130998
0.226936
0.326711
0.430273
0.536509
0.634003
0.708441
0.760758
0.796972
0.819897
0.831788
0.836047
0.83683
0.83682
0.836754
-0.196051
-0.182232
-0.130161
-0.0604798
0.0244824
0.116655
0.214599
0.316707
0.423102
0.53282
0.634363
0.712508
0.767588
0.804833
0.827479
0.838764
0.842469
0.842993
0.84297
0.842892
-0.21487
-0.200557
-0.148045
-0.0773745
0.00871151
0.102376
0.202133
0.306396
0.415375
0.528314
0.633877
0.71602
0.774247
0.813215
0.835523
0.845528
0.848217
0.848333
0.848305
0.848308
-0.233254
-0.218235
-0.165388
-0.0938399
-0.00675807
0.0882238
0.189579
0.29576
0.407058
0.522944
0.632421
0.718921
0.780897
0.822174
0.844486
0.853018
0.853611
0.853166
0.852815
0.852687
-0.251227
-0.2355
-0.18226
-0.109869
-0.0218986
0.0742261
0.176963
0.284809
0.398167
0.516747
0.629937
0.721019
0.787289
0.832009
0.855474
0.861957
0.860061
0.858496
0.858461
0.859503
-0.268573
-0.252315
-0.198652
-0.125454
-0.0366851
0.0604194
0.164304
0.273557
0.388738
0.509742
0.626312
0.722054
0.793359
0.842524
0.868688
0.874519
0.869629
0.862665
0.858085
0.857385
-0.285347
-0.268685
-0.214534
-0.140563
-0.0510947
0.0468209
0.151639
0.26208
0.378873
0.502001
0.621528
0.721753
0.798392
0.853497
0.884447
0.891498
0.886129
0.87607
0.87677
0.88095
-0.301465
-0.284471
-0.229844
-0.155181
-0.0651089
0.0334738
0.139042
0.250475
0.368655
0.493595
0.615598
0.719879
0.802144
0.863937
0.90169
0.913266
0.906628
0.877458
0.840714
0.809019
-0.316942
-0.299712
-0.244618
-0.169373
-0.0788252
0.02026
0.12639
0.238604
0.3579
0.484328
0.608317
0.716
0.803441
0.872983
0.919972
0.93906
0.945533
0.918069
0.935719
0.99857
-0.331699
-0.314375
-0.258926
-0.18329
-0.0924301
0.00696853
0.113433
0.226138
0.346152
0.473589
0.599056
0.709276
0.801282
0.877627
0.931032
0.95517
0.953066
0.922888
0.877744
0.895723
-0.345747
-0.328493
-0.272739
-0.196866
-0.105831
-0.00629617
0.100293
0.213196
0.333509
0.461443
0.587777
0.69936
0.793327
0.873229
0.92849
0.953471
0.930446
0.869595
0.802802
0.789542
-0.359048
-0.341997
-0.286032
-0.210104
-0.11903
-0.0195266
0.0869794
0.199785
0.319977
0.447845
0.574272
0.685844
0.779192
0.855957
0.906325
0.905156
0.8638
0.781176
0.703842
0.67729
-0.371662
-0.354945
-0.298841
-0.223007
-0.13203
-0.0327343
0.0734823
0.185908
0.305587
0.432818
0.558463
0.668447
0.757227
0.82277
0.848458
0.829639
0.763103
0.657458
0.567508
0.542565
-0.384004
-0.367658
-0.311516
-0.235937
-0.145186
-0.0462303
0.059532
0.171343
0.290165
0.416189
0.54008
0.646557
0.728228
0.777365
0.769602
0.729926
0.611354
0.484875
0.374759
0.345078
-0.396933
-0.380993
-0.32477
-0.24948
-0.159029
-0.0604772
0.044732
0.155766
0.273466
0.397762
0.51886
0.619696
0.694091
0.717438
0.682546
0.588393
0.427817
0.271716
0.139545
0.109688
-0.410935
-0.395202
-0.338843
-0.263876
-0.173752
-0.0756054
0.0290022
0.139146
0.255492
0.377549
0.494744
0.588782
0.652433
0.646223
0.592776
0.437659
0.234795
0.019748
-0.16209
-0.212635
-0.426153
-0.410541
-0.353882
-0.279131
-0.189309
-0.0915778
0.0123753
0.121513
0.236292
0.355635
0.467736
0.555185
0.603458
0.565423
0.475767
0.284736
0.0520468
-0.23798
-0.559135
-0.709305
-0.442635
-0.426921
-0.369909
-0.295368
-0.205805
-0.108476
-0.00522183
0.102808
0.215819
0.332045
0.438054
0.518723
0.548596
0.480127
0.340405
0.133475
-0.10072
-0.444756
-1.02927
-1.59977
-0.460496
-0.444646
-0.387112
-0.312619
-0.223218
-0.126276
-0.0237498
0.0830988
0.194223
0.307144
0.406844
0.479379
0.489549
0.404939
0.210579
-0.0235227
-0.22621
-0.460306
-1.01101
-2.50994
-0.479732
-0.463547
-0.405465
-0.331052
-0.241767
-0.145205
-0.0434611
0.0621122
0.171175
0.280564
0.373985
0.436664
0.425421
0.345767
0.116983
-0.12082
-0.269036
-0.306608
-0.295605
-0.679205
-0.500301
-0.484065
-0.425292
-0.350912
-0.261776
-0.165721
-0.0649567
0.039078
0.145737
0.251018
0.338546
0.390409
0.362679
0.294507
0.0669879
-0.135166
-0.246255
-0.254739
-0.202146
-0.242111
-0.522068
-0.505727
-0.446408
-0.372326
-0.283433
-0.188018
-0.0884415
0.0138125
0.117691
0.218292
0.300614
0.342086
0.307665
0.239755
0.0343475
-0.12596
-0.20857
-0.216916
-0.264604
-0.268657
-0.545
-0.52883
-0.468948
-0.395225
-0.306617
-0.212051
-0.11392
-0.0137476
0.087009
0.182792
0.260082
0.291537
0.25963
0.177668
0.00600478
-0.116658
-0.187505
-0.164474
-0.184939
-0.186608
-0.5688
-0.552358
-0.49253
-0.419588
-0.33133
-0.237851
-0.141394
-0.0435066
0.0538288
0.144846
0.217184
0.237633
0.218058
0.109825
-0.0295622
-0.112257
-0.151738
-0.199798
-0.173932
-0.182595
-0.593437
-0.576587
-0.517266
-0.445153
-0.357182
-0.265152
-0.1706
-0.075242
0.0183026
0.104842
0.172836
0.182687
0.174681
0.048395
-0.0667736
-0.130582
-0.108547
-0.168165
-0.14867
-0.153721
-0.617691
-0.60064
-0.542799
-0.471628
-0.384039
-0.293873
-0.201375
-0.108655
-0.01934
0.0631283
0.128276
0.130424
0.122277
-0.00266009
-0.0937819
-0.145195
-0.132493
-0.148321
-0.153486
-0.151786
-0.64139
-0.624471
-0.568657
-0.498263
-0.411363
-0.323495
-0.233181
-0.14331
-0.0585756
0.0201093
0.0837666
0.0822204
0.0651433
-0.0452554
-0.107295
-0.139227
-0.177216
-0.148891
-0.154521
-0.148935
-0.663316
-0.647123
-0.593354
-0.524196
-0.439076
-0.353673
-0.265677
-0.17874
-0.0985899
-0.0239342
0.0392545
0.0384641
0.00897964
-0.079827
-0.119946
-0.113781
-0.186317
-0.128976
-0.144091
-0.136203
-0.683002
-0.667936
-0.616281
-0.548448
-0.466479
-0.383432
-0.298022
-0.214285
-0.138428
-0.068524
-0.00578494
-0.001976
-0.0358832
-0.0984083
-0.127271
-0.0875077
-0.133286
-0.115042
-0.12112
-0.11782
-0.698691
-0.685236
-0.636248
-0.570629
-0.492623
-0.412056
-0.329628
-0.249293
-0.177173
-0.112846
-0.0510813
-0.0399033
-0.0673874
-0.100012
-0.115834
-0.0928446
-0.106677
-0.110723
-0.112045
-0.112181
-0.709692
-0.698379
-0.652797
-0.589836
-0.515779
-0.43838
-0.359416
-0.282809
-0.214035
-0.155764
-0.0954915
-0.0750705
-0.0896692
-0.0961006
-0.106176
-0.115781
-0.109244
-0.11349
-0.112073
-0.113218
-0.714527
-0.705593
-0.6642
-0.604861
-0.535
-0.461486
-0.386454
-0.313805
-0.248225
-0.195538
-0.136478
-0.109078
-0.117035
-0.0951312
-0.107181
-0.137769
-0.118856
-0.123601
-0.117647
-0.11871
-0.713318
-0.706474
-0.669489
-0.614193
-0.548776
-0.479842
-0.409448
-0.341115
-0.279043
-0.230426
-0.172899
-0.141309
-0.139242
-0.104026
-0.11023
-0.142532
-0.117293
-0.129981
-0.12538
-0.127193
-0.705118
-0.697859
-0.665937
-0.616436
-0.556563
-0.492745
-0.427199
-0.363127
-0.304627
-0.258744
-0.20376
-0.169445
-0.152864
-0.112457
-0.0624142
-0.0506431
-0.0573698
-0.0661457
-0.0692836
-0.072829
-0.684093
-0.675778
-0.652179
-0.610296
-0.556837
-0.498758
-0.438848
-0.37893
-0.323219
-0.278646
-0.226727
-0.186606
-0.16416
-0.15693
-0.154581
-0.18937
-0.203363
-0.200023
-0.194582
-0.18836
-0.641272
-0.633511
-0.625326
-0.59569
-0.55069
-0.49884
-0.443939
-0.387071
-0.332484
-0.287529
-0.237624
-0.190208
-0.223515
-0.30854
-0.493858
-0.660196
-0.677457
-0.660178
-0.604165
-0.550933
-0.601107
-0.598418
-0.596953
-0.574313
-0.53831
-0.493606
-0.44326
-0.388502
-0.332149
-0.282718
-0.23382
-0.164952
-0.185206
-0.271904
-0.396058
-0.436077
-0.386864
-0.322293
-0.278837
-0.255978
-0.57801
-0.57983
-0.569566
-0.556476
-0.528044
-0.487239
-0.438192
-0.383577
-0.322603
-0.262334
-0.20603
-0.0979984
0.0292699
0.214967
0.391804
0.572355
0.706209
0.782853
0.825208
0.862059
-0.547244
-0.546821
-0.544108
-0.543006
-0.519114
-0.482019
-0.43371
-0.376881
-0.309966
-0.234284
-0.157296
-0.026539
0.175365
0.480695
0.773204
1.02003
1.19584
1.29625
1.34301
1.35807
-0.535476
-0.533593
-0.536788
-0.528755
-0.512192
-0.478207
-0.429062
-0.369445
-0.298598
-0.211001
-0.115384
0.0102189
0.238687
0.553958
0.859745
1.11686
1.30791
1.41802
1.46683
1.48328
-0.521825
-0.520177
-0.523612
-0.515382
-0.511507
-0.478158
-0.427683
-0.364724
-0.290363
-0.196169
-0.0917246
0.0143138
0.233059
0.511751
0.784841
1.02064
1.20546
1.31667
1.36624
1.37989
-0.511008
-0.510904
-0.510143
-0.509215
-0.50713
-0.476826
-0.428209
-0.364983
-0.288261
-0.192882
-0.0892783
-0.00557417
0.180555
0.418276
0.644823
0.839973
0.997623
1.0942
1.13637
1.1467
-0.507699
-0.508624
-0.506818
-0.511267
-0.505322
-0.477727
-0.429871
-0.367661
-0.292521
-0.201291
-0.1024
-0.0357308
0.111912
0.311683
0.49396
0.645711
0.768009
0.844089
0.876254
0.883977
-0.500752
-0.501773
-0.50042
-0.504754
-0.499981
-0.482369
-0.437699
-0.374745
-0.301138
-0.216246
-0.12287
-0.0666921
0.0439054
0.208495
0.352434
0.466934
0.557425
0.614843
0.639247
0.644527
-0.490907
-0.48961
-0.485889
-0.482317
-0.475973
-0.475985
-0.440867
-0.381422
-0.310169
-0.232429
-0.144748
-0.0946167
-0.0161148
0.116958
0.229209
0.314976
0.381219
0.424083
0.440626
0.444827
-0.504318
-0.500367
-0.495119
-0.490191
-0.487355
-0.487048
-0.445208
-0.385098
-0.314964
-0.245141
-0.164049
-0.117816
-0.0651298
0.0410616
0.127727
0.191727
0.24091
0.27293
0.284652
0.288862
-0.542763
-0.541066
-0.541973
-0.54617
-0.547129
-0.528912
-0.462095
-0.389719
-0.316145
-0.252214
-0.178633
-0.135495
-0.100573
-0.0163997
0.0495102
0.097351
0.134803
0.159273
0.168693
0.171147
-0.592986
-0.597577
-0.610082
-0.619501
-0.616002
-0.570404
-0.477203
-0.391899
-0.311547
-0.251856
-0.186982
-0.146898
-0.122082
-0.0557934
-0.00675067
0.0285784
0.0564824
0.0735737
0.0811343
0.0831476
-0.565365
-0.570614
-0.585304
-0.598522
-0.596633
-0.547397
-0.460445
-0.376304
-0.298363
-0.241599
-0.187123
-0.151511
-0.130153
-0.0801923
-0.0448695
-0.0191794
0.000117435
0.0111004
0.0155193
0.0161421
-0.43102
-0.438447
-0.452184
-0.46262
-0.462506
-0.433796
-0.382867
-0.327314
-0.268332
-0.219943
-0.178278
-0.149305
-0.128942
-0.0930945
-0.0683443
-0.051203
-0.0395471
-0.0336422
-0.0319894
-0.0325299
-0.261632
-0.266174
-0.273188
-0.281593
-0.286487
-0.280492
-0.265615
-0.244873
-0.215311
-0.186182
-0.159697
-0.139209
-0.12199
-0.0976332
-0.0816614
-0.0715177
-0.0656175
-0.0636722
-0.0641773
-0.0653115
-0.111537
-0.113866
-0.118652
-0.127243
-0.137722
-0.146968
-0.154551
-0.158283
-0.15326
-0.14507
-0.133091
-0.122002
-0.111
-0.0961723
-0.087203
-0.0825982
-0.0809273
-0.0815114
-0.0831217
-0.0845031
-0.0068671
-0.00818686
-0.0114992
-0.0198822
-0.0344251
-0.0525311
-0.0711028
-0.0874391
-0.0973359
-0.104137
-0.102858
-0.100417
-0.0967761
-0.0897171
-0.0864284
-0.0859033
-0.0869954
-0.0890861
-0.0910424
-0.0924533
0.0501108
0.0491437
0.0466865
0.0388476
0.0232007
0.00201088
-0.0201037
-0.0405646
-0.0558755
-0.0695327
-0.0742009
-0.0775494
-0.0806472
-0.0787129
-0.0802588
-0.0830708
-0.0859976
-0.0887274
-0.0906508
-0.0919643
0.0731663
0.0725239
0.0706425
0.0639427
0.0497711
0.029596
0.00761216
-0.0135199
-0.0299424
-0.0449372
-0.0513452
-0.0572067
-0.0638698
-0.0658423
-0.0708898
-0.075805
-0.0798121
-0.0828445
-0.0846336
-0.0857836
0.0767041
0.0762447
0.0748075
0.0695739
0.058209
0.0413859
0.0218206
0.00174602
-0.0144748
-0.0292971
-0.0358513
-0.0418028
-0.0488943
-0.0541351
-0.0607041
-0.0663334
-0.070639
-0.0737323
-0.0752795
-0.076234
0.070471
0.0701608
0.0690821
0.0652022
0.0566808
0.0437904
0.0279815
0.0104757
-0.00450415
-0.0189904
-0.0255629
-0.0307422
-0.0375569
-0.0438609
-0.0506125
-0.0560525
-0.0601561
-0.0630202
-0.0642266
-0.0649933
0.0602261
0.0600421
0.0592552
0.0564914
0.0503336
0.0408805
0.0289463
0.0150038
0.00252879
-0.0110753
-0.0179498
-0.0227699
-0.0287697
-0.0346216
-0.0408882
-0.0458246
-0.0495143
-0.0520275
-0.052965
-0.0535712
0.0489039
0.0488136
0.0482626
0.0463943
0.0420995
0.0353525
0.0266649
0.0161365
0.00682884
-0.004849
-0.0114296
-0.0160925
-0.0213028
-0.0263302
-0.0318595
-0.0361204
-0.0393452
-0.0415169
-0.0422311
-0.0426904
0.0379237
0.0378961
0.0375184
0.0363129
0.0334065
0.0287273
0.0225404
0.0147295
0.0082479
-0.000838474
-0.00594067
-0.00986624
-0.0144233
-0.0188589
-0.0236979
-0.0273039
-0.0300014
-0.0317818
-0.0323576
-0.0327273
0.0278756
0.0278824
0.0276201
0.0268784
0.0249816
0.0218863
0.0176455
0.0119756
0.00769529
0.00102297
-0.00230087
-0.00511848
-0.00871819
-0.0124527
-0.0165715
-0.01949
-0.0216081
-0.0229819
-0.023414
-0.0237078
0.0188807
0.0188918
0.0187314
0.018332
0.0171647
0.0152446
0.0125885
0.00863592
0.00606424
0.00136094
-0.000513973
-0.00220349
-0.00475442
-0.00748892
-0.0107069
-0.0129098
-0.0144378
-0.015376
-0.0156894
-0.0159417
0.0106276
0.0106443
0.0106107
0.0105018
0.00992868
0.00890132
0.00755191
0.00503969
0.00383399
0.00083054
9.98426e-05
-0.000720592
-0.00226578
-0.00383642
-0.006199
-0.00763524
-0.00859745
-0.0091136
-0.00916964
-0.00934938
0.00331982
0.00333259
0.00336392
0.0034578
0.00338516
0.00307445
0.00276022
0.00154872
0.00146139
6.40263e-05
0.000248098
0.000157406
-0.000726864
-0.0011385
-0.00273147
-0.00358335
-0.00443766
-0.00490031
-0.0046886
-0.00467586
-1.07654
-0.241944
0.0278613
0.301987
0.480562
0.632901
0.753738
0.877331
1.01534
1.10086
-0.101859
0.302151
0.316059
0.502633
0.623143
0.731235
0.82377
0.906623
0.93324
0.892166
0.269888
0.481668
0.51423
0.649495
0.732857
0.81057
0.874738
0.923018
0.924681
0.939315
0.495836
0.636524
0.670696
0.770318
0.826517
0.882485
0.926508
0.958429
0.967293
0.991172
0.67097
0.770551
0.800169
0.865985
0.91023
0.95015
0.9818
1.00589
1.01552
1.04726
0.812309
0.880051
0.91013
0.952118
0.987772
1.01742
1.0414
1.06212
1.0761
1.10451
0.930215
0.980185
1.00552
1.03307
1.06036
1.0839
1.1037
1.12294
1.13773
1.16433
1.03321
1.06992
1.09081
1.11125
1.13183
1.15108
1.16843
1.18653
1.20138
1.22507
1.12674
1.15569
1.17192
1.18709
1.20309
1.2191
1.23462
1.25152
1.26514
1.28746
1.21475
1.23514
1.24994
1.26305
1.27659
1.29033
1.30383
1.31841
1.32996
1.34959
1.30007
1.31583
1.32963
1.34143
1.35333
1.36497
1.3761
1.38776
1.39544
1.41223
1.38526
1.3978
1.4115
1.42324
1.43388
1.44367
1.45249
1.46075
1.46431
1.47553
1.47399
1.48482
1.49829
1.50781
1.51538
1.52267
1.52985
1.53631
1.53742
1.54476
1.57239
1.577
1.58519
1.58992
1.59332
1.59779
1.60378
1.61143
1.61534
1.62522
1.68567
1.67256
1.66527
1.65956
1.65684
1.65817
1.66448
1.67685
1.69168
1.72135
1.80764
1.75159
1.72057
1.70338
1.69516
1.69508
1.70395
1.72358
1.75535
1.82463
)
;

boundaryField
{
    wall-4
    {
        type            zeroGradient;
    }
    pressure-outlet-7
    {
        type            fixedValue;
        value           uniform 0;
    }
    velocity-inlet-6
    {
        type            zeroGradient;
    }
    velocity-inlet-5
    {
        type            zeroGradient;
    }
    frontAndBackPlanes
    {
        type            empty;
    }
}


// ************************************************************************* //
