/*--------------------------------*- C++ -*----------------------------------*\
  =========                 |
  \\      /  F ield         | OpenFOAM: The Open Source CFD Toolbox
   \\    /   O peration     | Website:  https://openfoam.org
    \\  /    A nd           | Version:  10
     \\/     M anipulation  |
\*---------------------------------------------------------------------------*/
FoamFile
{
    format      ascii;
    class       surfaceScalarField;
    location    "70";
    object      phi;
}
// * * * * * * * * * * * * * * * * * * * * * * * * * * * * * * * * * * * * * //

dimensions      [0 3 -1 0 0 0 0];

internalField   nonuniform List<scalar> 
4262
(
0.107134
0.470854
0.0955702
0.70515
0.0693834
0.85849
0.0473647
1.02078
0.0309785
1.2149
0.0197642
1.44943
0.0123403
1.73329
0.00712357
2.07625
0.00318999
2.48918
-0.000600377
2.98608
-0.00433537
2.98603
-0.00808464
2.48899
-0.0130543
2.07601
-0.0201976
1.73301
-0.0311161
1.44914
-0.0471681
1.21457
-0.0689163
1.02051
-0.0951875
0.858574
-0.107062
0.70546
0.470926
0.112858
0.357996
0.135251
0.682757
0.12035
0.87339
0.0978094
1.04332
0.0745601
1.23815
0.0528192
1.47117
0.034433
1.75167
0.0202431
2.09044
0.00898981
2.50043
-0.000919353
2.99599
-0.0110218
2.99613
-0.0223402
2.50031
-0.0364748
2.09014
-0.0547737
1.75131
-0.0766275
1.47099
-0.100373
1.23831
-0.12354
1.04368
-0.137041
0.872076
-0.113577
0.681996
0.357349
0.092033
0.265963
0.124947
0.649843
0.121059
0.877278
0.104746
1.05964
0.0860794
1.25682
0.0669358
1.49032
0.0479248
1.77068
0.0297786
2.10859
0.0130793
2.51713
-0.00292048
3.01199
-0.0186022
3.01181
-0.0344645
2.51617
-0.0519192
2.1076
-0.0703273
1.76971
-0.0886259
1.48929
-0.105787
1.25547
-0.119865
1.05776
-0.125263
0.877474
-0.092374
0.649107
0.264975
0.0639592
0.202004
0.104752
0.60905
0.106512
0.875519
0.0951298
1.07102
0.081195
1.27075
0.0664426
1.50507
0.0503324
1.78679
0.0332226
2.1257
0.0156131
2.53474
-0.00310711
3.03071
-0.0216543
3.03036
-0.0390742
2.53359
-0.0555855
2.12411
-0.0707826
1.78491
-0.0845587
1.50307
-0.0982582
1.26917
-0.110033
1.06953
-0.107033
0.874474
-0.0649007
0.606974
0.200075
0.0374634
0.16454
0.0806653
0.565848
0.0908888
0.865295
0.0836345
1.07827
0.0709696
1.28342
0.0590704
1.51697
0.0459833
1.79988
0.0308875
2.14079
0.0137429
2.55188
-0.00545473
3.04991
-0.0240289
3.04893
-0.0397954
2.54936
-0.0535979
2.13791
-0.0657263
1.79704
-0.0770055
1.51435
-0.0889381
1.28111
-0.0952512
1.07584
-0.0833673
0.86259
-0.0384543
0.562061
0.16162
0.0194322
0.145108
0.0571048
0.528176
0.0724537
0.849947
0.0703221
1.0804
0.0615006
1.29224
0.0506094
1.52786
0.0394539
1.81104
0.0268999
2.15335
0.0119571
2.56683
-0.00573949
3.06761
-0.0232501
3.06644
-0.0377567
2.56387
-0.0493184
2.14947
-0.0591593
1.80688
-0.0689392
1.52413
-0.0765502
1.28872
-0.0773334
1.07663
-0.060144
0.845401
-0.0204302
0.522348
0.14119
0.0105917
0.134517
0.0422474
0.49652
0.0582978
0.833896
0.0585208
1.08018
0.0522965
1.29846
0.0428358
1.53732
0.0323331
1.82154
0.0207749
2.16491
0.00725264
2.58035
-0.00874713
3.08361
-0.0239031
3.0816
-0.0355307
2.57549
-0.0452412
2.15918
-0.0541579
1.8158
-0.0620642
1.53203
-0.0665721
1.29323
-0.0645431
1.0746
-0.0460549
0.826912
-0.0117476
0.48804
0.129443
0.00653296
0.127984
0.0328175
0.470235
0.0489859
0.817728
0.0504284
1.07874
0.0453253
1.30357
0.0369655
1.54568
0.0273393
1.83117
0.0165222
2.17572
0.00453484
2.59234
-0.00941158
3.09755
-0.0231564
3.09534
-0.0342356
2.58657
-0.0434063
2.16835
-0.0509638
1.82335
-0.0573679
1.53844
-0.0604813
1.29634
-0.0567528
1.07087
-0.0374693
0.807629
-0.00794402
0.458515
0.121498
0.00466846
0.123315
0.0264118
0.448492
0.0421243
0.802015
0.0441316
1.07673
0.0393456
1.30835
0.0315152
1.55351
0.0221973
1.84048
0.0114341
2.18649
-0.000406536
2.60418
-0.0135035
3.11065
-0.0251955
3.10704
-0.0345528
2.59593
-0.04269
2.17649
-0.0495948
1.83026
-0.0550037
1.54384
-0.0571753
1.29851
-0.0520266
1.06572
-0.0322134
0.787816
-0.00642843
0.43273
0.11507
0.00369349
0.119622
0.0214997
0.430686
0.0365021
0.787013
0.0391716
1.07406
0.0347838
1.31274
0.0274126
1.56088
0.0186206
1.84928
0.00859584
2.19651
-0.00270832
2.61548
-0.0150527
3.12299
-0.0267679
3.11875
-0.0363591
2.60552
-0.0437451
2.18388
-0.049553
1.83607
-0.054126
1.54842
-0.0552576
1.29964
-0.0487582
1.05922
-0.0285841
0.767642
-0.00584806
0.409994
0.109222
0.00298634
0.116635
0.0173345
0.416338
0.0311024
0.773245
0.0339111
1.07125
0.0295903
1.31706
0.0222355
1.56824
0.0133927
1.85812
0.00308259
2.20682
-0.00842827
2.62699
-0.0204746
3.13504
-0.0309752
3.12925
-0.0388521
2.6134
-0.0453577
2.19038
-0.0506734
1.84138
-0.0543901
1.55213
-0.0543546
1.29961
-0.0463452
1.05121
-0.0259616
0.747258
-0.00562118
0.389654
0.103601
0.00230095
0.114334
0.0135903
0.405048
0.0259729
0.760862
0.0289211
1.0683
0.0248412
1.32114
0.0177311
1.57535
0.00925203
1.8666
-0.000304486
2.21638
-0.0110808
2.63777
-0.0234214
3.14738
-0.0345156
3.14035
-0.0426964
2.62158
-0.0483432
2.19603
-0.0523637
1.8454
-0.0549117
1.55468
-0.0541625
1.29886
-0.0446981
1.04175
-0.0241193
0.726679
-0.00550219
0.371037
0.0980986
0.00163573
0.112699
0.0103058
0.396378
0.020941
0.750227
0.0234268
1.06582
0.0191645
1.3254
0.0119158
1.5826
0.00304728
1.87547
-0.00735769
2.22678
-0.0190356
2.64945
-0.0307244
3.15907
-0.040152
3.14977
-0.0466695
2.6281
-0.0514556
2.20081
-0.0550363
1.84898
-0.0566363
1.55628
-0.0548507
1.29707
-0.0439892
1.03089
-0.0230158
0.705706
-0.00547227
0.353493
0.0926264
0.000726875
0.111972
0.00675787
0.390347
0.0155669
0.741418
0.0174631
1.06392
0.0128633
1.33
0.00531746
1.59014
-0.00357158
1.88436
-0.0132461
2.23646
-0.0236048
2.6598
-0.0352749
3.17074
-0.0455414
3.16004
-0.0520711
2.63463
-0.0557585
2.2045
-0.0582842
1.85151
-0.058925
1.55692
-0.0560756
1.29422
-0.0438022
1.01861
-0.0223624
0.684266
-0.00545122
0.336582
0.0871751
8.45078e-05
0.111887
0.00394853
0.386483
0.0105628
0.734804
0.0115186
1.06297
0.00648483
1.33504
-0.00143006
1.59806
-0.0109738
1.8939
-0.0219169
2.2474
-0.0341263
2.67201
-0.0459887
3.1826
-0.0541196
3.16817
-0.0587965
2.6393
-0.0617993
2.2075
-0.0636545
1.85336
-0.0632858
1.55655
-0.0587923
1.28973
-0.044669
1.00449
-0.0223538
0.661951
-0.00556002
0.319788
0.0816151
-0.000887214
0.112774
0.000312162
0.385284
0.00472132
0.730395
0.00447086
1.06322
-0.00143105
1.34094
-0.0103794
1.60701
-0.0207512
1.90427
-0.0316785
2.25833
-0.0424984
2.68283
-0.0531572
3.19326
-0.0616897
3.1767
-0.0664014
2.64402
-0.0683355
2.20944
-0.0693758
1.85441
-0.0681925
1.55537
-0.0620626
1.2836
-0.0460769
0.988505
-0.0227169
0.638591
-0.00570875
0.30278
0.0759064
-0.00185527
0.11463
-0.00303186
0.38646
-0.00162503
0.728988
-0.00340854
1.065
-0.0100873
1.34762
-0.0195177
1.61644
-0.030439
1.91519
-0.0425487
2.27044
-0.0555443
2.69583
-0.0677255
3.20544
-0.0749415
3.18392
-0.0779867
2.64706
-0.0792145
2.21067
-0.0786045
1.8538
-0.0755604
1.55233
-0.0673529
1.27539
-0.0488523
0.970004
-0.0238031
0.613542
-0.00603961
0.285016
0.0698668
-0.00315776
0.117787
-0.00670482
0.390007
-0.00870738
0.73099
-0.012397
1.06869
-0.0203015
1.35552
-0.0311979
1.62733
-0.043641
1.92764
-0.0568351
2.28363
-0.0695383
2.70853
-0.0797175
3.21562
-0.0860321
3.19023
-0.0888478
2.64988
-0.0889009
2.21072
-0.0877645
1.85266
-0.0839036
1.54847
-0.0734061
1.26489
-0.0521999
0.948798
-0.0252258
0.586568
-0.0064125
0.266203
0.0634543
-0.00454787
0.122335
-0.0110923
0.396552
-0.0165167
0.736415
-0.0231973
1.07537
-0.0324921
1.36482
-0.044532
1.63937
-0.0579357
1.94104
-0.0721944
2.29789
-0.0863218
2.72266
-0.0990763
3.22838
-0.105832
3.19699
-0.106775
2.65082
-0.105273
2.20922
-0.101618
1.849
-0.0951807
1.54203
-0.0819263
1.25164
-0.0571723
0.924044
-0.0273317
0.556727
-0.00692061
0.245792
0.0565336
-0.00591512
0.12825
-0.0158919
0.406529
-0.0252698
0.745793
-0.0348159
1.08492
-0.0464681
1.37647
-0.060834
1.65374
-0.0765057
1.95671
-0.0927624
2.31415
-0.108093
2.73799
-0.119153
3.23944
-0.122853
3.20069
-0.122942
2.65091
-0.120235
2.20651
-0.115964
1.84473
-0.108353
1.53442
-0.0915874
1.23487
-0.0626564
0.895113
-0.0296477
0.523718
-0.00742629
0.223571
0.0491074
-0.00827318
0.136524
-0.0230362
0.421292
-0.0380902
0.760847
-0.0509886
1.09782
-0.0643662
1.38985
-0.0806577
1.67003
-0.0982006
1.97425
-0.115867
2.33181
-0.131593
2.75372
-0.14316
3.251
-0.148103
3.20563
-0.146689
2.64949
-0.142299
2.20212
-0.135496
1.83793
-0.124315
1.52324
-0.103571
1.21413
-0.0696574
0.861199
-0.0323539
0.486415
-0.00793739
0.199154
0.04117
-0.0107421
0.147266
-0.0301008
0.44065
-0.0509356
0.781681
-0.0690792
1.11596
-0.0863718
1.40714
-0.105725
1.68938
-0.126067
1.9946
-0.146043
2.35179
-0.1634
2.77107
-0.174877
3.26248
-0.176408
3.20716
-0.171872
2.64496
-0.165102
2.19535
-0.156434
1.82926
-0.143045
1.50985
-0.11702
1.18811
-0.0767848
0.820964
-0.0348572
0.444487
-0.00831204
0.172609
0.0328579
-0.015438
0.162704
-0.0423939
0.467606
-0.070127
0.809415
-0.0929931
1.13883
-0.113766
1.42791
-0.13695
1.71257
-0.160167
2.01781
-0.181637
2.37326
-0.198397
2.78783
-0.207309
3.27139
-0.206953
3.20681
-0.201883
2.63989
-0.193994
2.18746
-0.182992
1.81826
-0.164546
1.4914
-0.132465
1.15603
-0.0850483
0.773547
-0.0373009
0.39674
-0.00856722
0.143875
0.0242907
-0.0196706
0.182374
-0.055684
0.50362
-0.0933782
0.847109
-0.124169
1.16962
-0.151033
1.45478
-0.178557
1.74009
-0.204462
2.04372
-0.226768
2.39557
-0.242881
2.80395
-0.249961
3.27847
-0.246751
3.2036
-0.236945
2.63008
-0.224568
2.17508
-0.210212
1.8039
-0.188158
1.46935
-0.148193
1.11606
-0.0916329
0.716987
-0.0384239
0.343531
-0.00830052
0.113752
0.0159902
-0.0330151
0.215389
-0.0825539
0.553158
-0.130815
0.89537
-0.168358
1.20716
-0.200609
1.48703
-0.232211
1.77169
-0.258928
2.07043
-0.280118
2.41676
-0.293131
2.81696
-0.295096
3.28044
-0.286234
3.19474
-0.274066
2.61791
-0.261376
2.16239
-0.244044
1.78657
-0.214232
1.43954
-0.164806
1.06663
-0.0986912
0.650872
-0.0393151
0.284155
-0.00795974
0.0823965
0.00803045
-0.0473378
0.262727
-0.121501
0.627321
-0.185631
0.959501
-0.231498
1.25303
-0.269947
1.52548
-0.302677
1.80442
-0.327532
2.09529
-0.345067
2.43429
-0.353189
2.82508
-0.349163
3.27641
-0.335547
3.18112
-0.318552
2.60092
-0.29939
2.14323
-0.276401
1.76358
-0.23991
1.40305
-0.178511
1.00523
-0.100041
0.572402
-0.037326
0.221439
-0.00757735
0.0526479
0.000453091
-0.0344534
0.297181
-0.098819
0.691687
-0.157795
1.01848
-0.206441
1.30167
-0.251073
1.57011
-0.291046
1.8444
-0.328786
2.13303
-0.363435
2.46894
-0.391301
2.85295
-0.409592
3.2947
-0.41325
3.18478
-0.405929
2.5936
-0.39367
2.13097
-0.36801
1.73792
-0.312279
1.34731
-0.220176
0.913132
-0.113766
0.465991
-0.0412062
0.14888
-0.00886049
0.0203022
-0.0084074
-0.0125451
0.309726
-0.0478208
0.726963
-0.0905173
1.06117
-0.130837
1.34199
-0.170896
1.61017
-0.207274
1.88078
-0.241599
2.16736
-0.271915
2.49926
-0.295055
2.87609
-0.305679
3.30532
-0.300268
3.17937
-0.288919
2.58225
-0.270027
2.11208
-0.238767
1.70666
-0.19053
1.29908
-0.122597
0.845199
-0.0560289
0.399423
-0.021079
0.11393
-0.00485731
0.00408053
-0.0132647
-0.00027869
0.310004
-0.0241903
0.750874
-0.0541074
1.09109
-0.085531
1.37341
-0.118578
1.64322
-0.150377
1.91257
-0.179944
2.19692
-0.20532
2.52463
-0.222844
2.89361
-0.228229
3.31071
-0.221616
3.17275
-0.204975
2.56561
-0.182573
2.08968
-0.154915
1.679
-0.112436
1.2566
-0.0606037
0.793366
-0.0238566
0.362676
-0.0102688
0.100342
-0.00301999
-0.00316832
-0.0162847
0.00108255
0.308922
-0.0137991
0.765756
-0.0350474
1.11234
-0.0592568
1.39762
-0.0853604
1.66932
-0.1123
1.93951
-0.137895
2.22252
-0.159359
2.5461
-0.173312
2.90756
-0.175171
3.31257
-0.163223
3.16081
-0.143885
2.54627
-0.119562
2.06536
-0.0864299
1.64587
-0.0513628
1.22153
-0.020899
0.762902
-0.00557283
0.34735
-0.00313938
0.0979087
-0.00166754
-0.00464017
-0.0179522
0.00511555
0.303806
-0.00277873
0.77365
-0.021388
1.13095
-0.0433475
1.41958
-0.0661628
1.69213
-0.08859
1.96194
-0.109695
2.24362
-0.127282
2.56368
-0.137843
2.91813
-0.136404
3.31113
-0.122072
3.14647
-0.0997608
2.52396
-0.0720963
2.03769
-0.0457582
1.61953
-0.0165082
1.19228
0.00626092
0.740133
0.00927287
0.344338
0.00420961
0.102972
0.00057676
-0.00100731
-0.0173755
0.00513253
0.298674
-0.000875777
0.779658
-0.0163457
1.14642
-0.0341249
1.43736
-0.0531056
1.71112
-0.072629
1.98146
-0.0914292
2.26242
-0.106991
2.57924
-0.11553
2.92666
-0.112391
3.30799
-0.0963651
3.13045
-0.0735505
2.50114
-0.0484471
2.01259
-0.0184794
1.58957
0.00587927
1.16792
0.0176875
0.728325
0.0164178
0.345608
0.00819322
0.111197
0.00197209
0.00521382
-0.0154034
0.00518662
0.293487
0.00170958
0.783135
-0.0112742
1.1594
-0.0282293
1.45432
-0.0460602
1.72895
-0.0636445
1.99905
-0.0801194
2.2789
-0.0934944
2.59262
-0.100441
2.93361
-0.0967847
3.30433
-0.0804188
3.11408
-0.0560568
2.47678
-0.029427
1.98596
-0.00772419
1.56786
0.0119244
1.14828
0.0232627
0.716986
0.0189618
0.349909
0.0097727
0.120386
0.00254606
0.0124405
-0.0128573
0.00275588
0.290731
-0.000396151
0.786287
-0.0116258
1.17063
-0.025926
1.46862
-0.0416015
1.74462
-0.0576631
2.01511
-0.0730765
2.29431
-0.0857925
2.60534
-0.0925478
2.94037
-0.088757
3.30054
-0.0722118
3.09754
-0.0505599
2.45513
-0.0278968
1.96329
-0.0017066
1.54167
0.0166707
1.1299
0.0229863
0.710671
0.0191554
0.35374
0.0101253
0.129416
0.00279496
0.0197708
-0.0100624
0.00197394
0.288757
-0.000284089
0.788546
-0.0107746
1.18112
-0.0243855
1.48223
-0.03961
1.75985
-0.054822
2.03032
-0.0692969
2.30879
-0.0814255
2.61746
-0.0883883
2.94733
-0.0856213
3.29778
-0.0699755
3.08189
-0.047773
2.43293
-0.0235186
1.93904
-0.00493422
1.52309
0.0117436
1.11322
0.0209572
0.701457
0.0170565
0.357641
0.0093123
0.13716
0.00268222
0.0264008
-0.00738015
-0.000489317
0.289247
-0.00426612
0.792322
-0.0132581
1.19011
-0.025079
1.49405
-0.038834
1.7736
-0.0531966
2.04468
-0.0674414
2.32303
-0.0800153
2.63004
-0.0877168
2.95503
-0.0855351
3.2956
-0.0705712
3.06693
-0.0517356
2.41409
-0.0323355
1.91964
-0.0085575
1.49931
0.0084279
1.09623
0.0146487
0.695236
0.013402
0.358887
0.00749773
0.143064
0.00227601
0.0316226
-0.00510415
-0.000773607
0.29002
-0.00476123
0.79631
-0.013676
1.19903
-0.0252801
1.50565
-0.0387908
1.78711
-0.052842
2.05874
-0.0669355
2.33712
-0.0795079
2.64261
-0.0877624
2.96328
-0.0876711
3.2955
-0.0754335
3.05469
-0.0556841
2.39434
-0.0332787
1.89723
-0.0163195
1.48235
-0.000530501
1.08045
0.00948294
0.685223
0.00914389
0.359226
0.00558002
0.146628
0.00181472
0.0353879
-0.00328943
-0.00238805
0.292408
-0.00777626
0.801698
-0.0161766
1.20743
-0.0268067
1.51628
-0.03937
1.79968
-0.0528976
2.07226
-0.0668668
2.35109
-0.0800064
2.65575
-0.0897799
2.97306
-0.0914615
3.29719
-0.0800979
3.04333
-0.0630674
2.37731
-0.0449298
1.8791
-0.0224352
1.45986
-0.00580486
1.06382
0.00197262
0.677446
0.00510777
0.356091
0.00353789
0.148198
0.00131582
0.0376099
-0.00197361
-0.00343059
0.295839
-0.00813725
0.806405
-0.0165381
1.21583
-0.027241
1.52699
-0.0396885
1.81212
-0.0529883
2.08556
-0.0670239
2.36513
-0.0806339
2.66936
-0.0915251
2.98395
-0.0954958
3.30116
-0.0875965
3.03543
-0.0706227
2.36034
-0.0475264
1.856
-0.0301667
1.4425
-0.0140696
1.04772
-0.001889
0.665265
0.00151571
0.352687
0.00200724
0.147706
0.000884396
0.0387328
-0.00108922
-0.00406974
0.299909
-0.0101341
0.812469
-0.0184199
1.22412
-0.0284498
1.53702
-0.0402442
1.82392
-0.0531965
2.09852
-0.0672159
2.37915
-0.0814416
2.68359
-0.0938935
2.9964
-0.100144
3.30741
-0.0941598
3.02944
-0.0785491
2.34473
-0.0596912
1.83714
-0.0352766
1.41808
-0.0166458
1.02909
-0.00633544
0.654955
-0.000797167
0.347148
0.000680557
0.146229
0.00061444
0.0387989
-0.000474778
-0.00404447
0.303953
-0.00996677
0.818391
-0.0183157
1.23246
-0.0284188
1.54712
-0.0401521
1.83565
-0.0529527
2.11132
-0.0671331
2.39333
-0.0819105
2.69836
-0.095574
3.01006
-0.104511
3.31634
-0.102537
3.02747
-0.0876656
2.32986
-0.062902
1.81238
-0.0411438
1.39632
-0.0209573
1.0089
-0.00641423
0.640412
-0.00123269
0.341967
0.000109116
0.144887
-0.00039381
0.0393018
-0.000868589
-0.00422901
0.308182
-0.0111148
0.825277
-0.0193855
1.24074
-0.0289538
1.55669
-0.040203
1.8469
-0.0527866
2.1239
-0.0669562
2.4075
-0.0821928
2.7136
-0.0972426
3.02511
-0.108397
3.3275
-0.108154
3.02723
-0.095211
2.31691
-0.0752788
1.79245
-0.0449937
1.36604
-0.0191543
0.983061
-0.00428428
0.625542
0.00399017
0.333692
0.00499826
0.143879
0.00260479
0.0416953
0.0017362
-0.00413793
0.31232
-0.0106301
0.831769
-0.0187772
1.24888
-0.0283831
1.56629
-0.0395611
1.85808
-0.0519837
2.13632
-0.0662398
2.42175
-0.0819406
2.7293
-0.0980847
3.04126
-0.111751
3.34116
-0.11613
3.03161
-0.105263
2.30605
-0.0792822
1.76647
-0.0501372
1.33689
-0.0187722
0.951696
0.00483917
0.60193
0.013312
0.325219
0.00748711
0.149704
-0.0017351
0.0509175
1.09144e-06
-0.0042831
0.316603
-0.0112658
0.838752
-0.0192248
1.25684
-0.0283282
1.5754
-0.0390486
1.8688
-0.0512558
2.14853
-0.0654309
2.43593
-0.0814203
2.74529
-0.0986264
3.05846
-0.114205
3.35674
-0.120632
3.03803
-0.112361
2.29777
-0.0926532
1.74676
-0.0550675
1.29931
-0.0132246
0.909854
0.0199728
0.568733
0.0433833
0.301809
0.0486433
0.144444
0.02953
0.0700308
0.0295311
-0.00413879
0.320742
-0.0105982
0.845211
-0.0183083
1.26455
-0.0273526
1.58444
-0.0379149
1.87936
-0.0498853
2.1605
-0.0640211
2.45007
-0.0803286
2.7616
-0.0983689
3.07651
-0.116135
3.37451
-0.126882
3.04878
-0.122701
2.29359
-0.0985187
1.72258
-0.0627019
1.26349
-0.0133124
0.860464
0.0337224
0.521698
0.0676757
0.267856
0.0556927
0.156427
0.0241257
0.101598
0.0536567
-0.00410725
0.324849
-0.0108674
0.851972
-0.0183468
1.27203
-0.026854
1.59295
-0.0369598
1.88947
-0.0486775
2.17222
-0.0626676
2.46406
-0.0790918
2.77802
-0.0978273
3.09524
-0.117106
3.39379
-0.129102
3.06078
-0.128809
2.2933
-0.114
1.70777
-0.0735613
1.22305
-0.0171757
0.804079
0.0533478
0.451174
0.148048
0.173155
0.209221
0.0952535
0.187067
0.123752
0.240724
-0.00394926
0.328798
-0.010269
0.858291
-0.0176703
1.27943
-0.0263853
1.60166
-0.036813
1.89989
-0.0489678
2.18437
-0.063873
2.47896
-0.0819308
2.79608
-0.103301
3.11661
-0.127146
3.41763
-0.145943
3.07958
-0.152093
2.29945
-0.134531
1.69021
-0.0971849
1.18571
-0.0303759
0.737269
0.0293181
0.391481
-0.0407281
0.243201
-0.352015
0.40654
-0.945963
0.7177
0.902595
-1.60783
-0.00385604
0.332655
-0.0104306
0.864866
-0.0177074
1.28671
-0.0260936
1.61005
-0.0363025
1.9101
-0.0485997
2.19667
-0.0639568
2.49432
-0.0829501
2.81507
-0.106188
3.13985
-0.133307
3.44475
-0.156101
3.10237
-0.166926
2.31028
-0.167826
1.6911
-0.136218
1.1541
-0.0979058
0.698957
-0.202075
0.49565
-0.693969
0.735096
-1.45624
1.16882
-2.06038
1.32184
1.21541
-2.3732
-0.00362338
0.336278
-0.00963173
0.870874
-0.0166494
1.29373
-0.0250468
1.61845
-0.0352922
1.92035
-0.0476793
2.20906
-0.0634503
2.51009
-0.0834273
2.83505
-0.108612
3.16503
-0.139907
3.47605
-0.170408
3.13287
-0.190705
2.33057
-0.191283
1.69168
-0.168385
1.1312
-0.254223
0.784795
-0.752778
0.994205
-1.56185
1.54417
-2.11808
1.72504
-2.35508
1.55884
1.32879
-2.46846
-0.00352561
0.339803
-0.00956864
0.876917
-0.016391
1.30055
-0.0244194
1.62648
-0.0343882
1.93032
-0.0468547
2.22152
-0.0629898
2.52622
-0.0837925
2.85585
-0.110785
3.19203
-0.145512
3.51077
-0.181055
3.16841
-0.208235
2.35775
-0.228454
1.7119
-0.299541
1.20229
-0.672243
1.1575
-1.44816
1.77013
-2.03272
2.12872
-2.2709
1.96322
-2.38318
1.67112
1.39199
-2.44637
-0.00321228
0.343016
-0.00861196
0.882317
-0.0150719
1.30701
-0.0230261
1.63443
-0.0330253
1.94032
-0.0455087
2.23401
-0.0619087
2.54262
-0.0835297
2.87747
-0.112354
3.22085
-0.151376
3.5498
-0.195816
3.21285
-0.236104
2.39804
-0.270426
1.74622
-0.452985
1.38485
-1.09792
1.80243
-1.79536
2.46757
-2.11097
2.44433
-2.25781
2.11007
-2.33951
1.75282
1.45815
-2.40568
-0.00322091
0.346237
-0.00886698
0.887963
-0.0153793
1.31352
-0.0232166
1.64227
-0.0333045
1.9504
-0.0461277
2.24683
-0.0631103
2.55961
-0.0857067
2.90007
-0.116386
3.25153
-0.158846
3.59226
-0.208889
3.2629
-0.251888
2.44104
-0.336468
1.8308
-0.736501
1.78488
-1.4944
2.56033
-1.9632
2.93637
-2.16273
2.64386
-2.26852
2.21585
-2.34577
1.83007
1.52124
-2.40886
-0.00327771
0.349514
-0.00879896
0.893484
-0.0155807
1.3203
-0.0240428
1.65073
-0.0348175
1.96118
-0.0482893
2.2603
-0.0661214
2.57744
-0.0900411
2.92399
-0.122895
3.28438
-0.169907
3.63927
-0.226572
3.31956
-0.286267
2.50073
-0.471765
2.0163
-1.04524
2.35836
-1.68088
3.19597
-1.95232
3.20781
-2.09853
2.79007
-2.21236
2.32969
-2.30607
1.92378
1.58276
-2.3676
-0.00341963
0.352934
-0.00973094
0.899795
-0.0170371
1.32761
-0.0257391
1.65943
-0.0368172
1.97226
-0.0509595
2.27444
-0.0697594
2.59624
-0.0950126
2.94924
-0.129924
3.31929
-0.180474
3.68982
-0.241762
3.38085
-0.324879
2.58385
-0.608188
2.29961
-1.26365
3.01382
-1.75007
3.68239
-1.95714
3.41487
-2.09623
2.92916
-2.22018
2.45364
-2.33029
2.03389
1.64144
-2.38897
-0.00335393
0.356288
-0.00938588
0.905827
-0.0170141
1.33524
-0.0265479
1.66897
-0.0384863
1.9842
-0.0533576
2.28931
-0.0730533
2.61593
-0.0996765
2.97587
-0.136748
3.35637
-0.191231
3.7443
-0.258922
3.44854
-0.382316
2.70724
-0.770799
2.68809
-1.40973
3.65275
-1.75939
4.03205
-1.93177
3.58726
-2.03332
3.03071
-2.122
2.54231
-2.18858
2.10047
1.63404
-2.18117
-0.00338124
0.359669
-0.0104121
0.912858
-0.0186993
1.34352
-0.0284293
1.6787
-0.0406379
1.9964
-0.0562119
2.30489
-0.0769444
2.63667
-0.104945
3.00387
-0.143999
3.39542
-0.200514
3.80081
-0.277417
3.52544
-0.446603
2.87643
-0.902663
3.14415
-1.45964
4.20973
-1.72001
4.29242
-1.8712
3.73845
-1.96485
3.12436
-1.96548
2.54295
-1.89546
2.03045
1.59615
-1.85758
-0.003159
0.362828
-0.0095889
0.919288
-0.0180866
1.35202
-0.0287422
1.68935
-0.0418627
2.00952
-0.0579935
2.32102
-0.0791464
2.65782
-0.107643
3.03236
-0.147362
3.43514
-0.204196
3.85765
-0.289636
3.61088
-0.493402
3.0802
-0.986089
3.63684
-1.42615
4.64979
-1.59041
4.45668
-1.65698
3.80501
-1.66135
3.12874
-1.51378
2.39538
-1.01461
1.53128
0.581539
-0.00277386
0.365602
-0.0105295
0.927044
-0.0198559
1.36135
-0.0307171
1.70021
-0.0443047
2.02311
-0.0616603
2.33838
-0.0847792
2.68094
-0.116043
3.06363
-0.15972
3.47882
-0.222587
3.92051
-0.324743
3.71304
-0.578774
3.33423
-1.12078
4.17885
-1.4778
5.00681
-1.57659
4.55547
-1.57477
3.8032
-1.47132
3.02528
-1.23264
2.1567
-0.629947
0.928586
-0.0484076
-0.00248422
0.368086
-0.00885556
0.933415
-0.0181887
1.37068
-0.0303957
1.71242
-0.0456116
2.03833
-0.0644583
2.35722
-0.0893925
2.70587
-0.123334
3.09757
-0.171486
3.52697
-0.241531
3.99056
-0.36447
3.83598
-0.678755
3.64851
-1.23914
4.73924
-1.49778
5.26544
-1.55666
4.61435
-1.5344
3.78093
-1.33275
2.82363
-0.780657
1.60461
-0.108375
0.256304
-0.156783
-0.0015062
0.369592
-0.00943943
0.941348
-0.0196821
1.38092
-0.0318628
1.7246
-0.0471989
2.05366
-0.0671016
2.37712
-0.0940424
2.73281
-0.130942
3.13447
-0.182785
3.57881
-0.259842
4.06762
-0.407952
3.98409
-0.780288
4.02085
-1.3158
5.27475
-1.49201
5.44166
-1.52274
4.64508
-1.43489
3.69309
-1.09904
2.48778
-0.312406
0.817975
0.0247617
-0.080863
-0.132021
-0.000981085
0.370574
-0.00628779
0.946655
-0.0159939
1.39063
-0.0296583
1.73826
-0.0468331
2.07084
-0.0683402
2.39863
-0.0970635
2.76154
-0.13634
3.17375
-0.191519
3.63399
-0.278237
4.15433
-0.45334
4.15919
-0.891253
4.45876
-1.36161
5.7451
-1.47627
5.55632
-1.47946
4.64827
-1.25569
3.46932
-0.685018
1.91711
-0.0630349
0.195992
0.0300347
-0.173933
-0.101987
0.00010122
0.370472
-0.00599263
0.952749
-0.016438
1.40108
-0.0297589
1.75159
-0.0463375
2.08742
-0.0685441
2.42084
-0.098984
2.79198
-0.140802
3.21556
-0.198841
3.69203
-0.293632
4.24912
-0.494283
4.35984
-0.981723
4.9462
-1.35461
6.11798
-1.42062
5.62234
-1.37444
4.60209
-1.08644
3.18131
-0.323101
1.15377
0.00366042
-0.130769
0.0142786
-0.184551
-0.087708
0.00326005
0.367212
0.000876373
0.955133
-0.00923795
1.41119
-0.0240983
1.76645
-0.0425034
2.10582
-0.066457
2.44479
-0.0983868
2.82391
-0.141824
3.259
-0.203023
3.75323
-0.307197
4.3533
-0.534057
4.5867
-1.04561
5.45775
-1.32123
6.3936
-1.35967
5.66079
-1.22074
4.46316
-0.770549
2.73112
-0.069583
0.452804
0.0437398
-0.244092
0.0238082
-0.164619
-0.0638998
0.00426001
0.362952
0.00221813
0.957174
-0.00773844
1.42115
-0.0211629
1.77987
-0.0379327
2.12259
-0.0619023
2.46876
-0.0946788
2.85668
-0.139944
3.30427
-0.203379
3.81666
-0.314195
4.46411
-0.571112
4.84362
-1.06533
5.95197
-1.25387
6.58214
-1.26534
5.67226
-1.04719
4.24501
-0.459912
2.14384
-0.0182372
0.011129
-0.00661373
-0.255716
0.00477872
-0.176012
-0.0591211
0.00871897
0.354233
0.0105928
0.955301
0.00437762
1.42736
-0.00913294
1.79338
-0.0281987
2.14166
-0.0535855
2.49415
-0.087174
2.89027
-0.132685
3.34978
-0.198078
3.88206
-0.31643
4.58247
-0.593957
5.12115
-1.04375
6.40176
-1.16953
6.70793
-1.15222
5.65494
-0.892488
3.98528
-0.264774
1.51613
-0.0702096
-0.183436
-0.0387981
-0.287127
-0.0144108
-0.200399
-0.0735319
0.0112531
0.34298
0.0157362
0.950817
0.0105845
1.43251
0.000609713
1.80336
-0.0170044
2.15927
-0.0405373
2.51768
-0.0732071
2.92294
-0.11895
3.39552
-0.184727
3.94783
-0.305546
4.70329
-0.591867
5.40747
-0.97896
6.78885
-1.04074
6.76971
-0.974569
5.58877
-0.676494
3.6872
-0.0713327
0.910965
0.0146305
-0.269399
-0.00022841
-0.272268
-0.00185348
-0.198774
-0.0753854
0.0185152
0.324465
0.030719
0.938614
0.0305969
1.43264
0.0199913
1.81396
0.00223795
2.17703
-0.0209217
2.54084
-0.0533089
2.95533
-0.0976605
3.43987
-0.162049
4.01222
-0.283671
4.82491
-0.561252
5.68505
-0.867202
7.0948
-0.905663
6.80817
-0.800878
5.48399
-0.441967
3.32829
0.0682432
0.400755
0.0795786
-0.280734
0.0594189
-0.252108
0.0221406
-0.161495
-0.0532448
0.0241992
0.300266
0.0421746
0.920638
0.045066
1.42974
0.0387131
1.82031
0.0270603
2.18868
0.00648192
2.56142
-0.0225556
2.98437
-0.0638869
3.4812
-0.125096
4.07343
-0.239705
4.93952
-0.488329
5.93367
-0.710326
7.3168
-0.732296
6.83014
-0.633811
5.38551
-0.30097
2.99545
0.00764474
0.0921399
0.0236189
-0.296709
0.0347481
-0.263238
0.0165037
-0.143251
-0.036741
0.035197
0.265069
0.0659801
0.889855
0.078364
1.41736
0.0757287
1.82295
0.0647806
2.19963
0.045253
2.58095
0.0177759
3.01184
-0.0206795
3.51966
-0.0758176
4.12857
-0.175667
5.03937
-0.375795
6.1338
-0.529383
7.47039
-0.556931
6.85769
-0.462123
5.2907
-0.192956
2.72628
-0.0762641
-0.0245519
-0.0532745
-0.319698
-0.0192129
-0.297299
-0.000337542
-0.162126
-0.0370786
0.0446691
0.2204
0.0872114
0.847313
0.107272
1.3973
0.112177
1.81804
0.108796
2.20301
0.0956521
2.59409
0.0754175
3.03208
0.0442398
3.55084
-0.00653322
4.17934
-0.0807039
5.11354
-0.219135
6.27223
-0.308719
7.55997
-0.317634
6.8666
-0.256488
5.22955
-0.0978153
2.56761
-0.110781
-0.0115862
-0.0862174
-0.344262
-0.050833
-0.332683
-0.0141386
-0.198821
-0.0512172
0.0580776
0.162322
0.121468
0.783923
0.159834
1.35893
0.17336
1.80452
0.173536
2.20283
0.163183
2.60444
0.147552
3.04771
0.124093
3.5743
0.0886493
4.21479
0.0395528
5.16263
-0.0139642
6.32575
-0.0448092
7.59082
-0.0443828
6.86618
-0.00166375
5.18683
0.048644
2.5173
-0.0948811
0.131939
-0.105758
-0.333385
-0.0674538
-0.370987
-0.00924589
-0.257029
-0.0604631
0.0598796
0.102442
0.151114
0.692689
0.208122
1.30193
0.235788
1.77685
0.248141
2.19048
0.248225
2.60436
0.24242
3.05351
0.231168
3.58555
0.212603
4.23335
0.190693
5.18454
0.231485
6.28496
0.284148
7.53816
0.319889
6.83043
0.270902
5.23582
0.0885891
2.69961
-0.157999
0.378527
-0.227193
-0.264191
-0.161992
-0.436189
-0.0487253
-0.370295
-0.109188
0.0491772
0.0532652
0.184708
0.557158
0.282624
1.20401
0.330514
1.72896
0.350989
2.17
0.358911
2.59644
0.357421
3.055
0.357984
3.58498
0.35939
4.23194
0.371992
5.17194
0.520549
6.1364
0.656119
7.40259
0.652456
6.8341
0.429117
5.45916
-0.0645115
3.19324
-0.453389
0.767405
-0.511668
-0.205912
-0.399122
-0.548736
-0.196753
-0.572663
-0.305942
0.0342327
0.0190325
0.219074
0.372317
0.347918
1.07517
0.42702
1.64986
0.46919
2.12783
0.493043
2.57258
0.502847
3.0452
0.517012
3.57082
0.540116
4.20884
0.590784
5.12127
0.808591
5.91859
1.1339
7.07728
1.26978
6.69821
1.28033
5.44861
0.793003
3.68057
0.046541
1.51387
-0.389414
0.230043
-0.500436
-0.437713
-0.280977
-0.792122
-0.586918
0.0304507
-0.0114182
0.233832
0.168935
0.451178
0.85782
0.570356
1.53068
0.625108
2.07308
0.656955
2.54074
0.676174
3.02598
0.699979
3.54701
0.747333
4.16149
0.848172
5.02043
1.17941
5.58735
1.75731
6.49938
2.10224
6.35328
2.36238
5.18848
2.26941
3.77354
1.49329
2.28999
0.767452
0.955876
0.250182
0.0795569
0.00523823
-0.547179
-0.58168
0.0230676
-0.0344858
0.155526
0.0364766
0.494172
0.519174
0.694666
1.33019
0.799821
1.96793
0.854677
2.48588
0.892294
2.98836
0.917164
3.52214
0.98019
4.09846
1.10777
4.89285
1.4875
5.20763
2.25424
5.73264
2.638
5.96952
2.81672
5.00975
2.66415
3.92611
2.1668
2.78734
1.51841
1.60427
0.955715
0.642249
0.368248
0.0402888
-0.213432
0.00154655
-0.0360324
0.0758075
-0.0377844
0.408278
0.186703
0.720481
1.01799
0.866904
1.8215
0.903799
2.44899
0.911561
2.9806
0.896253
3.53745
0.895456
4.09926
0.932296
4.85601
1.0946
5.04532
1.53925
5.28799
1.71267
5.7961
1.75472
4.9677
1.66549
4.01534
1.41352
3.03931
1.00517
2.01262
0.582968
1.06445
0.245207
0.378049
0.031775
0.00382174
-0.0398541
0.0422925
-0.0762552
0.205669
0.0233274
0.550217
0.673437
0.73362
1.6381
0.802694
2.37991
0.815064
2.96823
0.807546
3.54497
0.788924
4.11788
0.80821
4.83673
0.890347
4.96318
1.20061
4.97773
1.38381
5.6129
1.40065
4.95086
1.34411
4.07188
1.18097
3.20245
0.892396
2.3012
0.562233
1.39461
0.233542
0.70674
0.265317
0.00056497
-0.0404191
0.0119617
-0.0876519
0.0802496
-0.0449605
0.379618
0.374069
0.589478
1.42824
0.685424
2.28396
0.709844
2.94381
0.709678
3.54514
0.681683
4.14587
0.676186
4.84222
0.70587
4.9335
0.895691
4.7879
1.07133
5.43727
1.073
4.94919
1.01893
4.12595
0.895062
3.32632
0.686773
2.50949
0.426493
1.65489
0.173265
0.959968
0.438582
-0.00427217
-0.0361469
-0.00241648
-0.0895076
0.0319123
-0.0792892
0.240766
0.165216
0.469693
1.19931
0.572157
2.1815
0.595562
2.92041
0.59482
3.54588
0.567318
4.17337
0.544658
4.86488
0.549024
4.92913
0.657897
4.67903
0.799098
5.29606
0.789769
4.95852
0.732235
4.18348
0.635625
3.42293
0.487586
2.65752
0.298283
1.8442
0.11403
1.14422
0.552612
-4.82229e-05
-0.0360987
0.0108354
-0.100391
0.0436759
-0.11213
0.154956
0.0539363
0.350022
1.00425
0.464353
2.06717
0.494101
2.89066
0.489004
3.55097
0.462141
4.20024
0.434422
4.8926
0.419628
4.94393
0.480791
4.61787
0.576889