/*--------------------------------*- C++ -*----------------------------------*\
  =========                 |
  \\      /  F ield         | OpenFOAM: The Open Source CFD Toolbox
   \\    /   O peration     | Website:  https://openfoam.org
    \\  /    A nd           | Version:  10
     \\/     M anipulation  |
\*---------------------------------------------------------------------------*/
FoamFile
{
    format      ascii;
    class       volVectorField;
    location    "70";
    object      U;
}
// * * * * * * * * * * * * * * * * * * * * * * * * * * * * * * * * * * * * * //

dimensions      [0 1 -1 0 0 0 0];

internalField   nonuniform List<vector> 
2200
(
(0.878836 -0.0304122 0)
(1.00578 -0.0512794 0)
(1.00327 -0.0353998 0)
(1.00024 -0.0244358 0)
(0.999858 -0.0166565 0)
(1.00003 -0.0107236 0)
(1.00003 -0.00683258 0)
(0.999988 -0.00417253 0)
(0.999888 -0.0021812 0)
(1.00018 -0.000651002 0)
(0.999991 0.00115629 0)
(1.00034 0.00269277 0)
(1.00038 0.00452153 0)
(1.00026 0.00712052 0)
(1.00006 0.0108399 0)
(0.999985 0.0166628 0)
(1.00032 0.024378 0)
(1.00347 0.0348687 0)
(1.00598 0.0513819 0)
(0.879045 0.030296 0)
(0.712026 -0.0327599 0)
(0.996645 -0.0630035 0)
(1.03333 -0.056134 0)
(1.02494 -0.046408 0)
(1.01591 -0.0361035 0)
(1.00965 -0.0263627 0)
(1.00592 -0.0181176 0)
(1.00381 -0.0114376 0)
(1.00271 -0.00606005 0)
(1.00229 -0.00163847 0)
(1.00214 0.00247264 0)
(1.00215 0.00695545 0)
(1.00323 0.0123898 0)
(1.00551 0.0189317 0)
(1.00944 0.0272404 0)
(1.01555 0.0369845 0)
(1.02463 0.0474752 0)
(1.03315 0.0579899 0)
(0.996699 0.0631492 0)
(0.711785 0.033036 0)
(0.535584 -0.0238902 0)
(0.969934 -0.0569177 0)
(1.05644 -0.0547159 0)
(1.05222 -0.0487162 0)
(1.03623 -0.0403742 0)
(1.02448 -0.0321998 0)
(1.01591 -0.0239217 0)
(1.01032 -0.015995 0)
(1.00698 -0.0086685 0)
(1.00531 -0.00190879 0)
(1.00541 0.00439612 0)
(1.00727 0.0109264 0)
(1.01049 0.0177891 0)
(1.01573 0.0255216 0)
(1.02404 0.0334772 0)
(1.03606 0.041442 0)
(1.05214 0.0494336 0)
(1.05629 0.0533222 0)
(0.969184 0.0576573 0)
(0.534335 0.0239446 0)
(0.392418 -0.0136397 0)
(0.911913 -0.0463722 0)
(1.05755 -0.0468367 0)
(1.06966 -0.0442754 0)
(1.05492 -0.0381224 0)
(1.03935 -0.0314447 0)
(1.02761 -0.0246364 0)
(1.01923 -0.0174496 0)
(1.01402 -0.0099781 0)
(1.01149 -0.00250083 0)
(1.01124 0.00513642 0)
(1.01305 0.0125065 0)
(1.01804 0.0199273 0)
(1.02654 0.0267071 0)
(1.03848 0.0331294 0)
(1.05397 0.0395685 0)
(1.06821 0.0456403 0)
(1.05546 0.0482925 0)
(0.909892 0.0469934 0)
(0.38988 0.0137789 0)
(0.307834 -0.00451061 0)
(0.846832 -0.0323613 0)
(1.04942 -0.0398942 0)
(1.07947 -0.0381177 0)
(1.06825 -0.0334356 0)
(1.05176 -0.0278007 0)
(1.03832 -0.022397 0)
(1.02796 -0.0162786 0)
(1.02071 -0.0092998 0)
(1.01668 -0.00154564 0)
(1.01659 0.00618249 0)
(1.02059 0.0135095 0)
(1.02757 0.0197679 0)
(1.03733 0.0254993 0)
(1.05019 0.0304467 0)
(1.06663 0.0357842 0)
(1.07767 0.0401322 0)
(1.04719 0.0417979 0)
(0.842859 0.0330057 0)
(0.303639 0.00474362 0)
(0.264483 0.000105751 0)
(0.789281 -0.0200452 0)
(1.03365 -0.03141 0)
(1.08378 -0.0319659 0)
(1.07744 -0.0286743 0)
(1.06092 -0.0237854 0)
(1.04736 -0.019273 0)
(1.03663 -0.0142105 0)
(1.029 -0.00820397 0)
(1.02463 -0.00129283 0)
(1.02408 0.00620548 0)
(1.02722 0.0129528 0)
(1.03426 0.0188072 0)
(1.04493 0.0232667 0)
(1.0586 0.0271943 0)
(1.07485 0.0315793 0)
(1.08027 0.0343054 0)
(1.02911 0.0333911 0)
(0.782448 0.0207701 0)
(0.258589 0.000127067 0)
(0.240561 0.00107183 0)
(0.738632 -0.0122577 0)
(1.01382 -0.0249323 0)
(1.0841 -0.0266803 0)
(1.08312 -0.0243644 0)
(1.06792 -0.0201788 0)
(1.05429 -0.0161681 0)
(1.04324 -0.0115578 0)
(1.03481 -0.00605482 0)
(1.02966 0.000451113 0)
(1.02935 0.00706304 0)
(1.03391 0.0128777 0)
(1.04164 0.0174032 0)
(1.05175 0.0214107 0)
(1.06467 0.0247831 0)
(1.07937 0.0282255 0)
(1.07984 0.0297821 0)
(1.0074 0.0272934 0)
(0.728631 0.013168 0)
(0.232883 -0.000831679 0)
(0.226341 0.000965612 0)
(0.696014 -0.00800316 0)
(0.99354 -0.0206592 0)
(1.08257 -0.0229914 0)
(1.08708 -0.0211267 0)
(1.07353 -0.0175797 0)
(1.06011 -0.0137483 0)
(1.04964 -0.00949296 0)
(1.0419 -0.00456417 0)
(1.0371 0.00104023 0)
(1.03606 0.00707719 0)
(1.03901 0.0124933 0)
(1.04565 0.0169402 0)
(1.05571 0.0202642 0)
(1.06913 0.0232337 0)
(1.08184 0.0259328 0)
(1.07547 0.0269072 0)
(0.983034 0.0235324 0)
(0.681422 0.00916561 0)
(0.216381 -0.000704924 0)
(0.216787 0.00062784 0)
(0.660593 -0.00563379 0)
(0.972905 -0.017539 0)
(1.0797 -0.0200877 0)
(1.09042 -0.0184611 0)
(1.07841 -0.0152304 0)
(1.06499 -0.0115191 0)
(1.05437 -0.00722004 0)
(1.04614 -0.00232587 0)
(1.04075 0.00313763 0)
(1.04006 0.00849608 0)
(1.04391 0.0130249 0)
(1.05075 0.0165904 0)
(1.06005 0.0198738 0)
(1.07242 0.0225654 0)
(1.08327 0.0247363 0)
(1.07075 0.0251391 0)
(0.958925 0.0211169 0)
(0.641207 0.00711374 0)
(0.204213 -0.000328207 0)
(0.209749 0.000305164 0)
(0.632379 -0.00416451 0)
(0.954397 -0.014886 0)
(1.07693 -0.0177629 0)
(1.09376 -0.0164111 0)
(1.08322 -0.0134869 0)
(1.06973 -0.00985832 0)
(1.05929 -0.0058149 0)
(1.05168 -0.00115045 0)
(1.04687 0.00387709 0)
(1.0452 0.00903388 0)
(1.04723 0.0135959 0)
(1.05302 0.0173875 0)
(1.06238 0.0200681 0)
(1.07543 0.0224266 0)
(1.08424 0.0240923 0)
(1.06356 0.0240433 0)
(0.933928 0.0192718 0)
(0.606039 0.00598592 0)
(0.193657 5.03503e-05 0)
(0.203953 9.35054e-05 0)
(0.609124 -0.00310412 0)
(0.936434 -0.0124422 0)
(1.07369 -0.0154039 0)
(1.09701 -0.0141884 0)
(1.08792 -0.0113236 0)
(1.07445 -0.00769193 0)
(1.06369 -0.00349972 0)
(1.05537 0.0013085 0)
(1.04963 0.00642127 0)
(1.04818 0.0111373 0)
(1.05107 0.0150843 0)
(1.05706 0.0180535 0)
(1.06594 0.0207746 0)
(1.07775 0.0228303 0)
(1.08444 0.0240435 0)
(1.05674 0.0232741 0)
(0.909938 0.0177719 0)
(0.575536 0.00534967 0)
(0.183917 0.000333617 0)
(0.199559 2.00154e-05 0)
(0.591302 -0.00222525 0)
(0.921422 -0.0100937 0)
(1.07111 -0.0131996 0)
(1.10061 -0.0121021 0)
(1.09295 -0.00937617 0)
(1.07925 -0.00578461 0)
(1.06821 -0.00188363 0)
(1.05989 0.00256204 0)
(1.05448 0.00748572 0)
(1.05202 0.0125828 0)
(1.05321 0.0166414 0)
(1.05844 0.0197946 0)
(1.06748 0.0216931 0)
(1.08002 0.0233706 0)
(1.0841 0.0241687 0)
(1.04738 0.0228197 0)
(0.885016 0.0166163 0)
(0.547555 0.00499137 0)
(0.174304 0.000504858 0)
(0.196041 3.59468e-05 0)
(0.576701 -0.00151204 0)
(0.906974 -0.00796378 0)
(1.06827 -0.0108499 0)
(1.10413 -0.00969617 0)
(1.09796 -0.00687641 0)
(1.08432 -0.00323412 0)
(1.07298 0.000943684 0)
(1.06409 0.00584449 0)
(1.05758 0.0110483 0)
(1.05491 0.0153162 0)
(1.05669 0.0187936 0)
(1.06203 0.0211293 0)
(1.07049 0.0231214 0)
(1.08128 0.0243451 0)
(1.08323 0.0247185 0)
(1.03808 0.0227483 0)
(0.860651 0.0158213 0)
(0.521993 0.00484991 0)
(0.164943 0.000594717 0)
(0.194118 7.4113e-05 0)
(0.566583 -0.000687699 0)
(0.896079 -0.00572382 0)
(1.06635 -0.00833823 0)
(1.10801 -0.00700976 0)
(1.10323 -0.00407922 0)
(1.08943 -0.00026496 0)
(1.07766 0.00368585 0)
(1.06822 0.00806528 0)
(1.06122 0.0126608 0)
(1.05764 0.0175638 0)
(1.05811 0.0211738 0)
(1.06263 0.023508 0)
(1.07141 0.024631 0)
(1.08241 0.0255733 0)
(1.08106 0.0254623 0)
(1.02588 0.0229424 0)
(0.834873 0.0153531 0)
(0.497121 0.00480147 0)
(0.155466 0.000627298 0)
(0.193385 0.000108306 0)
(0.559283 -0.000170301 0)
(0.886121 -0.00371237 0)
(1.06484 -0.00585873 0)
(1.11216 -0.00431251 0)
(1.10887 -0.00117198 0)
(1.09512 0.00272896 0)
(1.08292 0.00709425 0)
(1.07295 0.0121272 0)
(1.06547 0.0176605 0)
(1.06121 0.0218067 0)
(1.06135 0.0244573 0)
(1.06583 0.026088 0)
(1.07379 0.0272811 0)
(1.08219 0.0275898 0)
(1.07835 0.0270097 0)
(1.01348 0.0237182 0)
(0.809083 0.0153002 0)
(0.473208 0.00489565 0)
(0.146061 0.000654945 0)
(0.194072 7.52301e-05 0)
(0.555393 0.000916401 0)
(0.880047 -0.00144902 0)
(1.06449 -0.00295792 0)
(1.11676 -0.000978639 0)
(1.11466 0.00246845 0)
(1.10069 0.00685098 0)
(1.08805 0.0114028 0)
(1.07736 0.0161893 0)
(1.06827 0.0206476 0)
(1.06275 0.024954 0)
(1.06196 0.0278622 0)
(1.06535 0.0292849 0)
(1.07352 0.0297638 0)
(1.08213 0.0299735 0)
(1.07351 0.0288279 0)
(0.997692 0.0246939 0)
(0.781367 0.0155407 0)
(0.448781 0.00505214 0)
(0.13629 0.000668346 0)
(0.196354 0.000311886 0)
(0.55589 0.0015909 0)
(0.875858 0.000949884 0)
(1.0656 0.000300352 0)
(1.12213 0.00261478 0)
(1.12128 0.0063464 0)
(1.10727 0.0108337 0)
(1.09389 0.0157868 0)
(1.08227 0.0211942 0)
(1.07294 0.0269794 0)
(1.06683 0.0311038 0)
(1.06492 0.0332246 0)
(1.06784 0.0339853 0)
(1.075 0.0343709 0)
(1.08006 0.033477 0)
(1.06788 0.0315848 0)
(0.981298 0.0264804 0)
(0.752783 0.0162241 0)
(0.424057 0.00537518 0)
(0.126242 0.000699402 0)
(0.200731 0.000685101 0)
(0.55889 0.00244023 0)
(0.876616 0.00359628 0)
(1.06833 0.0037172 0)
(1.12828 0.00680562 0)
(1.12835 0.0109914 0)
(1.11392 0.016263 0)
(1.10009 0.0217895 0)
(1.08789 0.0275348 0)
(1.07658 0.0325189 0)
(1.0679 0.0359538 0)
(1.06485 0.0378737 0)
(1.06653 0.0386559 0)
(1.07297 0.0381197 0)
(1.07852 0.0374816 0)
(1.05991 0.0348121 0)
(0.960729 0.0284239 0)
(0.72132 0.017228 0)
(0.39766 0.00575899 0)
(0.115452 0.000717098 0)
(0.207539 0.000906919 0)
(0.566489 0.00363363 0)
(0.881034 0.00606392 0)
(1.07356 0.00807176 0)
(1.13542 0.0117175 0)
(1.13645 0.0165388 0)
(1.12166 0.0221705 0)
(1.10671 0.0282199 0)
(1.09269 0.0343673 0)
(1.07991 0.0401808 0)
(1.07119 0.0448261 0)
(1.06689 0.0462091 0)
(1.06783 0.0458811 0)
(1.07345 0.0449881 0)
(1.07392 0.0428347 0)
(1.05029 0.0390657 0)
(0.938833 0.0314511 0)
(0.687872 0.0186826 0)
(0.369758 0.0062705 0)
(0.104028 0.000743347 0)
(0.216043 0.00106697 0)
(0.577499 0.00487528 0)
(0.889236 0.00912504 0)
(1.08146 0.0124566 0)
(1.14421 0.0173332 0)
(1.14568 0.0230344 0)
(1.13001 0.029793 0)
(1.1141 0.0366277 0)
(1.09931 0.0436564 0)
(1.08518 0.0496441 0)
(1.07251 0.0526254 0)
(1.0661 0.0531737 0)
(1.06513 0.0529162 0)
(1.06895 0.050992 0)
(1.07048 0.0490283 0)
(1.03789 0.0442323 0)
(0.911213 0.0346093 0)
(0.649805 0.0204087 0)
(0.338933 0.00679367 0)
(0.0915688 0.000755013 0)
(0.228869 0.00142454 0)
(0.59682 0.00685067 0)
(0.905122 0.0137124 0)
(1.09299 0.0190155 0)
(1.15481 0.0245188 0)
(1.15646 0.0312103 0)
(1.13972 0.0387144 0)
(1.12211 0.0464075 0)
(1.10457 0.0536848 0)
(1.08717 0.0597358 0)
(1.07342 0.0633226 0)
(1.06662 0.0642045 0)
(1.06524 0.0626941 0)
(1.06837 0.0602919 0)
(1.06249 0.056756 0)
(1.02248 0.0501307 0)
(0.881207 0.038965 0)
(0.608639 0.0224798 0)
(0.305783 0.007333 0)
(0.078393 0.000754939 0)
(0.244712 0.00200974 0)
(0.620445 0.00864228 0)
(0.926444 0.0181415 0)
(1.10872 0.0257771 0)
(1.16772 0.033371 0)
(1.16893 0.0412799 0)
(1.15038 0.0501736 0)
(1.13075 0.0588438 0)
(1.11136 0.0671694 0)
(1.09223 0.0736811 0)
(1.0756 0.0768118 0)
(1.06499 0.0755093 0)
(1.06081 0.0732101 0)
(1.06106 0.0696513 0)
(1.05589 0.0652986 0)
(1.00353 0.0575537 0)
(0.843349 0.043289 0)
(0.560423 0.0245925 0)
(0.268712 0.00774842 0)
(0.0641975 0.000733958 0)
(0.26705 0.00283314 0)
(0.653722 0.0124812 0)
(0.955499 0.0250268 0)
(1.12899 0.0354534 0)
(1.18357 0.0440766 0)
(1.18357 0.0540574 0)
(1.16273 0.0642318 0)
(1.14041 0.0740251 0)
(1.11751 0.0825963 0)
(1.09414 0.0884794 0)
(1.07388 0.0901536 0)
(1.06274 0.0887759 0)
(1.05899 0.0860438 0)
(1.05865 0.0819434 0)
(1.04334 0.0759328 0)
(0.979312 0.0653975 0)
(0.801206 0.0488185 0)
(0.508162 0.0268422 0)
(0.229397 0.00802423 0)
(0.049705 0.000711219 0)
(0.298774 0.00378018 0)
(0.699982 0.0156407 0)
(0.995566 0.0333929 0)
(1.15601 0.0472928 0)
(1.20285 0.0589735 0)
(1.20018 0.07102 0)
(1.17555 0.0829007 0)
(1.14964 0.0934735 0)
(1.12333 0.102178 0)
(1.09703 0.107437 0)
(1.07464 0.108421 0)
(1.06046 0.105528 0)
(1.05245 0.100406 0)
(1.04802 0.0942183 0)
(1.0312 0.0869372 0)
(0.9504 0.0745734 0)
(0.748424 0.0536065 0)
(0.445961 0.0283441 0)
(0.186065 0.00786483 0)
(0.0346434 0.000604523 0)
(0.335609 0.00715888 0)
(0.758164 0.0250599 0)
(1.04457 0.0469406 0)
(1.18875 0.0653913 0)
(1.22628 0.078641 0)
(1.21935 0.0937143 0)
(1.19024 0.106466 0)
(1.16032 0.117106 0)
(1.12962 0.124891 0)
(1.09867 0.128657 0)
(1.07194 0.127398 0)
(1.05516 0.122048 0)
(1.04811 0.116434 0)
(1.04283 0.109952 0)
(1.01207 0.100315 0)
(0.912701 0.0836968 0)
(0.688719 0.0591883 0)
(0.381014 0.0297924 0)
(0.143008 0.007518 0)
(0.0211531 0.000568526 0)
(0.416415 0.0108761 0)
(0.846616 0.0357898 0)
(1.11248 0.0680085 0)
(1.23003 0.0908318 0)
(1.25392 0.10714 6.11439e-34)
(1.23981 0.124372 -2.76516e-34)
(1.20401 0.13734 0)
(1.16873 0.146981 0)
(1.13323 0.153103 0)
(1.09828 0.154218 0)
(1.06883 0.149791 0)
(1.05103 0.142782 0)
(1.03969 0.134666 0)
(1.02761 0.125002 0)
(0.990962 0.11313 0)
(0.868402 0.0932381 0)
(0.61517 0.0625293 0)
(0.301856 0.0287215 0)
(0.094392 0.00683168 0)
(0.00668195 0.000725286 0)
(0.488176 0.0260614 4.43514e-20)
(0.949066 0.0606924 -3.36323e-20)
(1.18238 0.102642 0)
(1.27156 0.130113 2.6292e-20)
(1.2828 0.14634 -2.13204e-20)
(1.25919 0.165177 2.91753e-34)
(1.21664 0.176027 0)
(1.17651 0.183405 1.56252e-20)
(1.13603 0.186547 -5.13507e-20)
(1.09609 0.184608 1.05055e-20)
(1.06302 0.178079 0)
(1.04086 0.168006 -2.67826e-20)
(1.02967 0.157693 -3.22874e-20)
(1.01579 0.147664 5.65832e-20)
(0.953958 0.131507 -4.46902e-20)
(0.794858 0.102893 0)
(0.508768 0.0643667 -1.605e-20)
(0.209439 0.0263158 0)
(0.0460446 0.0064291 -8.87968e-20)
(-0.00873075 0.000290087 1.0465e-19)
(0.524815 0.0542535 -5.87653e-21)
(1.01639 0.10305 9.84925e-20)
(1.23584 0.153858 -4.90989e-21)
(1.30684 0.178318 -6.33888e-20)
(1.30877 0.195768 -4.49474e-20)
(1.27617 0.212947 7.31188e-20)
(1.22705 0.221243 0)
(1.18103 0.225955 0)
(1.13511 0.226813 8.14601e-20)
(1.09069 0.222197 0)
(1.05317 0.211423 9.62443e-20)
(1.02986 0.198388 2.87384e-20)
(1.01313 0.187411 6.05867e-22)
(0.983851 0.17246 -6.12131e-20)
(0.909196 0.150406 0)
(0.722425 0.115237 0)
(0.421897 0.0655098 -2.6077e-19)
(0.148091 0.0234006 6.55773e-19)
(0.0129301 0.00420743 -3.87606e-19)
(-0.0200971 -0.00153175 -4.56482e-19)
(0.531735 0.0780989 -5.18149e-20)
(1.04943 0.160001 2.03714e-20)
(1.27028 0.213855 1.15805e-20)
(1.33359 0.237464 1.09992e-19)
(1.32853 0.254261 1.46735e-20)
(1.28851 0.266798 -1.89876e-19)
(1.23393 0.270661 6.49944e-20)
(1.18294 0.271819 0)
(1.13167 0.268921 -1.71754e-19)
(1.08146 0.259978 1.53159e-19)
(1.03971 0.246158 -2.59612e-19)
(1.01274 0.232455 1.21731e-19)
(0.994329 0.217528 -7.89665e-20)
(0.966283 0.200874 1.78178e-19)
(0.872204 0.174747 0)
(0.668857 0.127118 -6.4756e-20)
(0.368499 0.0675518 0)
(0.121703 0.0222321 3.56673e-19)
(-0.00171134 0.00176725 -8.44805e-19)
(-0.0258846 -0.00357201 5.28738e-19)
(0.52954 0.108578 1.31186e-19)
(1.07645 0.219717 -5.88157e-20)
(1.29562 0.280963 -1.3001e-20)
(1.35193 0.303022 0)
(1.34174 0.316463 -8.16035e-20)
(1.29667 0.323725 1.00867e-19)
(1.23726 0.323183 -6.92992e-20)
(1.1811 0.320247 0)
(1.12505 0.313187 1.21926e-19)
(1.07126 0.300417 -1.07521e-19)
(1.02669 0.283079 2.24134e-19)
(0.996876 0.26509 0)
(0.974112 0.248111 -1.6757e-19)
(0.933518 0.226984 9.45067e-20)
(0.838103 0.192223 2.37332e-19)
(0.631182 0.13928 -2.08755e-19)
(0.343493 0.0730637 3.29081e-19)
(0.114761 0.0236531 -7.2846e-19)
(-0.00777256 -0.00031158 4.60511e-19)
(-0.0298003 -0.00584577 -5.75771e-19)
(0.513968 0.13281 -3.66394e-20)
(1.07695 0.270761 2.57775e-20)
(1.30391 0.344577 -4.34612e-20)
(1.36094 0.368279 9.06849e-20)
(1.34765 0.380732 -8.79639e-20)
(1.29877 0.38287 3.13289e-20)
(1.23592 0.377104 3.83451e-21)
(1.17634 0.369463 -1.36316e-19)
(1.11635 0.357832 -1.27251e-19)
(1.05733 0.340156 -2.3017e-19)
(1.00817 0.318425 -4.81629e-19)
(0.975355 0.297465 -1.48624e-19)
(0.951304 0.276944 2.23351e-21)
(0.915353 0.253906 -3.227e-19)
(0.81233 0.217366 -4.84439e-21)
(0.607521 0.153412 3.03158e-19)
(0.336888 0.0805926 -9.065e-20)
(0.11664 0.0270004 -5.2647e-20)
(-0.0052507 -0.00199482 0)
(-0.0302569 -0.00749863 1.22148e-18)
(0.499665 0.154846 0)
(1.07753 0.323913 9.48529e-22)
(1.30855 0.410436 -5.35042e-21)
(1.36358 0.433369 -1.30222e-20)
(1.34782 0.4434 8.34848e-20)
(1.29693 0.440893 -7.38999e-20)
(1.23141 0.430978 7.52285e-20)
(1.16825 0.419174 2.24057e-19)
(1.10456 0.403189 -7.07852e-20)
(1.04292 0.381204 1.13645e-19)
(0.992074 0.355757 2.58729e-19)
(0.957144 0.331165 3.2403e-19)
(0.928588 0.308192 -1.95122e-19)
(0.882715 0.281383 3.49302e-19)
(0.784651 0.236599 -2.76762e-19)
(0.587869 0.171204 0)
(0.332289 0.0919266 -6.88488e-19)
(0.124228 0.0325226 9.27908e-19)
(0.00285125 -0.000842453 6.92262e-20)
(-0.0273186 -0.00833234 -1.29192e-18)
(0.480987 0.173598 -5.19547e-21)
(1.06299 0.368525 -2.79113e-20)
(1.30315 0.468951 3.81887e-20)
(1.36074 0.494715 -6.25647e-20)
(1.3433 0.504714 7.0911e-20)
(1.29034 0.498278 -7.06521e-20)
(1.22269 0.484116 1.47906e-19)
(1.15743 0.467915 -6.64068e-20)
(1.09116 0.447431 -2.85098e-19)
(1.02604 0.420862 -7.411e-23)
(0.970949 0.391138 -2.81238e-19)
(0.932108 0.362682 -3.48827e-19)
(0.903618 0.336651 2.15782e-19)
(0.864211 0.308322 -1.25531e-19)
(0.761613 0.264488 3.01276e-19)
(0.57248 0.188623 0)
(0.332074 0.10575 -4.28588e-19)
(0.133466 0.0400377 6.33021e-19)
(0.0124832 0.00212823 1.19685e-18)
(-0.0231458 -0.00830504 -1.40768e-18)
(0.468708 0.19251 -1.11833e-19)
(1.05502 0.416377 5.07843e-20)
(1.29744 0.528894 -1.85201e-20)
(1.3541 0.554852 6.38443e-20)
(1.33498 0.563215 1.22598e-20)
(1.28112 0.55306 -1.3722e-19)
(1.21208 0.535478 -8.6355e-20)
(1.14468 0.515603 -8.59887e-20)
(1.07601 0.491246 -1.61453e-19)
(1.00868 0.460831 2.59886e-19)
(0.95114 0.426848 2.83678e-19)
(0.910823 0.395283 5.53433e-19)
(0.88005 0.367522 0)
(0.831712 0.336093 6.36842e-21)
(0.7367 0.283209 -8.28761e-19)
(0.557607 0.208146 1.94919e-19)
(0.331286 0.119479 9.31113e-19)
(0.142226 0.0488187 -2.74779e-19)
(0.0225889 0.00629782 5.69629e-19)
(-0.0183321 -0.00753765 -4.74631e-20)
(0.454759 0.208285 5.89653e-21)
(1.03746 0.455542 6.83643e-20)
(1.28596 0.581648 -3.5875e-22)
(1.34456 0.610636 5.60817e-20)
(1.32434 0.619191 -1.26758e-19)
(1.26921 0.605937 1.35082e-19)
(1.19878 0.584995 8.92481e-20)
(1.13006 0.561469 2.559e-19)
(1.05922 0.533312 3.23063e-19)
(0.988202 0.498772 -3.01833e-19)
(0.927286 0.460884 0)
(0.884757 0.425456 -2.10042e-19)
(0.853206 0.394168 2.41152e-19)
(0.812936 0.361651 3.04722e-19)
(0.715525 0.31122 -1.76475e-19)
(0.543871 0.225699 -4.27876e-19)
(0.33045 0.134182 -1.27326e-19)
(0.149736 0.05828 -2.06114e-21)
(0.0317694 0.0112882 0)
(-0.0135949 -0.00628762 0)
(0.447116 0.225686 -9.34698e-20)
(1.02745 0.498136 0)
(1.27552 0.635453 1.54535e-20)
(1.33287 0.665201 -1.93523e-20)
(1.31138 0.672308 1.46987e-19)
(1.25579 0.656012 -3.67225e-20)
(1.18453 0.632274 9.07069e-20)
(1.11412 0.605699 -1.72685e-19)
(1.04114 0.574549 2.45173e-19)
(0.968807 0.536712 -1.0035e-19)
(0.90667 0.494678 1.63045e-19)
(0.86292 0.456175 6.67317e-19)
(0.829492 0.42444 1.4262e-20)
(0.780645 0.387712 -3.1847e-19)
(0.691572 0.327839 5.89068e-19)
(0.528501 0.245283 3.17683e-21)
(0.326907 0.147826 1.36221e-19)
(0.15469 0.0679315 -6.49243e-19)
(0.0390381 0.0163504 6.68911e-19)
(-0.00946923 -0.0048698 -7.87919e-19)
(0.438775 0.240527 2.74724e-23)
(1.01174 0.533117 0)
(1.26149 0.682215 0)
(1.31976 0.715293 5.0311e-21)
(1.29762 0.722525 -4.15291e-20)
(1.24109 0.703711 6.19175e-20)
(1.1687 0.677348 -1.66705e-19)
(1.09733 0.64796 0)
(1.02311 0.61365 -3.62033e-19)
(0.948462 0.572278 4.38004e-19)
(0.882732 0.526699 4.67302e-19)
(0.83629 0.485573 -2.45069e-19)
(0.802399 0.448493 -2.97396e-19)
(0.762105 0.410029 6.9772e-19)
(0.669969 0.354357 -2.09693e-19)
(0.513002 0.260864 -2.49493e-19)
(0.322131 0.16116 -1.4904e-19)
(0.156904 0.0766316 -7.02164e-19)
(0.044117 0.0209151 1.02924e-19)
(-0.006161 -0.00350934 8.53719e-19)
(0.433162 0.257513 -4.45405e-20)
(1.00175 0.571111 -6.04508e-20)
(1.24905 0.729897 2.39026e-20)
(1.30557 0.764147 -2.02437e-22)
(1.28245 0.770074 -4.91487e-20)
(1.22559 0.748852 9.57659e-20)
(1.15277 0.720236 0)
(1.08048 0.688268 1.05202e-19)
(1.0048 0.651703 -8.29524e-20)
(0.928348 0.607767 7.32138e-19)
(0.860609 0.558487 -1.05016e-19)
(0.813736 0.51375 1.21524e-19)
(0.779253 0.476097 0)
(0.729874 0.433503 -3.78001e-19)
(0.645586 0.366703 4.57975e-19)
(0.495732 0.277818 0)
(0.314073 0.171833 -3.20794e-19)
(0.156358 0.0841354 9.44462e-19)
(0.0469499 0.0246847 1.12274e-19)
(-0.00371561 -0.00235076 -1.05318e-18)
(0.42866 0.274832 -1.09703e-19)
(0.988391 0.602758 1.38529e-19)
(1.23421 0.770978 0)
(1.29092 0.808516 3.09273e-20)
(1.26741 0.814638 0)
(1.20992 0.79141 -1.28289e-19)
(1.13644 0.760695 0)
(1.06357 0.726673 0)
(0.98663 0.687684 -1.1118e-19)
(0.907719 0.640872 -6.96282e-19)
(0.837347 0.588723 -8.64832e-19)
(0.787228 0.541275 1.42711e-19)
(0.750925 0.497158 5.16007e-19)
(0.711048 0.451585 4.16893e-19)
(0.623303 0.389785 -1.47046e-18)
(0.478842 0.288595 -5.86601e-19)
(0.305303 0.181729 3.44128e-19)
(0.153984 0.0898679 0)
(0.0480256 0.0275893 9.65716e-19)
(-0.00200428 -0.0014543 -1.13637e-18)
(0.426438 0.290436 1.2876e-19)
(0.979897 0.63706 -1.59199e-19)
(1.2212 0.813218 0)
(1.27596 0.851741 -1.14727e-20)
(1.25169 0.856756 -6.83293e-21)
(1.19402 0.831691 0)
(1.12039 0.799227 5.17904e-20)
(1.04679 0.763065 7.39336e-20)
(0.96847 0.722437 -2.08273e-19)
(0.887838 0.673757 9.19977e-20)
(0.81517 0.618542 0)
(0.764018 0.566894 5.92072e-19)
(0.727542 0.52194 6.41538e-21)
(0.678297 0.471919 2.25118e-19)
(0.59886 0.396098 2.66697e-19)
(0.460733 0.301059 0)
(0.294826 0.188131 -5.59946e-19)
(0.14964 0.094272 1.09857e-18)
(0.0477409 0.0293955 -1.16916e-18)
(-0.00110201 -0.000882293 2.44928e-18)
(0.424431 0.305204 0)
(0.96825 0.665321 0)
(1.20668 0.849135 -7.89714e-20)
(1.26119 0.890623 0)
(1.23663 0.895967 0)
(1.17853 0.869352 -1.01169e-19)
(1.10444 0.835235 5.2961e-20)
(1.03031 0.797629 1.79483e-20)
(0.950773 0.755234 -4.73098e-20)
(0.867784 0.704438 0)
(0.792243 0.647201 -1.32486e-19)
(0.737436 0.593248 -4.83016e-19)
(0.697497 0.540527 -5.82479e-19)
(0.658455 0.484824 -2.34416e-19)
(0.576123 0.414793 2.88895e-19)
(0.443124 0.305384 -6.80235e-19)
(0.285224 0.193311 1.2034e-18)
(0.144937 0.0962564 1.44814e-21)
(0.0466519 0.0311625 -1.1171e-18)
(-0.000358391 0.000242111 -1.65242e-19)
(0.423184 0.3191 0)
(0.960629 0.696269 -1.28051e-19)
(1.19419 0.886402 9.53112e-20)
(1.24655 0.928623 0)
(1.22128 0.933007 0)
(1.16303 0.905015 2.00423e-19)
(1.08887 0.869614 0)
(1.01415 0.830281 0)
(0.933427 0.786733 -4.58455e-19)
(0.848785 0.734817 1.28619e-19)
(0.770638 0.675126 -1.17556e-18)
(0.713612 0.616539 0)
(0.673601 0.563036 -6.35275e-19)
(0.623867 0.501909 9.77319e-21)
(0.550505 0.413327 -9.31439e-19)
(0.4257 0.310522 3.65656e-19)
(0.276615 0.192364 1.18536e-21)
(0.143725 0.0953425 -1.26398e-18)
(0.0469359 0.0289003 5.99716e-19)
(-0.00221033 -0.00263104 1.76754e-19)
(0.421675 0.332783 0)
(0.950403 0.721783 -1.72079e-19)
(1.18064 0.917693 1.00143e-19)
(1.23237 0.962541 1.43153e-19)
(1.20683 0.967333 -4.17582e-21)
(1.14822 0.938141 1.97793e-20)
(1.07376 0.90146 -2.93302e-20)
(0.998704 0.861213 4.31122e-19)
(0.916916 0.816479 4.90416e-19)
(0.829954 0.763174 9.78686e-19)
(0.748551 0.702447 9.76703e-19)
(0.687 0.642468 1.72277e-19)
(0.641153 0.580214 9.13459e-19)
(0.60152 0.509644 5.64819e-19)
(0.525314 0.425927 6.68253e-19)
(0.408325 0.304221 -3.99922e-19)
(0.269234 0.185735 -4.58218e-19)
(0.148113 0.0944665 5.45397e-19)
(0.057056 0.0400872 -3.22446e-19)
(0.0066415 0.00875172 5.73404e-19)
(0.420628 0.345961 2.39429e-19)
(0.943755 0.749927 2.69871e-19)
(1.16905 0.950669 5.70973e-20)
(1.21851 0.995907 1.53489e-20)
(1.1923 0.999777 -2.10338e-20)
(1.13359 0.969533 -5.51037e-20)
(1.05919 0.931981 2.79133e-20)
(0.983732 0.890417 -1.87904e-20)
(0.900941 0.844938 -5.72235e-19)
(0.812339 0.791123 -1.06272e-18)
(0.728075 0.728954 6.78261e-20)
(0.663044 0.664429 0)
(0.616328 0.601463 0)
(0.562754 0.525193 -2.95105e-19)
(0.494615 0.41486 -1.09733e-18)
(0.388932 0.296611 8.61647e-19)
(0.269958 0.168416 5.03269e-19)
(0.162977 0.0714011 0)
(0.0757414 0.00771808 1.03203e-18)
(0.00040756 -0.0196056 -6.10586e-19)
(0.419316 0.358801 -1.27114e-19)
(0.934812 0.772844 1.11878e-19)
(1.15651 0.977937 -1.36014e-19)
(1.20521 1.02543 -1.15808e-19)
(1.17877 1.02973 -2.31777e-20)
(1.11985 0.998552 -1.75614e-20)
(1.04535 0.960025 0)
(0.969726 0.917984 -5.42626e-19)
(0.885967 0.871794 6.88364e-20)
(0.79513 0.81725 0)
(0.707418 0.755102 0)
(0.637242 0.690669 1.10745e-19)
(0.581247 0.618885 1.48796e-19)
(0.535688 0.52955 -3.19531e-19)
(0.462436 0.423536 7.87236e-19)
(0.363244 0.274713 -9.39551e-19)
(0.257156 0.14269 -1.08163e-18)
(0.189283 0.0628445 9.58665e-19)
(0.148444 0.0646543 -3.66734e-19)
(0.108785 0.0734595 2.1334e-19)
(0.418409 0.370796 1.56971e-19)
(0.928971 0.798209 0)
(1.14582 1.00719 0)
(1.19232 1.05472 -3.27013e-20)
(1.16532 1.05807 2.64722e-20)
(1.10639 1.02607 -1.95868e-20)
(1.03209 0.987008 1.29451e-19)
(0.956163 0.944 5.55095e-19)
(0.871523 0.897373 1.03962e-18)
(0.779258 0.842807 -8.06157e-20)
(0.688741 0.780199 1.67271e-19)
(0.613986 0.712208 -9.93499e-19)
(0.556135 0.640747 -9.9333e-19)
(0.490635 0.547605 -1.72098e-19)
(0.416501 0.404876 0)
(0.329784 0.261255 -3.88153e-21)
(0.241941 0.0673614 5.97856e-19)
(0.238936 -0.0427579 -1.00256e-18)
(0.206925 -0.114855 7.61575e-19)
(0.0887057 -0.101167 6.30049e-19)
(0.417052 0.382554 -3.45778e-19)
(0.920837 0.818476 -1.55185e-19)
(1.13412 1.03094 6.87906e-21)
(1.17993 1.08054 6.31491e-20)
(1.15276 1.08443 0)
(1.0937 1.05178 -4.11534e-20)
(1.01936 1.01205 -1.88685e-19)
(0.943317 0.968982 -2.24361e-21)
(0.857785 0.922142 -5.44722e-19)
(0.76336 0.867474 -7.92565e-20)
(0.669228 0.806048 7.3618e-20)
(0.589068 0.740528 8.73077e-19)
(0.517722 0.661396 9.68694e-19)
(0.456639 0.551917 1.68348e-19)
(0.374962 0.420907 8.57226e-19)
(0.26906 0.224274 0)
(0.143319 0.0457171 0)
(-0.0151446 0.168651 6.83421e-19)
(-0.078631 0.629264 -2.65672e-20)
(0.0102103 1.54658 -8.50436e-19)
(0.416208 0.393523 1.90487e-19)
(0.915612 0.841475 4.39171e-19)
(1.1242 1.05733 -6.09431e-19)
(1.16786 1.10684 3.12305e-19)
(1.14014 1.10995 -1.20894e-20)
(1.08103 1.07684 9.30308e-21)
(1.00683 1.03707 0)
(0.930422 0.993586 -4.62214e-19)
(0.84404 0.946916 0)
(0.748304 0.893031 1.11339e-18)
(0.651346 0.832282 -9.05446e-20)
(0.565416 0.764533 1.0153e-19)
(0.492093 0.688829 1.11892e-18)
(0.401305 0.584173 -3.65799e-19)
(0.286126 0.402548 -4.34774e-19)
(0.179721 0.272372 0)
(0.0719909 0.450426 0)
(0.0238956 1.36746 0)
(0.070985 2.47586 -3.87661e-19)
(0.0967238 2.91678 -2.39753e-19)
(0.414595 0.404042 0)
(0.908065 0.859293 0)
(1.11325 1.07812 2.21634e-19)
(1.15631 1.12977 -2.54439e-19)
(1.1284 1.13372 1.20062e-19)
(1.06913 1.10037 3.10868e-22)
(0.994881 1.06034 2.4955e-20)
(0.918382 1.01736 -1.9429e-20)
(0.831257 0.971237 7.76828e-20)
(0.733488 0.9182 -1.2779e-18)
(0.632514 0.859935 1.63848e-19)
(0.541383 0.798143 8.80948e-19)
(0.45005 0.718271 -1.11414e-18)
(0.362335 0.590535 -1.23232e-18)
(0.262222 0.458351 4.13507e-19)
(0.177799 0.609505 0)
(0.11123 1.5952 5.59569e-19)
(0.116798 2.70296 6.01145e-19)
(0.124152 3.09113 -6.71406e-19)
(0.117039 3.22371 7.13388e-19)
(0.413542 0.414291 0)
(0.903394 0.880009 3.82745e-19)
(1.10413 1.10196 -5.55175e-20)
(1.14515 1.15344 3.49959e-19)
(1.11667 1.15674 -1.26026e-19)
(1.05735 1.12322 0)
(0.98323 1.08359 0)
(0.906408 1.04068 0)
(0.818612 0.995318 4.33967e-19)
(0.719817 0.943908 5.86638e-20)
(0.616474 0.887414 0)
(0.519132 0.824296 -8.75359e-19)
(0.430954 0.750474 0)
(0.305284 0.634719 8.81592e-19)
(0.198006 0.682046 -5.98776e-19)
(0.142304 1.46805 -4.78776e-19)
(0.147196 2.68933 -1.09594e-18)
(0.170984 3.12593 -5.75136e-19)
(0.161599 3.26484 -7.70375e-19)
(0.148902 3.30502 5.54785e-19)
(0.411863 0.423513 -1.32971e-19)
(0.896309 0.895383 1.46609e-20)
(1.0939 1.11995 -6.14539e-20)
(1.13452 1.17369 -2.71604e-19)
(1.10584 1.17812 0)
(1.04637 1.1447 0)
(0.972212 1.10511 0)
(0.895409 1.06313 3.28151e-20)
(0.8071 1.01893 -5.48993e-19)
(0.706584 0.969209 0)
(0.599557 0.916307 0)
(0.499546 0.861928 0)
(0.386637 0.782232 0)
(0.308523 0.727587 6.49329e-19)
(0.263606 1.13331 1.58968e-18)
(0.235964 2.40461 4.65147e-19)
(0.253999 3.0811 9.28469e-19)
(0.248554 3.27758 -7.10879e-19)
(0.200577 3.34288 2.59264e-19)
(0.169124 3.3562 0)
(0.410665 0.432608 1.36512e-19)
(0.892025 0.914563 -8.45931e-19)
(1.08538 1.14219 -2.28522e-19)
(1.12403 1.19563 -5.08206e-20)
(1.09478 1.19948 2.92133e-20)
(1.03529 1.16608 -1.19447e-19)
(0.961319 1.12719 -2.15576e-22)
(0.88429 1.08565 -3.57607e-19)
(0.79552 1.04264 0)
(0.694419 0.995252 -7.55683e-20)
(0.586196 0.9452 6.87463e-20)
(0.480252 0.888676 0)
(0.383549 0.823046 0)
(0.320764 0.921669 -8.13804e-19)
(0.264287 1.8515 1.02976e-19)
(0.260927 2.94515 -3.50256e-19)
(0.286459 3.28036 7.32335e-19)
(0.257604 3.37854 5.22419e-19)
(0.193515 3.40321 -7.05149e-19)
(0.169233 3.41355 3.47298e-19)
(0.408541 0.441958 2.67064e-19)
(0.884307 0.929164 8.22204e-19)
(1.07464 1.15939 2.75112e-19)
(1.11319 1.2154 0)
(1.08383 1.22065 0)
(1.0243 1.18749 9.25039e-20)
(0.950416 1.14868 5.03805e-20)
(0.87364 1.10821 3.18267e-19)
(0.784703 1.06665 2.11853e-20)
(0.682462 1.02144 9.61826e-19)
(0.571666 0.97546 -1.15007e-18)
(0.460105 0.924457 0)
(0.380484 0.902427 0)
(0.332501 1.30133 -5.55962e-19)
(0.327 2.49747 -6.66514e-19)
(0.372454 3.19304 0)
(0.397796 3.36034 -7.39929e-19)
(0.326861 3.42339 5.1392e-20)
(0.258914 3.46923 3.38225e-19)
(0.236931 3.49477 -1.09464e-19)
(0.406711 0.451631 -5.07268e-19)
(0.879451 0.950399 -3.94216e-19)
(1.06508 1.18404 0)
(1.10147 1.23915 0)
(1.07163 1.24342 0)
(1.01226 1.21005 0)
(0.938813 1.17191 -6.13316e-20)
(0.862077 1.13183 2.76762e-19)
(0.773073 1.09147 0)
(0.671072 1.04887 -8.75298e-19)
(0.560922 1.00613 2.06499e-18)
(0.45023 0.962376 8.48164e-20)
(0.396076 1.02361 1.14695e-19)
(0.384366 1.73901 9.05844e-19)
(0.394642 2.90136 -4.87109e-19)
(0.435202 3.31176 0)
(0.418142 3.43284 2.08271e-19)
(0.332258 3.5222 9.10248e-20)
(0.258993 3.58672 1.48753e-19)
(0.183459 3.56616 -1.64709e-20)
(0.403688 0.46185 2.40926e-19)
(0.869715 0.965883 -4.00444e-19)
(1.05226 1.20218 0)
(1.08895 1.26028 -7.43626e-20)
(1.05914 1.26619 2.57089e-19)
(0.999925 1.23298 0)
(0.926841 1.19467 0)
(0.850748 1.15551 -4.7975e-19)
(0.762116 1.11656 -5.57053e-20)
(0.6599 1.07621 8.59437e-19)
(0.545898 1.03689 -9.81081e-19)
(0.451963 1.01378 5.78782e-19)
(0.412203 1.21325 0)
(0.419283 2.1854 -4.80587e-19)
(0.461276 3.1413 3.14902e-19)
(0.526777 3.41311 1.9784e-19)
(0.517623 3.50848 0)
(0.455205 3.59129 -3.6777e-20)
(0.386652 3.63063 -4.09039e-19)
(0.306349 3.60299 -9.6561e-20)