/*--------------------------------*- C++ -*----------------------------------*\
  =========                 |
  \\      /  F ield         | OpenFOAM: The Open Source CFD Toolbox
   \\    /   O peration     | Website:  https://openfoam.org
    \\  /    A nd           | Version:  10
     \\/     M anipulation  |
\*---------------------------------------------------------------------------*/
FoamFile
{
    format      ascii;
    class       volScalarField;
    location    "2";
    object      p;
}
// * * * * * * * * * * * * * * * * * * * * * * * * * * * * * * * * * * * * * //

dimensions      [1 -1 -2 0 0 0 0];

internalField   nonuniform List<scalar> 
16128
(
1
1
1
1
1
1
1
1
1
1
1
1
1
1
1
1
1
1
1
1
1
1
1
1
1.54787
8.0506
10.5561
10.6148
10.7463
10.863
10.9766
11.0827
11.1827
11.277
11.3651
11.448
11.5283
11.6048
11.6751
11.74
11.7992
11.8509
11.8993
11.945
11.9895
12.0194
12.0289
12.0411
1
1
1
1
1
1
1
1
1
1
1
1
1
1
1
1
1
1
1
1
1
1
1
1
1.51203
7.96328
10.5403
10.6177
10.7466
10.8636
10.9742
11.0772
11.1749
11.2682
11.3562
11.4394
11.5197
11.5963
11.6661
11.7291
11.7861
11.8372
11.8874
11.9334
11.9753
12.0011
12.0087
12.0278
1
1
1
1
1
1
1
1
1
1
1
1
1
1
1
1
1
1
1
1
1
1
1
1
1.4358
7.79668
10.5365
10.6158
10.7392
10.8564
10.9659
11.0665
11.1624
11.2551
11.3432
11.4268
11.5073
11.5841
11.6529
11.7136
11.7686
11.8201
11.8712
11.9144
11.9505
11.972
11.9783
12.0065
1
1
1
1
1
1
1
1
1
1
1
1
1
1
1
1
1
1
1
1
1
1
1
1
1.3382
7.55881
10.5254
10.6174
10.73
10.8412
10.9483
11.0488
11.1443
11.2362
11.3233
11.4063
11.4863
11.5624
11.6299
11.6893
11.7438
11.795
11.8443
11.8832
11.914
11.9325
11.9414
11.9779
1
1
1
1
1
1
1
1
1
1
1
1
1
1
1
1
1
1
1
1
1
1
1
1
1.22409
7.25527
10.5096
10.5956
10.7054
10.8192
10.9291
11.0315
11.1264
11.2158
11.299
11.378
11.4539
11.5264
11.5921
11.6522
11.708
11.7596
11.8086
11.8473
11.8745
11.8876
11.8777
11.9378
1
1
1
1
1
1
1
1
1
1
1
1
1
1
1
1
1
1
1
1
1
1
1
1
1.07382
6.85463
10.498
10.5968
10.7005
10.8064
10.909
11.0046
11.0928
11.1768
11.2558
11.3335
11.4095
11.4828
11.55
11.612
11.6675
11.7153
11.7597
11.7971
11.8263
11.8453
11.8109
11.8703
1
1
1
1
1
1
1
1
1
1
1
1
1
1
1
1
1
1
1
1
1
1
1
1
1.0026
6.33144
10.4359
10.5373
10.6355
10.7469
10.8551
10.9553
11.0466
11.1331
11.2132
11.2902
11.3629
11.4315
11.4948
11.555
11.6093
11.6555
11.6998
11.7391
11.7684
11.7835
11.7333
11.8037
1
1
1
1
1
1
1
1
1
1
1
1
1
1
1
1
1
1
1
1
1
1
1
1
1.00001
5.68734
10.3383
10.4983
10.5943
10.7075
10.8151
10.915
11.0047
11.0885
11.1648
11.2382
11.3079
11.3738
11.4345
11.4922
11.5438
11.5868
11.6283
11.6663
11.6957
11.7096
11.6621
11.7194
1
1
1
1
1
1
1
1
1
1
1
1
1
1
1
1
1
1
1
1
1
1
1
1
1
4.97063
10.1912
10.4527
10.5448
10.6589
10.7642
10.8624
10.9504
11.0318
11.1048
11.1738
11.2394
11.3014
11.358
11.4118
11.461
11.5032
11.5414
11.573
11.5907
11.6042
11.6034
11.6119
1
1
1
1
1
1
1
1
1
1
1
1
1
1
1
1
1
1
1
1
1
1
1
1
1
4.20068
9.95053
10.4083
10.4994
10.6158
10.7179
10.8114
10.894
10.9697
11.0371
11.0998
11.1604
11.2182
11.2704
11.3194
11.3647
11.4033
11.4355
11.4598
11.4754
11.4905
11.4901
11.4726
1
1
1
1
1
1
1
1
1
1
1
1
1
1
1
1
1
1
1
1
1
1
1
1
1
3.42347
9.59479
10.373
10.4561
10.57
10.6687
10.7613
10.8419
10.913
10.9751
11.0301
11.0823
11.1323
11.1771
11.2191
11.2579
11.2903
11.3142
11.3287
11.3387
11.3419
11.339
11.3365
1
1
1
1
1
1
1
1
1
1
1
1
1
1
1
1
1
1
1
1
1
1
1
1
1
2.65279
9.07469
10.3583
10.4249
10.528
10.6184
10.706
10.784
10.8515
10.9094
10.9575
11.0008
11.0409
11.0762
11.1087
11.1378
11.162
11.1783
11.1861
11.1864
11.1626
11.1188
11.1508
1
1
1
1
1
1
1
1
1
1
1
1
1
1
1
1
1
1
1
1
1
1
1
1
1
1.89037
8.38019
10.3906
10.3789
10.4661
10.5525
10.6427
10.7201
10.783
10.8354
10.8775
10.9128
10.9432
10.9685
10.9906
11.0082
11.0211
11.0198
11.0056
10.9761
10.9332
10.8607
10.9044
1
1
1
1
1
1
1
1
1
1
1
1
1
1
1
1
1
1
1
1
1
1
1
1
1
1.22917
7.50452
10.4458
10.3576
10.416
10.485
10.5587
10.6336
10.6985
10.7485
10.7871
10.8144
10.8348
10.8485
10.8584
10.8618
10.8557
10.8324
10.7975
10.7453
10.6804
10.5591
10.5254
1
1
1
1
1
1
1
1
1
1
1
1
1
1
1
1
1
1
1
1
1
1
1
1
1
1.00765
6.41947
10.1644
10.1922
10.2998
10.3957
10.4819
10.5516
10.6031
10.6456
10.6798
10.6993
10.7117
10.715
10.7128
10.6986
10.6721
10.6216
10.5527
10.4413
10.2831
10.0681
9.99922
1
1
1
1
1
1
1
1
1
1
1
1
1
1
1
1
1
1
1
1
1
1
1
1
1
1.00001
5.08602
9.85791
10.1183
10.2329
10.3215
10.388
10.4433
10.4909
10.5286
10.558
10.5687
10.5741
10.5666
10.5504
10.5163
10.4634
10.3744
10.2576
10.0849
9.87899
9.55352
9.49669
1
1
1
1
1
1
1
1
1
1
1
1
1
1
1
1
1
1
1
1
1
1
1
1
1
1
3.76446
9.35138
10.0823
10.1903
10.2657
10.3181
10.358
10.3917
10.4168
10.4348
10.4316
10.4262
10.4058
10.3736
10.3167
10.2348
10.106
9.94424
9.68426
9.30892
8.40042
6.35028
1
1
1
1
1
1
1
1
1
1
1
1
1
1
1
1
1
1
1
1
1
1
1
1
1
1
2.42703
8.59253
10.0582
10.1103
10.1794
10.2283
10.2637
10.2926
10.3132
10.3184
10.2997
10.2777
10.2398
10.187
10.104
9.99233
9.82169
9.5946
9.23633
8.6133
7.63471
5.36213
1
1
1
1
1
1
1
1
1
1
1
1
1
1
1
1
1
1
1
1
1
1
1
1
1
1
1.3037
7.59754
10.1854
10.086
10.1081
10.1393
10.1633
10.1817
10.1947
10.1905
10.1615
10.1235
10.0659
9.99248
9.88287
9.74119
9.53232
9.24273
8.81238
8.13423
7.01661
5.09578
1
1
1
1
1
1
1
1
1
1
1
1
1
1
1
1
1
1
1
1
1
1
1
1
1
1
1.01027
6.17602
9.7962
9.85823
9.93933
9.99999
10.038
10.0604
10.0713
10.06
10.023
9.96968
9.89177
9.79691
9.66244
9.49125
9.24957
8.91853
8.43507
7.75243
6.60982
5.08697
1
1
1
1
1
1
1
1
1
1
1
1
1
1
1
1
1
1
1
1
1
1
1
1
1
1
0.999956
4.40634
9.38313
9.82649
9.89651
9.93381
9.9514
9.96053
9.95665
9.93323
9.88618
9.81787
9.71983
9.60185
9.44747
9.25088
8.98382
8.62478
8.12697
7.45192
6.38829
5.19986
1
1
1
1
1
1
1
1
1
1
1
1
1
1
1
1
1
1
1
1
1
1
1
1
1
1
0.999989
2.6224
8.63147
9.797
9.81558
9.85818
9.8712
9.86429
9.84317
9.80519
9.74665
9.66492
9.55057
9.41271
9.242
9.02536
8.74398
8.36881
7.87319
7.21298
6.29494
5.31832
1
1
1
1
1
1
1
1
1
1
1
1
1
1
1
1
1
1
1
1
1
1
1
1
1
1
0.999998
1.26409
7.49692
9.90544
9.78666
9.76291
9.76695
9.75272
9.72301
9.67676
9.60991
9.51846
9.39259
9.23852
9.05125
8.81959
8.52949
8.15156
7.66586
7.04197
6.2635
5.44426
1
1
1
1
1
1
1
1
1
1
1
1
1
1
1
1
1
1
1
1
1
1
1
1
1
1
1
1.00697
5.74386
9.40239
9.57905
9.64449
9.65413
9.63547
9.5994
9.5462
9.47197
9.37245
9.23897
9.07453
8.87464
8.63327
8.33968
7.96815
7.50356
6.92651
6.24801
5.55465
1
1
1
1
1
1
1
1
1
1
1
1
1
1
1
1
1
1
1
1
1
1
1
1
1
1
1
0.999944
3.55335
8.85446
9.51992
9.55302
9.57192
9.54794
9.49937
9.43232
9.34624
9.23701
9.09743
8.92571
8.71719
8.46876
8.1746
7.81204
7.37623
6.84639
6.2478
5.65305
1
1
1
1
1
1
1
1
1
1
1
1
1
1
1
1
1
1
1
1
1
1
1
1
1
1
1
0.999986
1.68
7.97485
9.65905
9.52852
9.4707
9.43381
9.37826
9.30517
9.21282
9.0981
8.95445
8.78066
8.56969
8.32116
8.02997
7.6737
7.27017
6.78816
6.25608
5.73295
1
1
1
1
1
1
1
1
1
1
1
1
1
1
1
1
1
1
1
1
1
1
1
1
1
1
1
0.999998
1.04369
6.2142
9.25094
9.3317
9.34587
9.31634
9.25771
9.18151
9.08573
8.96732
8.82191
8.64651
8.43779
8.19375
7.9062
7.55799
7.18138
6.73981
6.27291
5.79785
1
1
1
1
1
1
1
1
1
1
1
1
1
1
1
1
1
1
1
1
1
1
1
1
1
1
1
1
1.00003
3.69494
8.71191
9.27839
9.25639
9.22388
9.16403
9.08011
8.97478
8.84706
8.69636
8.52018
8.31051
8.07617
7.79068
7.46113
7.10499
6.69851
6.28483
5.84135
1
1
1
1
1
1
1
1
1
1
1
1
1
1
1
1
1
1
1
1
1
1
1
1
1
1
1
1
0.999995
1.59815
7.80956
9.40511
9.20724
9.11426
9.04763
8.96334
8.86022
8.73411
8.58435
8.40908
8.20389
7.97051
7.69352
7.38714
7.04967
6.67456
6.29505
5.88538
1
1
1
1
1
1
1
1
1
1
1
1
1
1
1
1
1
1
1
1
1
1
1
1
1
1
1
1
0.999998
1.03163
5.8831
8.93866
8.97631
8.98231
8.93167
8.85232
8.75356
8.63117
8.48365
8.30841
8.1047
7.87432
7.60995
7.3229
7.00283
6.65724
6.30093
5.92318
1
1
1
1
1
1
1
1
1
1
1
1
1
1
1
1
1
1
1
1
1
1
1
1
1
1
1
1
1
0.99997
3.13909
8.27127
8.91104
8.91838
8.86438
8.77967
8.67719
8.55198
8.40266
8.2263
8.02332
7.79547
7.54289
7.27019
6.96722
6.64671
6.31052
5.96283
1
1
1
1
1
1
1
1
1
1
1
1
1
1
1
1
1
1
1
1
1
1
1
1
1
1
1
1
1
0.999987
1.31434
6.90769
8.96922
8.85303
8.7803
8.6889
8.58494
8.4618
8.31661
8.14438
7.94638
7.72442
7.48208
7.22009
6.93406
6.63255
6.31604
5.99399
1
1
1
1
1
1
1
1
1
1
1
1
1
1
1
1
1
1
1
1
1
1
1
1
1
1
1
1
1
0.999998
1.0082
4.386
8.44023
8.68177
8.65863
8.60214
8.50667
8.38365
8.24115
8.07444
7.88116
7.66543
7.43057
7.17686
6.90537
6.61852
6.32223
6.0214
1
1
1
1
1
1
1
1
1
1
1
1
1
1
1
1
1
1
1
1
1
1
1
1
1
1
1
1
1
1
0.999975
1.70042
7.51048
8.82786
8.66483
8.55916
8.44338
8.31249
8.16886
8.00559
7.81713
7.60869
7.38264
7.13874
6.87856
6.60394
6.32402
6.04043
1
1
1
1
1
1
1
1
1
1
1
1
1
1
1
1
1
1
1
1
1
1
1
1
1
1
1
1
1
1
0.999994
1.04018
5.35655
8.44647
8.50879
8.46149
8.35773
8.23382
8.09372
7.93515
7.75378
7.55374
7.33701
7.10248
6.85225
6.59048
6.32431
6.05753
1
1
1
1
1
1
1
1
1
1
1
1
1
1
1
1
1
1
1
1
1
1
1
1
1
1
1
1
1
1
0.999999
1.00004
2.33286
7.72791
8.55208
8.42479
8.29855
8.17156
8.03152
7.87411
7.69716
7.50354
7.29403
7.06787
6.82965
6.58234
6.32819
6.07454
1
1
1
1
1
1
1
1
1
1
1
1
1
1
1
1
1
1
1
1
1
1
1
1
1
1
1
1
1
1
1
1
1.1267
5.85252
8.41
8.32377
8.21396
8.0931
7.95719
7.80455
7.63503
7.44987
7.24898
7.03332
6.80743
6.57291
6.33021
6.08602
1
1
1
1
1
1
1
1
1
1
1
1
1
1
1
1
1
1
1
1
1
1
1
1
1
1
1
1
1
1
1
1
1.00114
2.75162
7.69445
8.29003
8.17424
8.05168
7.91001
7.75469
7.58704
7.4062
7.21299
7.00769
6.79216
6.56874
6.33841
6.10371
1
1
1
1
1
1
1
1
1
1
1
1
1
1
1
1
1
1
1
1
1
1
1
1
1
1
1
1
1
1
1
1
1
1.20522
5.92306
8.24077
8.12779
8.0083
7.86474
7.70972
7.54366
7.36699
7.17982
6.98252
6.77633
6.56315
6.34407
6.12037
1
1
1
1
1
1
1
1
1
1
1
1
1
1
1
1
1
1
1
1
1
1
1
1
1
1
1
1
1
1
1
1
1
1.00324
2.79712
7.48763
8.06831
7.95335
7.82269
7.67449
7.50993
7.33463
7.15179
6.96188
6.7647
6.56097
6.35141
6.13793
1
1
1
1
1
1
1
1
1
1
1
1
1
1
1
1
1
1
1
1
1
1
1
1
1
1
1
1
1
1
1
1
1
1
1.21615
5.70419
8.0528
7.93213
7.79832
7.64092
7.47507
7.30313
7.12725
6.94575
6.75676
6.56141
6.36052
6.15412
1
1
1
1
1
1
1
1
1
1
1
1
1
1
1
1
1
1
1
1
1
1
1
1
1
1
1
1
1
1
1
1
1
1
1.00371
2.53548
7.21512
7.88128
7.73537
7.59487
7.44298
7.2836
7.1154
6.93861
6.75367
6.56325
6.36918
6.16973
1
1
1
1
1
1
1
1
1
1
1
1
1
1
1
1
1
1
1
1
1
1
1
1
1
1
1
1
1
1
1
1
1
1
1.00001
1.16178
5.24745
7.81143
7.71437
7.57572
7.42338
7.26688
7.09976
6.92525
6.74531
6.56066
6.37321
6.18349
1
1
1
1
1
1
1
1
1
1
1
1
1
1
1
1
1
1
1
1
1
1
1
1
1
1
1
1
1
1
1
1
1
1
1
1.00226
2.21164
6.7931
7.68248
7.52172
7.39563
7.24751
7.08626
6.91729
6.74368
6.56512
6.38274
6.19984
1
1
1
1
1
1
1
1
1
1
1
1
1
1
1
1
1
1
1
1
1
1
1
1
1
1
1
1
1
1
1
1
1
1
1
1.00001
1.10182
4.42886
7.46133
7.50337
7.3791
7.23103
7.07396
6.91014
6.742
6.57061
6.39466
6.21523
1
1
1
1
1
1
1
1
1
1
1
1
1
1
1
1
1
1
1
1
1
1
1
1
1
1
1
1
1
1
1
1
1
1
1
1
1.00117
1.77219
6.14142
7.5388
7.36583
7.21716
7.06618
6.91139
6.75008
6.58429
6.41355
6.2364
1
1
1
1
1
1
1
1
1
1
1
1
1
1
1
1
1
1
1
1
1
1
1
1
1
1
1
1
1
1
1
1
1
1
1
1
1
1.04381
3.31323
6.99386
7.33423
7.19532
7.0566
6.90835
6.75146
6.58779
6.42112
6.25045
1
1
1
1
1
1
1
1
1
1
1
1
1
1
1
1
1
1
1
1
1
1
1
1
1
1
1
1
1
1
1
1
1
1
1
1
1
1.00041
1.36023
5.23169
7.36332
7.21431
7.07185
6.91669
6.75952
6.59745
6.43368
6.26936
1
1
1
1
1
1
1
1
1
1
1
1
1
1
1
1
1
1
1
1
1
1
1
1
1
1
1
1
1
1
1
1
1
1
1
1
1
1
1.01091
2.3397
6.39736
7.18816
7.03368
6.89233
6.74285
6.5902
6.43466
6.27737
1
1
1
1
1
1
1
1
1
1
1
1
1
1
1
1
1
1
1
1
1
1
1
1
1
1
1
1
1
1
1
1
1
1
1
1
1
1
1.00007
1.12465
3.933
6.88725
7.05203
6.9167
6.76802
6.6178
6.4644
6.30828
1
1
1
1
1
1
1
1
1
1
1
1
1
1
1
1
1
1
1
1
1
1
1
1
1
1
1
1
1
1
1
1
1
1
1
1
1
1
1
1.00201
1.58387
5.35398
7.05675
6.93566
6.78629
6.63829
6.4845
6.32774
1
1
1
1
1
1
1
1
1
1
1
1
1
1
1
1
1
1
1
1
1
1
1
1
1
1
1
1
1
1
1
1
1
1
1
1
1
1
1
1.00001
1.02675
2.53518
6.24975
6.91686
6.78657
6.63711
6.48888
6.33618
1
1
1
1
1
1
1
1
1
1
1
1
1
1
1
1
1
1
1
1
1
1
1
1
1
1
1
1
1
1
1
1
1
1
1
1
1
1
1
1
1.00025
1.16329
3.88499
6.60453
6.80957
6.67016
6.51802
6.36814
1
1
1
1
1
1
1
1
1
1
1
1
1
1
1
1
1
1
1
1
1
1
1
1
1
1
1
1
1
1
1
1
1
1
1
1
1
1
1
1
1
1.00327
1.5756
5.04791
6.75266
6.70168
6.54901
6.39564
1
1
1
1
1
1
1
1
1
1
1
1
1
1
1
1
1
1
1
1
1
1
1
1
1
1
1
1
1
1
1
1
1
1
1
1
1
1
1
1
1
1.00002
1.02668
2.33018
5.83348
6.672
6.56668
6.41387
1
1
1
1
1
1
1
1
1
1
1
1
1
1
1
1
1
1
1
1
1
1
1
1
1
1
1
1
1
1
1
1
1
1
1
1
1
1
1
1
1
1
1.00027
1.12574
3.33976
6.25888
6.58706
6.45044
1
1
1
1
1
1
1
1
1
1
1
1
1
1
1
1
1
1
1
1
1
1
1
1
1
1
1
1
1
1
1
1
1
1
1
1
1
1
1
1
1
1
1
1.00231
1.38363
4.38911
6.37647
6.48089
1
1
1
1
1
1
1
1
1
1
1
1
1
1
1
1
1
1
1
1
1
1
1
1
1
1
1
1
1
1
1
1
1
1
1
1
1
1
1
1
1
1
1
1.00001
1.01381
1.87221
5.12588
6.41561
1
1
1
1
1
1
1
1
1
1
1
1
1
1
1
1
1
1
1
1
1
1
1
1
1
1
1
1
1
1
1
1
1
1
1
1
1
1
1
1
1
1
1
1
1.00011
1.05811
2.53706
5.64441
1
1
1
1
1
1
1
1
1
1
1
1
1
1
1
1
1
1
1
1
1
1
1
1
1
1
1
1
1
1
1
1
1
1
1
1
1
1
1
1
1
1
1
1
1
1.00082
1.17121
3.30724
1
1
1
1
1
1
1
1
1
1
1
1
1
1
1
1
1
1
1
1
1
1
1
1
1
1
1
1
1
1
1
1
1
1
1
1
1
1
1
1
1
1
1
1
1
1
1.00392
1.39007
1
1
1
1
1
1
1
1
1
1
1
1
1
1
1
1
1
1
1
1
1
1
1
1
1
1
1
1
1
1
1
1
1
1
1
1
1
1
1
1
1
1
1
1
1
1
1.00002
1.0147
1
1
1
1
1
1
1
1
1
1
1
1
1
1
1
1
1
1
1
1
1
1
1
1
1
1
1
1
1
1
1
1
1
1
1
1
1
1
1
1
1
1
1
1
1
1
1
1.00013
1
1
1
1
1
1
1
1
1
1
1
1
1
1
1
1
1
1
1
1
1
1
1
1
1
1
1
1
1
1
1
1
1
1
1
1
1
1
1
1
1
1
1
1
1
1
1
1
1
1
1
1
1
1
1
1
1
1
1
1
1
1
1
1
1
1
1
1
1
1
1
1
1
1
1
1
1
1
1
1
1
1
1
1
1
1
1
1
1
1
1
1
1
1
1
1
1
1
1
1
1
1
1
1
1
1
1
1
1
1
1
1
1
1
1
1
1
1
1
1
1
1
1
1
1
1
1
1
1
1
1
1
1
1
1
1
1
1
1
1
1
1
1
1
1
1
1
1
1
1
1
1
1
1
1
1
1
1
1
1
1
1
1
1
1
1
1
1
1
1
1
1
1
1
1
1
1
1
1
1
1
1
1
1
1
1
1
1
1
1
1
1
1
1
1
1
1
1
1
1
1
1
1
1
1
1
1
1
1
1
1
1
1
1
1
1
1
1
1
1
1
1
1
1
1
1
1
1
1
1
1
1
1
1
1
1
1
1
1
1
1
1
1
1
1
1
1
1
1
1
1
1
1
1
1
1
1
1
1
1
1
1
1
1
1
1
1
1
1
1
1
1
1
1
1
1
1
1
1
1
1
1
1
1
1
1
1
1
1
1
1
1
1
1
1
1
1
1
1
1
1
1
1
1
1
1
1
1
1
1
1
1
1
1
1
1
1
1
1
1
1
1
1
1
1
1
1
1
1
1
1
1
1
1
1
1
1
1
1
1
1
1
1
1
1
1
1
1
1
1
1
1
1
1
1
1
1
1
1
1
1
1
1
1
1
1
1
1
1
1
1
1
1
1
1
1
1
1
1
1
1
1
1
1
1
1
1
1
1
1
1
1
1
1
1
1
1
1
1
1
1
1
1
1
1
1
1
1
1
1
1
1
1
1
1
1
1
1
1
1
1
1
1
1
1
1
1
1
1
1
1
1
1
1
1
1
1
1
1
1
1
1
1
1
1
1
1
1
1
1
1
1
1
1
1
1
1
1
1
1
1
1
1
1
1
1
1
1
1
1
1
1
1
1
1
1
1
1
1
1
1
1
1
1
1
1
1
1
1
1
1
1
1
1
1
1
1
1
1
1
1
1
1
1
1
1
1
1
1
1
1
1
1
1
1
1
1
1
1
1
1
1
1
1
1
1
1
1
1
1
1
1
1
1
1
1
1
1
1
1
1
1
1
1
1
1
1
1
1
1
1
1
1
1
1
1
1
1
1
1
1
1
1
1
1
1
1
1
1
1
1
1
1
1
1
1
1
1
1
1
1
1
1
1
1
1
1
1
1
1
1
1
1
1
1
1
1
1
1
1
1
1
1
1
1
1
1
1
1
1
1
1
1
1
1
1
1
1
1
1
1
1
1
1
1
1
1
1
1
1
1
1
1
1
1
1
1
1
1
1
1
1
1
1
1
1
1
1
1
1
1
1
1
1
1
1
1
1
1
1
1
1
1
1
1
1
1
1
1
1
1
1
1
1
1
1
1
1
1
1
1
1
1
1
1
1
1
1
1
1
1
1
1
1
1
1
1
1
1
1
1
1
1
1
1
1
1
1
1
1
1
1
1
1
1
1
1
1
1
1
1
1
1
1
1
1
1
1
1
1
1
1
1
1
1
1
1
1
1
1
1
1
1
1
1
1
1
1
1
1
1
1
1
1
1
1
1
1
1
1
1
1
1
1
1
1
1
1
1
1
1
1
1
1
1
1
1
1
1
1
1
1
1
1
1
1
1
1
1
1
1
1
1
1
1
1
1
1
1
1
1
1
1
1
1
1
1
1
1
1
1
1
1
1
1
1
1.16876
0.148621
0.0589303
0.0519073
0.0473468
0.0598314
0.0898132
0.138039
0.213189
0.282768
0.342888
0.408191
0.484978
0.55469
0.589165
0.640502
0.741956
0.878371
0.978521
0.984715
0.945119
0.936882
0.950905
0.980412
1.03078
1.06654
1.07984
1.09474
1.08784
1.0773
1.09116
1.12876
1.1727
1.18422
1.19094
1.18322
1.1818
1.19938
1.21957
1.23754
1.24754
1.24835
1.23799
1.23495
1.24454
1.26484
1.28094
1.28905
1.29345
1.29576
1.29747
1.29718
1.29344
1.28911
1.28444
1.2808
1.27999
1.28179
1.2886
1.29596
1.29505
1.29258
1.29041
1.2912
1.29396
1.29449
1.29283
1.29096
1.28775
1.28385
1.28298
1.28581
1.28836
1.28933
1.28577
1.27954
1.27519
1.27273
1.27231
1.2713
1.27027
1.2765
1.32596
1.54938
2.14449
3.61542
5.67642
6.49229
6.40266
6.38041
6.19296
6.09842
6.00377
5.92568
5.84324
5.74728
5.67019
5.60045
5.52629
5.46714
5.40899
5.34704
5.29097
5.23948
5.18185
5.12487
5.05593
4.98153
4.92151
4.8649
4.81689
4.78543
4.75787
4.70876
4.6492
4.58029
4.51203
4.4574
4.41207
4.38429
4.36077
4.32274
4.27963
4.22942
4.1618
4.08971
4.03458
3.99046
3.95501
3.93327
3.91755
3.89763
3.87359
3.84666
3.81655
3.77277
3.71442
3.65314
3.59769
3.55256
3.5173
3.48723
3.46356
3.44504
3.42337
3.39923
3.37273
3.32891
3.26892
3.22893
3.20332
3.18092
3.16565
3.15554
3.14206
3.12633
3.10992
3.06989
2.99512
2.92684
2.88304
2.85406
2.83164
2.81296
2.80383
2.80294
2.79592
2.78452
2.7728
2.76321
2.75185
2.72295
2.66694
2.60275
2.55316
2.52562
2.51009
2.50108
2.49424
2.48153
2.46255
2.43008
2.40132
2.38337
2.36835
2.35181
2.33603
2.32405
2.31385
2.29578
2.25704
2.20596
2.04132
0.850304
0.505829
0.348634
0.207745
0.145104
0.149461
0.163511
0.178683
0.192197
0.216004
0.263784
0.327455
0.401232
0.459912
0.502707
0.538772
0.599432
0.686829
0.783114
0.845986
0.891925
0.927512
0.952095
0.971312
0.984337
1.00168
1.03613
1.085
1.10406
1.13158
1.15821
1.16122
1.15532
1.15576
1.17209
1.20257
1.2194
1.22125
1.21524
1.21421
1.22472
1.24176
1.2623
1.27763
1.28577
1.28902
1.2917
1.29209
1.28594
1.27717
1.27263
1.2749
1.28567
1.28934
1.2902
1.2918
1.29232
1.29176
1.29236
1.29522
1.30006
1.30153
1.30043
1.29708
1.28673
1.27468
1.26862
1.26759
1.27107
1.27997
1.28812
1.29037
1.2876
1.28067
1.27785
1.27846
1.28031
1.28062
1.27442
1.26577
1.28729
1.39944
1.8364
2.44781
3.03759
3.98999
5.20475
5.91742
6.2932
6.22454
6.12451
5.99245
5.91094
5.84266
5.76288
5.68969
5.61385
5.54436
5.48803
5.421
5.34746
5.28942
5.23174
5.17608
5.1217
5.06486
4.99621
4.91758
4.86468
4.82268
4.7896
4.7518
4.70397
4.65327
4.59429
4.52069
4.45268
4.41247
4.38067
4.34925
4.31144
4.26964
4.22201
4.16958
4.11272
4.05169
4.00468
3.97423
3.9471
3.9154
3.8823
3.84871
3.81519
3.78036
3.74137
3.69591
3.64814
3.60879
3.57425
3.5352
3.49295
3.46019
3.43622
3.41137
3.3815
3.34654
3.31272
3.28319
3.24603
3.20237
3.17714
3.16361
3.15197
3.13348
3.10265
3.05057
3.00167
2.9721
2.9523
2.92106
2.87942
2.84933
2.82944
2.81223
2.7966
2.78334
2.77339
2.76364
2.74462
2.70686
2.65675
2.62282
2.60512
2.5916
2.56605
2.52575
2.4936
2.47359
2.45441
2.43334
2.41391
2.39382
2.36774
2.34931
2.33723
2.32703
2.31633
2.29989
2.27093
2.2397
2.20605
2.93689
1.77571
1.12508
0.816744
0.595463
0.403573
0.355898
0.317001
0.283684
0.287534
0.314525
0.332426
0.341113
0.344299
0.356399
0.360263
0.367891
0.395655
0.461469
0.580627
0.715832
0.787935
0.841775
0.868747
0.895306
0.93552
0.975813
1.03091
1.10996
1.15176
1.16656
1.16775
1.16174
1.16207
1.16731
1.187
1.2027
1.20411
1.20379
1.21021
1.23435
1.26752
1.28908
1.29374
1.28783
1.27402
1.26225
1.25716
1.25711
1.26355
1.2708
1.27867
1.29108
1.3052
1.31582
1.3191
1.31819
1.31267
1.30235
1.29978
1.30142
1.30125
1.29483
1.28041
1.26917
1.26668
1.26906
1.28028
1.29612
1.30473
1.30563
1.30127
1.29204
1.28563
1.28512
1.28668
1.28612
1.27894
1.26498
1.26574
1.29874
1.50644
1.98843
2.6455
2.93781
2.96009
3.14645
3.77071
4.76367
5.66276
6.00008
6.13225
6.09279
5.99149
5.88137
5.79935
5.71909
5.63307
5.55555
5.48531
5.40928
5.34014
5.28088
5.22769
5.17359
5.11806
5.06041
4.99617
4.92658
4.87145
4.83021
4.78832
4.7432
4.69385
4.63909
4.58039
4.52272
4.47232
4.42241
4.37863
4.34024
4.30078
4.25924
4.21701
4.17469
4.13084
4.08613
4.04105
3.99797
3.95798
3.92027
3.8849
3.85073
3.81418
3.7713
3.72766
3.68744
3.65156
3.6205
3.58825
3.55442
3.52292
3.49313
3.46143
3.42442
3.38396
3.34831
3.31938
3.28793
3.25653
3.23436
3.21383
3.18722
3.15447
3.11687
3.07831
3.04491
3.01925
2.99628
2.96615
2.9297
2.89999
2.87839
2.86054
2.84461
2.82948
2.81192
2.7884
2.75641
2.71978
2.68677
2.66164
2.64294
2.62472
2.60045
2.57524
2.55281
2.5311
2.50313
2.47169
2.44774
2.42907
2.41161
2.39511
2.38032
2.36522
2.3479
2.32687
2.30402
2.282
2.26196
2.23428
3.51114
2.51964
1.83149
1.34798
1.00352
0.796278
0.700147
0.613634
0.487332
0.434845
0.440025
0.443167
0.43447
0.429167
0.423872
0.408405
0.396031
0.402046
0.407891
0.433126
0.506757
0.586909
0.654749
0.713254
0.763591
0.833367
0.897
0.965016
1.04985
1.09508
1.1147
1.11749
1.11687
1.12924
1.1507
1.17685
1.19786
1.20413
1.2102
1.22625
1.25207
1.26646
1.27137
1.27174
1.26233
1.24652
1.24091
1.24495
1.25731
1.27416
1.28577
1.29256
1.29715
1.30056
1.30498
1.30819
1.30646
1.30078
1.29115
1.28496
1.28328
1.28078
1.27665
1.27263
1.26964
1.27388
1.28582
1.29925
1.30253
1.29977
1.29567
1.28794
1.28212
1.28162
1.28215
1.28069
1.27519
1.26527
1.26505
1.30388
1.61168
2.22639
2.7294
3.02562
3.09209
3.04836
3.00087
3.03525
3.36633
4.2515
5.2324
5.79964
5.95468
5.91032
5.86576
5.8147
5.72701
5.63688
5.55197
5.46641
5.39389
5.32319
5.26555
5.2176
5.16656
5.11331
5.05835
5.0004
4.93589
4.87016
4.81938
4.77338
4.72628
4.67655
4.62748
4.58165
4.53689
4.4859
4.42569
4.36868
4.32449
4.28425
4.24542
4.20921
4.17422
4.13949
4.10212
4.05812
4.00972
3.96432
3.92253
3.88045
3.83478
3.78625
3.73934
3.69624
3.66488
3.64345
3.62154
3.5983
3.57412
3.54446
3.50181
3.44595
3.39717
3.36128
3.33087
3.30503
3.28616
3.27099
3.25101
3.21907
3.16923
3.11863
3.08314
3.05544
3.034
3.01305
2.9879
2.96137
2.94151
2.9236
2.90283
2.8798
2.85559
2.82797
2.79489
2.75864
2.71928
2.68565
2.66328
2.64759
2.633
2.61847
2.6061
2.59346
2.57651
2.54592
2.4974
2.45404
2.42977
2.41434
2.40073
2.38719
2.37226
2.35546
2.33614
2.31527
2.29613
2.27976
2.26427
2.24021
3.98326
3.03471
2.39689
1.94251
1.51082
1.1363
1.01589
0.929292
0.825745
0.730048
0.625668
0.572531
0.55616
0.552299
0.543151
0.517994
0.486465
0.472313
0.470829
0.478408
0.483315
0.488749
0.498286
0.514294
0.537865
0.592061
0.680187
0.773083
0.886994
0.968483
1.02338
1.05527
1.06885
1.08828
1.11992
1.15708
1.19506
1.20625
1.20706
1.21351
1.22923
1.24075
1.24327
1.24086
1.23793
1.23985
1.24745
1.26826
1.28955
1.29714
1.29791
1.29011
1.28321
1.28361
1.28584
1.28808
1.28673
1.28418
1.2819
1.27814
1.2758
1.27598
1.27881
1.28682
1.29407
1.29774
1.29787
1.2946
1.28932
1.28271
1.27616
1.27524
1.27735
1.28113
1.28121
1.27759
1.27274
1.28057
1.35253
1.67738
2.47155
2.86062
3.05296
3.1014
3.0794
3.04801
3.00806
3.00427
3.00703
3.16283
3.75579
4.69134
5.39072
5.73673
5.78908
5.79534
5.75088
5.68227
5.58974
5.48199
5.3943
5.31325
5.25123
5.20879
5.16512
5.11993
5.07023
5.01577
4.95339
4.87804
4.80827
4.75484
4.70929
4.66862
4.6316
4.59457
4.55304
4.50192
4.43365
4.36426
4.31962
4.28458
4.25142
4.22085
4.18903
4.15523
4.11729
4.06924
4.01379
3.96276
3.91644
3.86882
3.817
3.76357
3.71698
3.68627
3.66584
3.64846
3.63059
3.61241
3.59138
3.56285
3.51334
3.44013
3.37529
3.33983
3.32066
3.30637
3.298
3.28398
3.2608
3.22405
3.16239
3.09762
3.05757
3.03692
3.02127
3.00758
2.99333
2.98151
2.96983
2.95258
2.92869
2.89656
2.85933
2.82218
2.78419
2.7406
2.69699
2.66555
2.64708
2.6337
2.62672
2.62401
2.61744
2.60666
2.59073
2.55976
2.50259
2.4479
2.42053
2.40655
2.39513
2.38269
2.36779
2.34961
2.32855
2.30747
2.29108
2.2763
2.26553
2.24765
4.34788
3.50749
2.83883
2.37202
1.96809
1.62963
1.40038
1.18752
1.06519
0.997453
0.920978
0.821857
0.700173
0.664898
0.661005
0.640449
0.606751
0.575049
0.564012
0.562068
0.552739
0.535699
0.521944
0.524777
0.537814
0.536756
0.544599
0.569225
0.624259
0.707263
0.782604
0.867604
0.939238
0.989848
1.04849
1.1105
1.16903
1.1976
1.20566
1.20596
1.20336
1.20337
1.20809
1.21519
1.22689
1.24326
1.2644
1.28218
1.28877
1.29091
1.29047
1.28139
1.2667
1.26072
1.26269
1.27029
1.27917
1.28285
1.28362
1.28123
1.27946
1.28089
1.28548
1.29146
1.29323
1.29222
1.2901
1.284
1.27263
1.26763
1.2681
1.27209
1.28125
1.28569
1.28562
1.28202
1.29167
1.40893
1.80176
2.51115
3.05807
3.08751
3.10597
3.06998
3.06047
3.04346
3.03325
3.02576
3.01653
2.98263
3.02172
3.29685
4.03967
4.93866
5.50631
5.64018
5.67731
5.66373
5.59289
5.49873
5.40014
5.30889
5.23305
5.18629
5.14553
5.10937
5.06658
5.01494
4.95474
4.88419
4.80894
4.74153
4.69273
4.65469
4.62046
4.58812
4.54965
4.50657
4.44488
4.36916
4.31691
4.28127
4.24804
4.21855
4.18675
4.15179
4.11336
4.06197
4.00136
3.94888
3.90463
3.86078
3.81403
3.7681
3.72889
3.69295
3.65943
3.63435
3.61848
3.61127
3.59539
3.56599
3.51528
3.44009
3.37248
3.33841
3.32001
3.30446
3.29161
3.27572
3.25404
3.22166
3.16413
3.09358
3.05135
3.02886
3.01101
2.99725
2.99341
2.98945
2.97511
2.95618
2.93195
2.89754
2.85766
2.81822
2.77563
2.72739
2.68446
2.65925
2.64229
2.62774
2.61787
2.61834
2.61734
2.60832
2.59392
2.56706
2.51789
2.46003
2.42312
2.40519
2.39276
2.38037
2.36569
2.34549
2.31955
2.2994
2.28734
2.27667
2.27005
2.25203
4.63114
3.87817
3.26417
2.78675
2.34982
2.02126
1.78936
1.55987
1.33276
1.19645
1.1447
1.06239
0.930652
0.815067
0.782923
0.779593
0.76183
0.724863
0.682773
0.649096
0.640169
0.627926
0.597985
0.579782
0.580312
0.576202
0.567216
0.573082
0.573644
0.57933
0.590962
0.620001
0.681315
0.761046
0.863132
0.961058
1.0464
1.13354
1.17932
1.19689
1.19614
1.17783
1.17767
1.19263
1.22398
1.24947
1.26348
1.27087
1.27483
1.2768
1.27379
1.26578
1.26508
1.26396
1.26629
1.27542
1.28285
1.28493
1.28421
1.28115
1.27888
1.27834
1.27985
1.2834
1.28332
1.28179
1.2786
1.27247
1.26904
1.27002
1.27466
1.28596
1.2927
1.2916
1.28969
1.30088
1.44316
1.9988
2.61026
3.08677
3.11757
3.10205
3.10469
3.08188
3.07091
3.06788
3.05231
3.03478
3.00661
2.96295
2.92985
2.92394
3.04058
3.50852
4.38346
5.10343
5.56358
5.59358
5.56695
5.49203
5.42018
5.34182
5.25271
5.1888
5.13776
5.0914
5.04306
4.99197
4.93952
4.88429
4.82088
4.75323
4.69771
4.65651
4.62153
4.58691
4.54928
4.50616
4.45077
4.38602
4.32883
4.28595
4.25067
4.21761
4.18643
4.15234
4.10704
4.04773
3.98535
3.93434
3.89295
3.85499
3.81956
3.7872
3.7537
3.71582
3.67535
3.63808
3.60986
3.58655
3.55954
3.52677
3.48566
3.43789
3.39519
3.3592
3.32996
3.31031
3.29441
3.27652
3.24862
3.20806
3.15789
3.10936
3.06983
3.03919
3.01852
3.00745
3.00946
3.00203
2.98156
2.95759
2.92467
2.88657
2.85009
2.81242
2.76772
2.71806
2.68229
2.6617
2.64511
2.63123
2.62045
2.60713
2.59146
2.57767
2.56533
2.5484
2.52039
2.48518
2.448
2.41898
2.39892
2.38196
2.36355
2.33894
2.31102
2.29448
2.28326
2.27358
2.27208
2.25597
4.84767
4.17223
3.62304
3.15519
2.71671
2.3795
2.12016
1.89148
1.64232
1.4445
1.3401
1.25856
1.15994
1.02034
0.921097
0.907913
0.903197
0.878595
0.840084
0.777805
0.724563
0.708056
0.687611
0.659966
0.653037
0.647469
0.629128
0.617143
0.611432
0.602244
0.595061
0.591573
0.595381
0.609699
0.648695
0.721851
0.803949
0.896951
0.979149
1.04407
1.09769
1.11884
1.14125
1.18558
1.24036
1.25703
1.25772
1.24982
1.23522
1.22802
1.22991
1.23901
1.25322
1.26906
1.28259
1.28718
1.28684
1.28481
1.28281
1.28032
1.2782
1.27517
1.27226
1.27163
1.27138
1.27029
1.26846
1.26852
1.27017
1.27454
1.28189
1.28911
1.29106
1.2927
1.30772
1.45388
2.0856
2.80896
3.05817
3.14266
3.15755
3.14297
3.12856
3.10051
3.07067
3.05126
3.02676
3.0012
2.97468
2.94229
2.91673
2.90989
2.89452
2.92722
3.16089
3.76326
4.65186
5.18022
5.45973
5.46195
5.44442
5.37955
5.29422
5.21772
5.14164
5.06934
5.00795
4.95974
4.91662
4.87406
4.82788
4.77614
4.72124
4.66723
4.62013
4.57777
4.5329
4.48588
4.43961
4.39468
4.34831
4.29874
4.25196
4.21319
4.17478
4.13058
4.08197
4.02827
3.97402
3.92393
3.88069
3.84881
3.8227
3.79699
3.76978
3.73905
3.70135
3.65494
3.60391
3.5559
3.51635
3.48089
3.44976
3.42911
3.40992
3.3863
3.35461
3.3161
3.27964
3.24782
3.214
3.17574
3.14547
3.12508
3.10401
3.07769
3.045
3.01484
2.99318
2.9753
2.95545
2.93106
2.90198
2.87257
2.84296
2.80549
2.75751
2.71383
2.68888
2.67101
2.65427
2.6379
2.62058
2.60113
2.57989
2.55721
2.53814
2.52704
2.51873
2.5007
2.47228
2.44258
2.41629
2.39149
2.36476
2.33312
2.30558
2.29152
2.28046
2.26932
2.26545
2.24976
5.02827
4.42809
3.92351
3.46304
3.05126
2.71599
2.40744
2.15486
1.95091
1.75273
1.54249
1.41795
1.34918
1.26437
1.15215
1.04603
1.01258
0.999805
0.972798
0.923119
0.847391
0.805979
0.78969
0.767709
0.752142
0.742696
0.726762
0.693869
0.671109
0.651093
0.623114
0.615234
0.61658
0.619319
0.624886
0.635025
0.648512
0.671116
0.709255
0.761018
0.843108
0.939485
1.02801
1.12823
1.21026
1.244
1.25539
1.2536
1.22112
1.19813
1.19965
1.21195
1.24162
1.27759
1.29004
1.29044
1.28705
1.27959
1.2735
1.2717
1.27013
1.27077
1.27586
1.27704
1.27517
1.26828
1.26246
1.26215
1.26518
1.27049
1.27688
1.28242
1.28806
1.32108
1.52551
2.10728
2.9239
3.12144
3.17053
3.16614
3.16143
3.14917
3.13051
3.09644
3.04366
3.01783
3.00484
2.9876
2.95889
2.93577
2.92214
2.90976
2.88306
2.85756
2.8411
2.91215
3.26809
3.98739
4.78783
5.13046
5.29164
5.3399
5.30515
5.23443
5.13593
5.04537
4.98116
4.93292
4.89605
4.86021
4.82465
4.78742
4.74101
4.68101
4.61381
4.55456
4.50838
4.47023
4.43559
4.40154
4.36526
4.32068
4.2628
4.20087
4.14771
4.10288
4.06009
4.0176
3.97578
3.93037
3.88771
3.85569
3.8287
3.80343
3.77845
3.75107
3.71522
3.66383
3.59857
3.53309
3.48363
3.45361
3.43488
3.42732
3.41834
3.39844
3.37225
3.32803
3.26661
3.21615
3.18343
3.1609
3.14704
3.14056
3.12914
3.1079
3.07789
3.03099
2.9755
2.93764
2.91838
2.9023
2.88607
2.86693
2.84154
2.80417
2.75541
2.71731
2.69585
2.67849
2.66122
2.64236
2.62078
2.5975
2.57351
2.54974
2.5288
2.51078
2.49473
2.48144
2.46822
2.453
2.43468
2.40961
2.37499
2.33471
2.3045
2.28917
2.27794
2.27067
2.26855
2.24904
5.16185
4.63658
4.17233
3.71376
3.32938
3.01216
2.70393
2.3962
2.18112
2.01391
1.82708
1.61938
1.48829
1.44122
1.36549
1.2649
1.17509
1.11044
1.07298
1.03528
0.97635
0.904608
0.874089
0.860494
0.844794
0.833322
0.82087
0.795696
0.753962
0.718931
0.691881
0.677528
0.671924
0.663657
0.655979
0.653809
0.65042
0.641808
0.64082
0.645042
0.665631
0.717301
0.801422
0.915538
1.02476
1.1005
1.16926
1.20184
1.21387
1.20876
1.19269
1.20365
1.23616
1.26816
1.27825
1.27734
1.27258
1.26016
1.24752
1.24543
1.24681
1.25947
1.27792
1.28374
1.28383
1.27728
1.26318
1.25779
1.25788
1.2601
1.26488
1.27376
1.31987
1.63728
2.28385
2.95216
3.22009
3.18677
3.16838
3.14913
3.14956
3.12129
3.0897
3.05923
3.02118
3.00214
2.99243
2.98412
2.96403
2.94123
2.91685
2.88998
2.86245
2.83178
2.80827
2.78776
2.79685
2.94164
3.42306
4.19623
4.81435
5.2072
5.22542
5.212
5.13064
5.0575
4.98962
4.92029
4.8757
4.83623
4.80722
4.77686
4.7368
4.67911
4.60237
4.53267
4.48947
4.45601
4.42928
4.40576
4.37377
4.3357
4.27744
4.1976
4.12918
4.08191
4.04564
4.01525
3.98527
3.95161
3.91204
3.86872
3.83288
3.80646
3.7815
3.75156
3.7145
3.66477
3.59937
3.52808
3.47758
3.45194
3.43328
3.41932
3.4159
3.40192
3.37502
3.32931
3.2576
3.19776
3.17102
3.1552
3.14826
3.15147
3.14018
3.1187
3.09192
3.04295
2.97233
2.91895
2.88909
2.87215
2.85784
2.84193
2.82494
2.80209
2.76788
2.73045
2.70032
2.67779
2.65808
2.63844
2.61728
2.59625
2.5772
2.55726
2.5299
2.49863
2.47994
2.47188
2.4667
2.45842
2.44341
2.41894
2.38564
2.34984
2.32129
2.29775
2.27726
2.25935
2.24611
2.22392
5.28303
4.82465
4.37791
3.93991
3.58514
3.25099
2.93551
2.66039
2.41775
2.20207
2.04643
1.86126
1.70179
1.60039
1.52314
1.4529