/*--------------------------------*- C++ -*----------------------------------*\
  =========                 |
  \\      /  F ield         | OpenFOAM: The Open Source CFD Toolbox
   \\    /   O peration     | Website:  https://openfoam.org
    \\  /    A nd           | Version:  10
     \\/     M anipulation  |
\*---------------------------------------------------------------------------*/
FoamFile
{
    format      ascii;
    class       volScalarField;
    location    "2";
    object      T;
}
// * * * * * * * * * * * * * * * * * * * * * * * * * * * * * * * * * * * * * //

dimensions      [0 0 0 1 0 0 0];

internalField   nonuniform List<scalar> 
16128
(
1
1
1
1
1
1
1
1
1
1
1
1
1
1
1
1
1
1
1
1
1
1
1
1
1.27122
2.46427
2.71493
2.71905
2.72718
2.73268
2.73728
2.74183
2.748
2.75692
2.76797
2.77891
2.78746
2.79282
2.79633
2.80032
2.80626
2.81346
2.82026
2.82608
2.83282
2.84051
2.84685
2.85051
1
1
1
1
1
1
1
1
1
1
1
1
1
1
1
1
1
1
1
1
1
1
1
1
1.2565
2.45567
2.71461
2.7195
2.72714
2.73255
2.73687
2.74123
2.74735
2.75632
2.76745
2.77841
2.78691
2.79223
2.7957
2.79961
2.80544
2.81262
2.81951
2.82534
2.83188
2.8393
2.84553
2.8496
1
1
1
1
1
1
1
1
1
1
1
1
1
1
1
1
1
1
1
1
1
1
1
1
1.22253
2.43658
2.71541
2.71953
2.72634
2.73155
2.73572
2.74006
2.7463
2.75549
2.76678
2.77777
2.78619
2.79143
2.79482
2.79864
2.80442
2.81164
2.81855
2.82419
2.8303
2.83739
2.8436
2.84827
1
1
1
1
1
1
1
1
1
1
1
1
1
1
1
1
1
1
1
1
1
1
1
1
1.17745
2.40968
2.71498
2.71932
2.7251
2.72982
2.73394
2.73854
2.74511
2.75451
2.76583
2.77673
2.78497
2.79006
2.79334
2.79713
2.80293
2.81012
2.81687
2.8223
2.82808
2.83485
2.84128
2.84656
1
1
1
1
1
1
1
1
1
1
1
1
1
1
1
1
1
1
1
1
1
1
1
1
1.12093
2.37305
2.7128
2.71697
2.72267
2.72776
2.73234
2.73744
2.74435
2.75379
2.76481
2.77526
2.78304
2.78778
2.79093
2.79478
2.80067
2.80783
2.81452
2.82014
2.82592
2.83218
2.8371
2.84391
1
1
1
1
1
1
1
1
1
1
1
1
1
1
1
1
1
1
1
1
1
1
1
1
1.04064
2.32155
2.71033
2.71634
2.72171
2.72645
2.73093
2.73604
2.74286
2.75201
2.76256
2.77266
2.78028
2.78503
2.78828
2.79223
2.79804
2.80484
2.81117
2.81687
2.82319
2.82988
2.8326
2.83924
1
1
1
1
1
1
1
1
1
1
1
1
1
1
1
1
1
1
1
1
1
1
1
1
1.00118
2.25991
2.70678
2.71192
2.71672
2.72215
2.72757
2.7335
2.74078
2.74999
2.76027
2.77002
2.7773
2.78175
2.78476
2.78855
2.79414
2.80068
2.80693
2.81284
2.81945
2.82599
2.82739
2.83473
1
1
1
1
1
1
1
1
1
1
1
1
1
1
1
1
1
1
1
1
1
1
1
1
1
2.18067
2.70229
2.70984
2.71425
2.72
2.72573
2.73192
2.73908
2.74776
2.75731
2.7665
2.77356
2.77797
2.7809
2.78444
2.78963
2.79576
2.80175
2.80754
2.81409
2.82079
2.82279
2.8294
1
1
1
1
1
1
1
1
1
1
1
1
1
1
1
1
1
1
1
1
1
1
1
1
1
2.07935
2.69082
2.70737
2.71114
2.71688
2.72263
2.72889
2.73587
2.74405
2.75294
2.76164
2.76857
2.77302
2.77585
2.77905
2.78379
2.78961
2.79536
2.80069
2.80614
2.81305
2.8191
2.82256
1
1
1
1
1
1
1
1
1
1
1
1
1
1
1
1
1
1
1
1
1
1
1
1
1
1.95271
2.66668
2.7044
2.70719
2.71265
2.71813
2.7242
2.7309
2.73862
2.74702
2.75537
2.76235
2.767
2.76981
2.77266
2.77683
2.78217
2.78755
2.79243
2.79762
2.80482
2.81131
2.81314
1
1
1
1
1
1
1
1
1
1
1
1
1
1
1
1
1
1
1
1
1
1
1
1
1
1.80418
2.62941
2.69974
2.70069
2.70548
2.71085
2.71714
2.72408
2.73185
2.74023
2.74848
2.75549
2.76027
2.76299
2.76544
2.76896
2.77369
2.77857
2.78287
2.7878
2.79433
2.80069
2.80357
1
1
1
1
1
1
1
1
1
1
1
1
1
1
1
1
1
1
1
1
1
1
1
1
1
1.62306
2.56859
2.69103
2.69176
2.6964
2.70147
2.70771
2.71494
2.72308
2.73182
2.74029
2.74751
2.75243
2.75509
2.75714
2.75997
2.76403
2.76836
2.77239
2.77715
2.78206
2.78495
2.78979
1
1
1
1
1
1
1
1
1
1
1
1
1
1
1
1
1
1
1
1
1
1
1
1
1
1.38384
2.47288
2.68004
2.6803
2.68594
2.69095
2.69714
2.70431
2.71245
2.72142
2.73028
2.73788
2.74316
2.74598
2.74782
2.75012
2.75329
2.75615
2.75891
2.76222
2.76607
2.76592
2.77082
1
1
1
1
1
1
1
1
1
1
1
1
1
1
1
1
1
1
1
1
1
1
1
1
1
1.10903
2.36511
2.67576
2.67194
2.67662
2.68119
2.68616
2.69256
2.70034
2.70913
2.71828
2.72615
2.7319
2.73509
2.73696
2.73857
2.74027
2.74156
2.74296
2.74471
2.747
2.74297
2.7412
1
1
1
1
1
1
1
1
1
1
1
1
1
1
1
1
1
1
1
1
1
1
1
1
1
1.00327
2.2601
2.66083
2.66084
2.66731
2.67324
2.6785
2.68338
2.68876
2.69588
2.70437
2.712
2.71832
2.72218
2.72422
2.725
2.72542
2.72482
2.72369
2.72081
2.71612
2.70518
2.70034
1
1
1
1
1
1
1
1
1
1
1
1
1
1
1
1
1
1
1
1
1
1
1
1
1
1
2.09489
2.64912
2.66289
2.668
2.67152
2.67351
2.67555
2.67862
2.68342
2.69013
2.69652
2.70283
2.70713
2.70919
2.709
2.70798
2.7048
2.69989
2.69185
2.68362
2.66888
2.67516
1
1
1
1
1
1
1
1
1
1
1
1
1
1
1
1
1
1
1
1
1
1
1
1
1
1
1.86801
2.59865
2.66038
2.66793
2.67182
2.6723
2.67201
2.67227
2.67404
2.67795
2.68181
2.68679
2.69045
2.69205
2.69097
2.68824
2.68225
2.67382
2.65843
2.63565
2.57528
2.43187
1
1
1
1
1
1
1
1
1
1
1
1
1
1
1
1
1
1
1
1
1
1
1
1
1
1
1.53949
2.48177
2.64214
2.65815
2.66668
2.668
2.66734
2.66671
2.66711
2.66863
2.66965
2.67207
2.6737
2.67372
2.67137
2.66661
2.65748
2.64388
2.62002
2.57504
2.50273
2.2992
1
1
1
1
1
1
1
1
1
1
1
1
1
1
1
1
1
1
1
1
1
1
1
1
1
1
1.13056
2.33867
2.63068
2.64078
2.65258
2.65825
2.65929
2.659
2.65914
2.65937
2.65865
2.65856
2.65764
2.65558
2.65083
2.6436
2.63131
2.61252
2.582
2.53006
2.43567
2.2355
1
1
1
1
1
1
1
1
1
1
1
1
1
1
1
1
1
1
1
1
1
1
1
1
1
1
1.00421
2.20867
2.59766
2.61472
2.62928
2.63934
2.64447
2.64712
2.64893
2.64905
2.64788
2.64612
2.64286
2.63834
2.63082
2.62057
2.605
2.58221
2.54629
2.49159
2.38732
2.21926
1
1
1
1
1
1
1
1
1
1
1
1
1
1
1
1
1
1
1
1
1
1
1
1
1
1
0.999991
1.97177
2.56957
2.60332
2.61567
2.62369
2.62915
2.63318
2.63598
2.63685
2.63586
2.63346
2.62867
2.62193
2.61207
2.5988
2.58001
2.55371
2.51518
2.45897
2.35829
2.22762
1
1
1
1
1
1
1
1
1
1
1
1
1
1
1
1
1
1
1
1
1
1
1
1
1
1
0.999997
1.58489
2.47459
2.58996
2.60088
2.60937
2.61475
2.61828
2.62084
2.62197
2.62124
2.61889
2.61368
2.60578
2.59448
2.57888
2.55768
2.52845
2.48831
2.43125
2.34292
2.23653
1
1
1
1
1
1
1
1
1
1
1
1
1
1
1
1
1
1
1
1
1
1
1
1
1
1
0.999999
1.10887
2.32763
2.59352
2.59043
2.59402
2.5994
2.60285
2.60482
2.60544
2.60467
2.60242
2.59741
2.58933
2.57743
2.56069
2.53806
2.50718
2.46601
2.41014
2.33415
2.24597
1
1
1
1
1
1
1
1
1
1
1
1
1
1
1
1
1
1
1
1
1
1
1
1
1
1
1
1.00281
2.1551
2.56029
2.56825
2.57816
2.5849
2.58835
2.58937
2.58885
2.5872
2.58428
2.57916
2.57133
2.55968
2.54309
2.52041
2.48944
2.44873
2.39543
2.32812
2.25401
1
1
1
1
1
1
1
1
1
1
1
1
1
1
1
1
1
1
1
1
1
1
1
1
1
1
1
0.999986
1.79578
2.49573
2.5508
2.56403
2.57301
2.57671
2.57656
2.57472
2.57132
2.56669
2.56056
2.55243
2.5411
2.52526
2.50363
2.47383
2.43522
2.38534
2.32547
2.26188
1
1
1
1
1
1
1
1
1
1
1
1
1
1
1
1
1
1
1
1
1
1
1
1
1
1
1
0.999996
1.2717
2.35877
2.55403
2.55148
2.55608
2.56139
2.56181
2.55996
2.55577
2.54968
2.54199
2.53295
2.52152
2.50657
2.48649
2.45838
2.42324
2.37787
2.32442
2.26854
1
1
1
1
1
1
1
1
1
1
1
1
1
1
1
1
1
1
1
1
1
1
1
1
1
1
1
0.999999
1.01764
2.19635
2.52531
2.52988
2.5378
2.54371
2.54562
2.5445
2.54072
2.53411
2.52525
2.51479
2.50265
2.48801
2.46899
2.44278
2.41132
2.3707
2.32421
2.27385
1
1
1
1
1
1
1
1
1
1
1
1
1
1
1
1
1
1
1
1
1
1
1
1
1
1
1
1
1.00003
1.81262
2.4656
2.51505
2.52199
2.52773
2.53028
2.52937
2.52591
2.51926
2.5098
2.49828
2.48477
2.47003
2.45098
2.42701
2.39857
2.36254
2.32259
2.27642
1
1
1
1
1
1
1
1
1
1
1
1
1
1
1
1
1
1
1
1
1
1
1
1
1
1
1
1
0.999999
1.23741
2.33062
2.518
2.50825
2.50962
2.51211
2.51178
2.50946
2.50403
2.49529
2.48369
2.46965
2.45379
2.43455
2.41239
2.38612
2.35397
2.31894
2.2778
1
1
1
1
1
1
1
1
1
1
1
1
1
1
1
1
1
1
1
1
1
1
1
1
1
1
1
1
1
1.01271
2.14889
2.48491
2.48467
2.48985
2.49259
2.49314
2.49189
2.48789
2.48049
2.4696
2.45564
2.43932
2.42019
2.39899
2.37409
2.34527
2.31339
2.27668
1
1
1
1
1
1
1
1
1
1
1
1
1
1
1
1
1
1
1
1
1
1
1
1
1
1
1
1
1
1.00001
1.6823
2.40066
2.4678
2.47687
2.47782
2.47723
2.47557
2.47184
2.46538
2.45564
2.44261
2.42671
2.40821
2.3876
2.36364
2.33707
2.3075
2.27472
1
1
1
1
1
1
1
1
1
1
1
1
1
1
1
1
1
1
1
1
1
1
1
1
1
1
1
1
1
0.999997
1.12374
2.235
2.46814
2.46184
2.46214
2.4608
2.45833
2.45443
2.44871
2.44029
2.42883
2.41431
2.39706
2.37722
2.35436
2.32916
2.30137
2.2716
1
1
1
1
1
1
1
1
1
1
1
1
1
1
1
1
1
1
1
1
1
1
1
1
1
1
1
1
1
0.999999
1.00324
1.9145
2.41628
2.43741
2.44216
2.44406
2.44229
2.43824
2.43264
2.42503
2.41479
2.40182
2.38608
2.36745
2.34596
2.32192
2.29589
2.26829
1
1
1
1
1
1
1
1
1
1
1
1
1
1
1
1
1
1
1
1
1
1
1
1
1
1
1
1
1
1
0.999996
1.26418
2.26602
2.43865
2.43091
2.42987
2.42714
2.42266
2.41696
2.40966
2.40014
2.38847
2.37435
2.35734
2.33736
2.31467
2.29028
2.26444
1
1
1
1
1
1
1
1
1
1
1
1
1
1
1
1
1
1
1
1
1
1
1
1
1
1
1
1
1
1
0.999999
1.01569
2.04647
2.40292
2.41243
2.41177
2.40913
2.40556
2.40058
2.39388
2.38511
2.37444
2.36166
2.34616
2.32779
2.30687
2.28419
2.26026
1
1
1
1
1
1
1
1
1
1
1
1
1
1
1
1
1
1
1
1
1
1
1
1
1
1
1
1
1
1
1
1.00003
1.45827
2.28535
2.40433
2.39792
2.39334
2.38937
2.38457
2.37828
2.37012
2.36018
2.34824
2.33393
2.31734
2.29847
2.27755
2.2554
1
1
1
1
1
1
1
1
1
1
1
1
1
1
1
1
1
1
1
1
1
1
1
1
1
1
1
1
1
1
1
1
1.04968
2.09947
2.38628
2.3815
2.3767
2.37233
2.36752
2.36161
2.35421
2.34513
2.33403
2.32084
2.30572
2.28862
2.26943
2.24884
1
1
1
1
1
1
1
1
1
1
1
1
1
1
1
1
1
1
1
1
1
1
1
1
1
1
1
1
1
1
1
1
1.00044
1.56253
2.28095
2.36981
2.36369
2.35889
2.35313
2.3466
2.33919
2.33054
2.32035
2.30823
2.2942
2.27838
2.26081
2.24169
1
1
1
1
1
1
1
1
1
1
1
1
1
1
1
1
1
1
1
1
1
1
1
1
1
1
1
1
1
1
1
1
1
1.08017
2.09618
2.35827
2.3517
2.34641
2.33989
2.3329
2.32527
2.31674
2.30697
2.29558
2.28243
2.26762
2.25128
2.23354
1
1
1
1
1
1
1
1
1
1
1
1
1
1
1
1
1
1
1
1
1
1
1
1
1
1
1
1
1
1
1
1
1
1.00123
1.56654
2.24678
2.33736
2.33163
2.32647
2.32029
2.3127
2.30403
2.2944
2.28354
2.27117
2.25723
2.24181
2.22516
1
1
1
1
1
1
1
1
1
1
1
1
1
1
1
1
1
1
1
1
1
1
1
1
1
1
1
1
1
1
1
1
1
1
1.08405
2.05636
2.32677
2.32041
2.31456
2.30741
2.29974
2.29135
2.28223
2.27204
2.2604
2.24726
2.23268
2.21677
1
1
1
1
1
1
1
1
1
1
1
1
1
1
1
1
1
1
1
1
1
1
1
1
1
1
1
1
1
1
1
1
1
1
1.0014
1.4955
2.19891
2.30535
2.29764
2.29233
2.28633
2.27941
2.27114
2.26142
2.25016
2.23752
2.22367
2.20853
1
1
1
1
1
1
1
1
1
1
1
1
1
1
1
1
1
1
1
1
1
1
1
1
1
1
1
1
1
1
1
1
1
1
1
1.0627
1.98585
2.29004
2.28594
2.27987
2.27358
2.26702
2.25912
2.24984
2.23921
2.22727
2.21422
2.20024
1
1
1
1
1
1
1
1
1
1
1
1
1
1
1
1
1
1
1
1
1
1
1
1
1
1
1
1
1
1
1
1
1
1
1
1.00083
1.40778
2.14567
2.27214
2.26296
2.25936
2.25382
2.24669
2.23819
2.22844
2.21735
2.20508
2.19211
1
1
1
1
1
1
1
1
1
1
1
1
1
1
1
1
1
1
1
1
1
1
1
1
1
1
1
1
1
1
1
1
1
1
1
1
1.03937
1.85911
2.23393
2.25393
2.24807
2.24144
2.23432
2.22627
2.2172
2.20709
2.19583
2.18364
1
1
1
1
1
1
1
1
1
1
1
1
1
1
1
1
1
1
1
1
1
1
1
1
1
1
1
1
1
1
1
1
1
1
1
1
1.00041
1.27706
2.0614
2.24255
2.23344
2.22823
2.22221
2.21514
2.2068
2.19744
2.18704
2.17551
1
1
1
1
1
1
1
1
1
1
1
1
1
1
1
1
1
1
1
1
1
1
1
1
1
1
1
1
1
1
1
1
1
1
1
1
1
1.01673
1.64776
2.15436
2.22141
2.21391
2.20883
2.20279
2.19531
2.18655
2.17695
2.16644
1
1
1
1
1
1
1
1
1
1
1
1
1
1
1
1
1
1
1
1
1
1
1
1
1
1
1
1
1
1
1
1
1
1
1
1
1
1.00013
1.13566
1.9438
2.20919
2.20201
2.1966
2.19024
2.1833
2.17534
2.1666
2.15722
1
1
1
1
1
1
1
1
1
1
1
1
1
1
1
1
1
1
1
1
1
1
1
1
1
1
1
1
1
1
1
1
1
1
1
1
1
1
1.00402
1.4276
2.07299
2.18807
2.17904
2.17391
2.16815
2.16161
2.15419
2.14601
1
1
1
1
1
1
1
1
1
1
1
1
1
1
1
1
1
1
1
1
1
1
1
1
1
1
1
1
1
1
1
1
1
1
1
1
1
1
1.00002
1.04758
1.75187
2.13286
2.1748
2.166
2.15846
2.15152
2.14425
2.13641
1
1
1
1
1
1
1
1
1
1
1
1
1
1
1
1
1
1
1
1
1
1
1
1
1
1
1
1
1
1
1
1
1
1
1
1
1
1
1
1.00068
1.21213
1.9397
2.16023
2.15484
2.14783
2.14091
2.13338
2.12538
1
1
1
1
1
1
1
1
1
1
1
1
1
1
1
1
1
1
1
1
1
1
1
1
1
1
1
1
1
1
1
1
1
1
1
1
1
1
1
1
1.00996
1.46767
2.04108
2.14223
2.13486
2.12778
2.12091
2.1133
1
1
1
1
1
1
1
1
1
1
1
1
1
1
1
1
1
1
1
1
1
1
1
1
1
1
1
1
1
1
1
1
1
1
1
1
1
1
1
1
1.00008
1.06186
1.72998
2.08675
2.1297
2.12039
2.11193
2.10414
1
1
1
1
1
1
1
1
1
1
1
1
1
1
1
1
1
1
1
1
1
1
1
1
1
1
1
1
1
1
1
1
1
1
1
1
1
1
1
1
1
1.00112
1.20733
1.88734
2.11156
2.11105
2.10334
2.09533
1
1
1
1
1
1
1
1
1
1
1
1
1
1
1
1
1
1
1
1
1
1
1
1
1
1
1
1
1
1
1
1
1
1
1
1
1
1
1
1
1
1
1.00982
1.41404
1.97992
2.09752
2.09246
2.08469
1
1
1
1
1
1
1
1
1
1
1
1
1
1
1
1
1
1
1
1
1
1
1
1
1
1
1
1
1
1
1
1
1
1
1
1
1
1
1
1
1
1
1.00008
1.04735
1.62431
2.02889
2.08557
2.07651
1
1
1
1
1
1
1
1
1
1
1
1
1
1
1
1
1
1
1
1
1
1
1
1
1
1
1
1
1
1
1
1
1
1
1
1
1
1
1
1
1
1
1
1.00077
1.14127
1.79078
2.0437
2.07293
1
1
1
1
1
1
1
1
1
1
1
1
1
1
1
1
1
1
1
1
1
1
1
1
1
1
1
1
1
1
1
1
1
1
1
1
1
1
1
1
1
1
1
1
1.00492
1.29368
1.87756
2.05234
1
1
1
1
1
1
1
1
1
1
1
1
1
1
1
1
1
1
1
1
1
1
1
1
1
1
1
1
1
1
1
1
1
1
1
1
1
1
1
1
1
1
1
1
1.00003
1.02156
1.45497
1.93837
1
1
1
1
1
1
1
1
1
1
1
1
1
1
1
1
1
1
1
1
1
1
1
1
1
1
1
1
1
1
1
1
1
1
1
1
1
1
1
1
1
1
1
1
1
1.00026
1.06401
1.60548
1
1
1
1
1
1
1
1
1
1
1
1
1
1
1
1
1
1
1
1
1
1
1
1
1
1
1
1
1
1
1
1
1
1
1
1
1
1
1
1
1
1
1
1
1
1
1.00132
1.14197
1
1
1
1
1
1
1
1
1
1
1
1
1
1
1
1
1
1
1
1
1
1
1
1
1
1
1
1
1
1
1
1
1
1
1
1
1
1
1
1
1
1
1
1
1
1
1.00001
1.00521
1
1
1
1
1
1
1
1
1
1
1
1
1
1
1
1
1
1
1
1
1
1
1
1
1
1
1
1
1
1
1
1
1
1
1
1
1
1
1
1
1
1
1
1
1
1
1
1.00004
1
1
1
1
1
1
1
1
1
1
1
1
1
1
1
1
1
1
1
1
1
1
1
1
1
1
1
1
1
1
1
1
1
1
1
1
1
1
1
1
1
1
1
1
1
1
1
1
1
1
1
1
1
1
1
1
1
1
1
1
1
1
1
1
1
1
1
1
1
1
1
1
1
1
1
1
1
1
1
1
1
1
1
1
1
1
1
1
1
1
1
1
1
1
1
1
1
1
1
1
1
1
1
1
1
1
1
1
1
1
1
1
1
1
1
1
1
1
1
1
1
1
1
1
1
1
1
1
1
1
1
1
1
1
1
1
1
1
1
1
1
1
1
1
1
1
1
1
1
1
1
1
1
1
1
1
1
1
1
1
1
1
1
1
1
1
1
1
1
1
1
1
1
1
1
1
1
1
1
1
1
1
1
1
1
1
1
1
1
1
1
1
1
1
1
1
1
1
1
1
1
1
1
1
1
1
1
1
1
1
1
1
1
1
1
1
1
1
1
1
1
1
1
1
1
1
1
1
1
1
1
1
1
1
1
1
1
1
1
1
1
1
1
1
1
1
1
1
1
1
1
1
1
1
1
1
1
1
1
1
1
1
1
1
1
1
1
1
1
1
1
1
1
1
1
1
1
1
1
1
1
1
1
1
1
1
1
1
1
1
1
1
1
1
1
1
1
1
1
1
1
1
1
1
1
1
1
1
1
1
1
1
1
1
1
1
1
1
1
1
1
1
1
1
1
1
1
1
1
1
1
1
1
1
1
1
1
1
1
1
1
1
1
1
1
1
1
1
1
1
1
1
1
1
1
1
1
1
1
1
1
1
1
1
1
1
1
1
1
1
1
1
1
1
1
1
1
1
1
1
1
1
1
1
1
1
1
1
1
1
1
1
1
1
1
1
1
1
1
1
1
1
1
1
1
1
1
1
1
1
1
1
1
1
1
1
1
1
1
1
1
1
1
1
1
1
1
1
1
1
1
1
1
1
1
1
1
1
1
1
1
1
1
1
1
1
1
1
1
1
1
1
1
1
1
1
1
1
1
1
1
1
1
1
1
1
1
1
1
1
1
1
1
1
1
1
1
1
1
1
1
1
1
1
1
1
1
1
1
1
1
1
1
1
1
1
1
1
1
1
1
1
1
1
1
1
1
1
1
1
1
1
1
1
1
1
1
1
1
1
1
1
1
1
1
1
1
1
1
1
1
1
1
1
1
1
1
1
1
1
1
1
1
1
1
1
1
1
1
1
1
1
1
1
1
1
1
1
1
1
1
1
1
1
1
1
1
1
1
1
1
1
1
1
1
1
1
1
1
1
1
1
1
1
1
1
1
1
1
1
1
1
1
1
1
1
1
1
1
1
1
1
1
1
1
1
1
1
1
1
1
1
1
1
1
1
1
1
1
1
1
1
1
1
1
1
1
1
1
1
1
1
1
1
1
1
1
1
1
1
1
1
1
1
1
1
1
1
1
1
1
1
1
1
1
1
1
1
1
1
1
1
1
1
1
1
1
1
1
1
1
1
1
1
1
1
1
1
1
1
1
1
1
1
1
1
1
1
1
1
1
1
1
1
1
1
1
1
1
1
1
1
1
1
1
1
1
1
1
1
1
1
1
1
1
1
1
1
1
1
1
1
1
1
1
1
1
1
1
1
1
1
1
1
1
1
1
1
1
1
1
1
1
1
1
1
1
1
1
1
1
1
1
1
1
1
1
1
1
1
1
1
1
1
1
1
1
1
1
1
1
1
1
1
1
1
1
1
1
1
1
1
1
1
1
1
1
1
1
1
1
1
1
1
1
1
1
1
1
1
1
1
1
1
1
1
1
1
1
1
1
1
1
1
1
1
1.45904
0.661145
0.676324
0.860476
0.843004
0.852346
0.86542
0.932237
1.03202
1.12254
1.21196
1.29138
1.35002
1.3724
1.37738
1.40137
1.46524
1.54891
1.59003
1.58884
1.55953
1.5461
1.54733
1.56331
1.59618
1.60957
1.60467
1.59378
1.58326
1.58256
1.59773
1.61849
1.62503
1.62094
1.61721
1.6126
1.61325
1.61953
1.62179
1.62263
1.62248
1.6216
1.61818
1.61782
1.62311
1.63269
1.63898
1.64076
1.64016
1.63794
1.63594
1.63413
1.63142
1.62895
1.62576
1.62291
1.62194
1.6223
1.6248
1.62752
1.62707
1.62576
1.62491
1.62549
1.62627
1.62554
1.62346
1.62137
1.61952
1.61886
1.6195
1.62176
1.62284
1.62252
1.61999
1.61661
1.61408
1.61232
1.61158
1.61061
1.60708
1.60593
1.61685
1.68563
1.86388
2.20835
2.54433
2.65426
2.63941
2.63225
2.60459
2.59126
2.57462
2.559
2.54502
2.53144
2.52098
2.51101
2.50051
2.49344
2.48748
2.48134
2.47602
2.47118
2.46532
2.45937
2.45161
2.4427
2.43509
2.42708
2.41967
2.41444
2.40972
2.40189
2.3925
2.3815
2.3703
2.36084
2.35236
2.34604
2.34009
2.33185
2.32298
2.31318
2.30088
2.28821
2.27845
2.27044
2.26381
2.25944
2.25611
2.25237
2.24838
2.24431
2.23994
2.23336
2.2245
2.21532
2.20705
2.20045
2.19538
2.19102
2.18789
2.18585
2.18335
2.18031
2.17644
2.16901
2.15844
2.1516
2.14724
2.14351
2.14094
2.13904
2.13614
2.13233
2.12767
2.118
2.10216
2.08811
2.07863
2.07188
2.06632
2.06139
2.05836
2.05751
2.0558
2.0537
2.0517
2.05008
2.04781
2.04114
2.02877
2.01515
2.00472
1.9992
1.9963
1.99524
1.99466
1.99237
1.9885
1.98199
1.97713
1.97518
1.974
1.97259
1.97139
1.97037
1.96851
1.96341
1.95311
1.94085
1.76521
1.32161
1.1701
1.07385
0.933971
0.856872
0.866168
0.886791
0.895446
0.913508
0.96374
1.05248
1.12528
1.17313
1.21223
1.24507
1.27155
1.31441
1.36698
1.42232
1.46052
1.48357
1.4995
1.51316
1.52687
1.53387
1.53771
1.54393
1.55845
1.57133
1.59284
1.60357
1.59983
1.59071
1.58767
1.59288
1.60788
1.61403
1.61256
1.60595
1.60241
1.60402
1.61093
1.62015
1.62634
1.62958
1.6309
1.63158
1.631
1.62676
1.62096
1.61762
1.61789
1.62171
1.62276
1.62262
1.62247
1.62178
1.62091
1.6208
1.62151
1.62321
1.62369
1.62315
1.62155
1.61733
1.6127
1.60991
1.6092
1.61078
1.61497
1.61863
1.61953
1.61824
1.61509
1.61351
1.61323
1.613
1.61222
1.6083
1.60374
1.61052
1.6522
1.80786
1.97466
2.092
2.2703
2.45187
2.54331
2.58782
2.58222
2.57133
2.55281
2.53892
2.52888
2.51869
2.50941
2.49912
2.48941
2.48235
2.47495
2.46731
2.46176
2.4562
2.45094
2.4459
2.44047
2.43305
2.42338
2.41643
2.41041
2.40531
2.3994
2.39215
2.3846
2.37577
2.36445
2.35343
2.3461
2.33961
2.33282
2.32489
2.31636
2.30709
2.29736
2.28715
2.27641
2.2679
2.26195
2.25643
2.25019
2.24396
2.23805
2.2326
2.22733
2.2217
2.21526
2.20863
2.20346
2.19894
2.19334
2.18688
2.18204
2.17886
2.17563
2.17146
2.16627
2.16129
2.15701
2.15096
2.1432
2.13873
2.13624
2.13382
2.12961
2.12262
2.11141
2.10103
2.09502
2.09108
2.08447
2.07526
2.06811
2.06288
2.05806
2.05362
2.05012
2.04785
2.04569
2.0414
2.03319
2.02263
2.01607
2.01339
2.01147
2.00668
1.9983
1.99161
1.98748
1.98369
1.97985
1.97685
1.97396
1.96979
1.9677
1.967
1.96676
1.96612
1.96303
1.95562
1.94785
1.93997
1.93619
1.68202
1.47853
1.34151
1.23486
1.1243
1.09006
1.03676
0.995828
0.99939
1.02912
1.0495
1.06138
1.06711
1.07817
1.07994
1.086
1.10827
1.1581
1.24032
1.32751
1.36921
1.39687
1.40902
1.42028
1.43919
1.46155
1.49028
1.52388
1.54485
1.55506
1.55524
1.55119
1.54975
1.55092
1.55932
1.56879
1.57142
1.57203
1.57433
1.58232
1.59303
1.59983
1.60133
1.5994
1.59545
1.59346
1.59348
1.59425
1.59546
1.59561
1.59668
1.60078
1.60707
1.6124
1.61402
1.61368
1.61106
1.60625
1.60504
1.60571
1.60597
1.60441
1.5998
1.59633
1.59607
1.59781
1.60297
1.60852
1.61066
1.61058
1.60857
1.60535
1.60351
1.60349
1.60426
1.60411
1.60149
1.59481
1.59511
1.60784
1.6858
1.83682
1.99546
2.04179
2.03122
2.05457
2.16368
2.32219
2.43941
2.49101
2.51711
2.51392
2.50306
2.49182
2.48344
2.47413
2.4632
2.45342
2.44536
2.43734
2.43049
2.42483
2.42006
2.41547
2.41101
2.40634
2.40038
2.39286
2.38646
2.38144
2.37601
2.37006
2.36368
2.3567
2.34904
2.34112
2.33381
2.32609
2.31882
2.31195
2.30452
2.2965
2.28834
2.28035
2.27231
2.26427
2.25621
2.2483
2.2407
2.23352
2.22689
2.22072
2.21454
2.20776
2.20135
2.19589
2.19137
2.18785
2.18405
2.1798
2.17585
2.17201
2.16759
2.16212
2.15609
2.15124
2.14784
2.14391
2.13953
2.13653
2.13322
2.12811
2.12143
2.11358
2.10553
2.09899
2.09424
2.08988
2.08395
2.07677
2.07076
2.06608
2.06191
2.05793
2.05369
2.04856
2.0423
2.03445
2.02592
2.01888
2.01433
2.01143
2.00875
2.00499
2.0013
1.99836
1.99512
1.98999
1.98425
1.98036
1.97763
1.97516
1.97303
1.97131
1.96939
1.96666
1.9628
1.95827
1.95371
1.94923
1.94228
2.00734
1.84054
1.69064
1.55184
1.42475
1.33916
1.30221
1.2586
1.17093
1.11423
1.11615
1.12108
1.12005
1.12397
1.12171
1.10379
1.08759
1.09121
1.0963
1.11799
1.17342
1.22549
1.26398
1.29391
1.31738
1.3496
1.38158
1.41663
1.45561
1.4755
1.48342
1.48502
1.48541
1.49194
1.50266
1.51419
1.52259
1.52594
1.52963
1.53766
1.54888
1.55347
1.55361
1.55253
1.54873
1.5463
1.54747
1.55214
1.55823
1.56257
1.56465
1.56614
1.56828
1.57151
1.57571
1.57805
1.57772
1.57579
1.57222
1.57044
1.57045
1.57024
1.56982
1.56988
1.57026
1.57373
1.5798
1.58497
1.58581
1.58391
1.5811
1.57778
1.57627
1.57655
1.5773
1.57717
1.57601
1.57276
1.57397
1.58945
1.6998
1.87496
1.97926
2.0284
2.02346
2.00527
1.98381
1.98771
2.04977
2.19585
2.33366
2.41168
2.43765
2.44011
2.44014
2.43714
2.42725
2.41653
2.40697
2.39783
2.39069
2.38364
2.37818
2.37402
2.36969
2.36539
2.36108
2.35621
2.34985
2.34251
2.33679
2.33166
2.32647
2.32104
2.31572
2.31071
2.30562
2.29932
2.29125
2.28313
2.27637
2.26965
2.26266
2.25586
2.24932
2.24307
2.23659
2.22906
2.22071
2.21278
2.20546
2.19819
2.19044
2.18234
2.17475
2.1681
2.16378
2.16152
2.15951
2.15754
2.15553
2.15259
2.1471
2.13875
2.13143
2.12663
2.12304
2.12039
2.11907
2.11838
2.11661
2.11187
2.1028
2.09301
2.08614
2.08091
2.07695
2.07311
2.06835
2.06347
2.06026
2.05751
2.05404
2.04978
2.04486
2.03867
2.03066
2.0214
2.0115
2.00331
1.99797
1.99443
1.99163
1.98982
1.98961
1.98992
1.98974
1.98643
1.97824
1.97064
1.96692
1.96477
1.96289
1.96101
1.95874
1.95576
1.95177
1.94741
1.94381
1.94077
1.93726
1.93087
2.06782
1.92026
1.80404
1.70706
1.5949
1.47187
1.42951
1.39442
1.34722
1.29942
1.24037
1.20724
1.19792
1.19645
1.19066
1.17293
1.14948
1.13858
1.13759
1.1422
1.14528
1.1488
1.1548
1.16561
1.18071
1.21343
1.26315
1.31134
1.36468
1.39778
1.41764
1.42916
1.43544
1.4455
1.46165
1.47859
1.49334
1.49532
1.49488
1.49732
1.50481
1.51094
1.512
1.51079
1.51008
1.51247
1.51851
1.52843
1.53531
1.53672
1.53662
1.53365
1.53238
1.53401
1.53742
1.54008
1.53995
1.53954
1.53943
1.53899
1.53891
1.53983
1.54195
1.54579
1.54988
1.55286
1.5538
1.55316
1.55089
1.54793
1.54541
1.54517
1.54639
1.54829
1.54847
1.54753
1.54714
1.55119
1.57874
1.68759
1.90149
1.97666
2.00586
2.00282
1.99262
1.98004
1.96876
1.96556
1.9641
1.99234
2.09736
2.23867
2.33177
2.37925
2.39121
2.39844
2.39506
2.38876
2.37868
2.36622
2.3567
2.34804
2.34182
2.33785
2.33362
2.32937
2.32478
2.31962
2.3131
2.30436
2.29617
2.29036
2.28579
2.28184
2.27824
2.27449
2.27001
2.26412
2.25558
2.24633
2.24009
2.23469
2.22907
2.22359
2.21796
2.21221
2.20595
2.1982
2.18928
2.18105
2.17362
2.16605
2.15781
2.14928
2.14192
2.13734
2.13475
2.133
2.13146
2.13011
2.12857
2.12587
2.11954
2.10864
2.09898
2.09467
2.09314
2.09249
2.09286
2.09235
2.08991
2.08448
2.07381
2.06188
2.05438
2.05044
2.04738
2.0448
2.04243
2.04087
2.03959
2.03736
2.03376
2.02831
2.02147
2.01418
2.00612
1.9962
1.98576
1.97761
1.97216
1.96821
1.96701
1.96745
1.96825
1.96964
1.97049
1.96856
1.95955
1.94959
1.94547
1.94389
1.94256
1.9407
1.93785
1.93389
1.9292
1.92468
1.92128
1.91803
1.91538
1.91054
2.11376
1.99098
1.87993
1.79199
1.7026
1.61686
1.55314
1.48267
1.43562
1.40882
1.37832
1.33698
1.27642
1.25445
1.25134
1.2394
1.22103
1.20227
1.19326
1.19047
1.18412
1.17429
1.16529
1.16625
1.17262
1.17189
1.17763
1.19389
1.22679
1.2719
1.30746
1.34493
1.37525
1.39615
1.4215
1.44757
1.46919
1.47624
1.47764
1.47785
1.47795
1.47993
1.48338
1.48646
1.49118
1.49829
1.50737
1.51443
1.51658
1.51699
1.51671
1.51389
1.51012
1.50928
1.5112
1.51513
1.51847
1.52015
1.52092
1.52077
1.52083
1.5221
1.52469
1.52744
1.52873
1.52903
1.529
1.52738
1.52339
1.52159
1.52181
1.52322
1.52659
1.52831
1.52818
1.52762
1.53172
1.57475
1.69982
1.87894
1.99331
1.99238
1.9899
1.97906
1.97371
1.96802
1.96537
1.96357
1.96062
1.95288
1.96064
2.01396
2.14069
2.2694
2.34107
2.35952
2.37061
2.37001
2.36214
2.35115
2.34046
2.33075
2.32202
2.31622
2.31138
2.30752
2.30284
2.29682
2.28948
2.28076
2.27156
2.26359
2.25832
2.25441
2.25074
2.24713
2.24266
2.23768
2.23017
2.2202
2.21299
2.20776
2.20244
2.19738
2.19194
2.1862
2.18001
2.17184
2.16231
2.15413
2.14745
2.14103
2.13421
2.12745
2.12165
2.11639
2.11177
2.10883
2.10766
2.10796
2.10686
2.10344
2.09642
2.0853
2.07542
2.0712
2.06955
2.06826
2.06732
2.06584
2.06311
2.05818
2.04835
2.03539
2.02725
2.02278
2.01917
2.01634
2.01569
2.01537
2.01348
2.01094
2.00749
2.00193
1.99505
1.98791
1.97966
1.96956
1.95974
1.95306
1.94815
1.94433
1.94255
1.94335
1.94499
1.94644
1.94728
1.94598
1.93899
1.9288
1.92283
1.92055
1.91895
1.91686
1.9137
1.9089
1.90272
1.89792
1.89493
1.89217
1.89028
1.88528
2.14722
2.04358
1.94889
1.86621
1.77963
1.70729
1.65238
1.59046
1.52126
1.4762
1.45908
1.42883
1.3748
1.3215
1.30615
1.30539
1.29805
1.27994
1.2561
1.23547
1.22984
1.2231
1.20732
1.19579
1.19446
1.19046
1.18443
1.18806
1.18889
1.19267
1.19992
1.21703
1.25209
1.29282
1.34128
1.38408
1.41822
1.45083
1.46638
1.47195
1.4717
1.46613
1.46688
1.47357
1.48504
1.49359
1.49831
1.50135
1.50354
1.50473
1.50419
1.5026
1.50322
1.50343
1.50474
1.50816
1.51086
1.51196
1.51188
1.51131
1.51109
1.51122
1.51225
1.51393
1.51413
1.51412
1.51359
1.51168
1.5105
1.51082
1.51239
1.51623
1.51841
1.51789
1.51766
1.52169
1.57212
1.74534
1.89052
1.98158
1.98565
1.98164
1.98016
1.97395
1.97038
1.96838
1.96442
1.96098
1.95581
1.94793
1.94179
1.94164
1.96522
2.05316
2.194
2.29339
2.35563
2.35609
2.35326
2.34535
2.33799
2.32911
2.31779
2.30942
2.30287
2.29685
2.29053
2.28378
2.27686
2.26968
2.26161
2.25312
2.24638
2.24163
2.23765
2.23351
2.22875
2.22336
2.21641
2.20794
2.20001
2.19373
2.18828
2.18289
2.17762
2.17191
2.16464
2.15524
2.14532
2.13731
2.13115
2.12589
2.1212
2.11696
2.11245
2.10716
2.10143
2.09634
2.09291
2.09028
2.08684
2.08241
2.07666
2.07008
2.06443
2.05961
2.05573
2.05336
2.05142
2.04884
2.04422
2.03714
2.02819
2.01924
2.01158
2.00536
2.00103
1.99872
1.99902
1.99757
1.99377
1.98958
1.98404
1.97769
1.97164
1.96516
1.95694
1.94715
1.93951
1.93464
1.93053
1.92723
1.92504
1.92305
1.92184
1.92177
1.92212
1.92172
1.91874
1.91381
1.90802
1.90314
1.89948
1.89596
1.89162
1.88553
1.8785
1.87397
1.8706
1.86761
1.86665
1.8618
2.17078
2.08227
2.00267
1.92703
1.84736
1.78074
1.7255
1.67184
1.60696
1.54995
1.5177
1.49102
1.45697
1.40494
1.36371
1.3582
1.35639
1.34577
1.32834
1.29881
1.27146
1.26234
1.25168
1.23705
1.23247
1.22854
1.21729
1.21035
1.20739
1.20255
1.19771
1.19541
1.1978
1.20694
1.23021
1.27095
1.31226
1.35568
1.39088
1.41671
1.43626
1.44439
1.45417
1.47205
1.48973
1.49297
1.4929
1.49023
1.48682
1.48599
1.48764
1.49154
1.49615
1.50156
1.50672
1.50881
1.50895
1.50853
1.50789
1.50717
1.50681
1.5063
1.50567
1.50556
1.50544
1.50505
1.5047
1.5048
1.50545
1.50695
1.50925
1.51148
1.51186
1.51258
1.51811
1.56919
1.76059
1.93273
1.97537
1.98542
1.98693
1.98428
1.98138
1.97514
1.96817
1.96381
1.95876
1.95379
1.94893
1.94325
1.93904
1.93839
1.93633
1.94327
1.99082
2.10095
2.23968
2.30774
2.34563
2.34445
2.34168
2.33273
2.32162
2.31179
2.30167
2.29151
2.28276
2.27589
2.26996
2.26427
2.25812
2.25123
2.2441
2.2374
2.23173
2.22654
2.22079
2.21466
2.20863
2.20284
2.1966
2.18936
2.18203
2.17568
2.1693
2.16208
2.15437
2.14596
2.13741
2.12956
2.12297
2.11844
2.1151
2.11193
2.10849
2.10436
2.09901
2.0922
2.08469
2.07771
2.07214
2.06717
2.06307
2.0607
2.05859
2.05568
2.05111
2.04508
2.0391
2.03345
2.02719
2.01998
2.01404
2.0099
2.00553
1.99999
1.99324
1.98718
1.98286
1.9791
1.97503
1.97035
1.96501
1.95992
1.95506
1.94875
1.94014
1.9321
1.92742
1.92387
1.92035
1.91685
1.9134
1.91016
1.90741
1.90507
1.90388
1.90404
1.90468
1.90331
1.89893
1.89349
1.88819
1.88255
1.87584
1.86765
1.86033
1.85599
1.85214
1.84815
1.84628
1.8412
2.18963
2.1139
2.04431
1.97409
1.90501
1.84469
1.78376
1.72893
1.6818
1.63259
1.57419
1.53587
1.51444
1.48787
1.45048
1.41045
1.39615
1.39056
1.37954
1.35945
1.32699
1.30695
1.29845
1.2876
1.2801
1.27539
1.26727
1.25023
1.23809
1.22731
1.21177
1.20738
1.20813
1.20957
1.2127
1.21863
1.22679
1.24037
1.26264
1.28993
1.32911
1.37186
1.4104
1.45311
1.48124
1.48944
1.49225
1.49176
1.48207
1.4759
1.47722
1.48189
1.49119
1.50328
1.50831
1.50887
1.50846
1.50622
1.50375
1.50299
1.50265
1.50329
1.50559
1.50599
1.50511
1.5022
1.49994
1.49984
1.50095
1.50287
1.50492
1.5062
1.50796
1.51977
1.59123
1.75957
1.94801
1.98619
1.99106
1.98723
1.98483
1.9813
1.97734
1.97126
1.96199
1.95737
1.95485
1.95142
1.94582
1.94163
1.93982
1.93843
1.93433
1.92995
1.92731
1.9424
2.01405
2.13954
2.26004
2.30594
2.32577
2.32905
2.32453
2.31488
2.30101
2.28801
2.27828
2.27093
2.26562
2.26071
2.25588
2.25083
2.24466
2.23689
2.2284
2.22098
2.21513
2.21007
2.20538
2.20092
2.19615
2.18981
2.18093
2.17098
2.16227
2.15498
2.1481
2.14146
2.13505
2.12814
2.12172
2.1171
2.11348
2.11028
2.10709
2.10339
2.09821
2.09053
2.08065
2.07086
2.06383
2.0599
2.05756
2.05702
2.05618
2.05333
2.04933
2.042
2.03116
2.02189
2.01557
2.01089
2.00756
2.0055
2.00244
1.99763
1.99126
1.98171
1.97059
1.96308
1.95922
1.95613
1.95318
1.94991
1.94569
1.93933
1.93075
1.9241
1.92063
1.91778
1.91471
1.91114
1.90709
1.90321
1.89981
1.89686
1.89474
1.89329
1.89216
1.89105
1.88918
1.8865
1.88277
1.8769
1.8682
1.85759
1.84895
1.84379
1.83961
1.83614
1.83418
1.82773
2.20309
2.13845
2.07673
2.0101
1.94989
1.89658
1.8402
1.77841
1.73218
1.6938
1.64749
1.59201
1.55446
1.54112
1.51795
1.48496
1.45339
1.42946
1.41561
1.40166
1.37867
1.34829
1.33407
1.32793
1.32133
1.31661
1.31106
1.29932
1.27919
1.26154
1.24786
1.2407
1.23783
1.23319
1.22879
1.22757
1.22579
1.22154
1.2214
1.22397
1.23569
1.26441
1.30806
1.36314
1.40963
1.43848
1.46278
1.47339
1.47937
1.47881
1.47438
1.47834
1.48868
1.49941
1.50348
1.5036
1.5031
1.4995
1.49448
1.49317
1.49323
1.49756
1.50468
1.50689
1.50682
1.50401
1.49834
1.49635
1.49639
1.49715
1.49864
1.5015
1.5177
1.62758
1.80644
1.94532
1.99748
1.99095
1.98669
1.98256
1.98151
1.9748
1.96813
1.96281
1.95694
1.95432
1.95278
1.95115
1.94707
1.94275
1.93875
1.93465
1.93026
1.92481
1.92016
1.91589
1.91755
1.94716
2.0405
2.17037
2.26168
2.31148
2.31394
2.3117
2.29961
2.28788
2.27727
2.26736
2.2611
2.25561
2.25181
2.24797
2.24267
2.23507
2.22523
2.2165
2.21115
2.20672
2.20296
2.19962
2.19523
2.18993
2.18132
2.16883
2.15771
2.14994
2.14393
2.13889
2.13408
2.12903
2.12342
2.11744
2.11272
2.10944
2.10613
2.10186
2.09639
2.08898
2.07919
2.06855
2.06111
2.05773
2.05537
2.05362
2.05352
2.05155
2.0472
2.03937
2.02657
2.01547
2.01005
2.00623
2.00387
2.00347
2.00013
1.99501
1.98904
1.97913
1.96524
1.95461
1.94878
1.9453
1.94242
1.93965
1.937
1.93342
1.92777
1.9216
1.91672
1.91305
1.90987
1.90665
1.903
1.89968
1.89725
1.8948
1.89091
1.88638
1.88437
1.88408
1.88398
1.88288
1.8796
1.8735
1.86474
1.85488
1.84614
1.83838
1.83139
1.82524
1.82052
1.81322
2.21555
2.16034
2.10262
2.04159
1.989
1.93558
1.88088
1.82952
1.781
1.73439
1.69883
1.65421
1.61293
1.58488
1.56233
1.54146
1.51305
1.47632
1.44987
1.4377
1.42565
1.40414
1.37603
1.36317
1.3582
1.35365
1.3495
1.34012
1.31954
1.29407
1.28335
1.27929
1.27553
1.27292
1.268
1.25942
1.24333
1.22602
1.22355
1.22493
1.22995
1.23536
1.24258
1.2597
1.29104
1.3195
1.35311
1.38744
1.4211
1.45664
1.4664
1.47469
1.4891
1.49693