/*--------------------------------*- C++ -*----------------------------------*\
  =========                 |
  \\      /  F ield         | OpenFOAM: The Open Source CFD Toolbox
   \\    /   O peration     | Website:  https://openfoam.org
    \\  /    A nd           | Version:  10
     \\/     M anipulation  |
\*---------------------------------------------------------------------------*/
FoamFile
{
    format      ascii;
    class       volVectorField;
    location    "2";
    object      U;
}
// * * * * * * * * * * * * * * * * * * * * * * * * * * * * * * * * * * * * * //

dimensions      [0 1 -1 0 0 0 0];

internalField   nonuniform List<vector> 
16128
(
(3 -3.57352e-15 0)
(3 -9.93114e-15 0)
(3 1.66938e-16 0)
(3 2.32358e-14 0)
(3 -2.24635e-14 0)
(3 -9.10032e-14 0)
(3 -8.03698e-14 0)
(3 -6.06829e-14 0)
(3 1.7141e-14 0)
(3 1.22746e-14 0)
(3 2.3741e-15 0)
(3 -1.9955e-14 0)
(3 -2.81172e-14 0)
(3 -4.31909e-14 0)
(3 -5.07053e-14 0)
(3 -5.70103e-14 0)
(3 -6.90397e-14 0)
(3 -6.84254e-14 0)
(3 -7.3362e-14 0)
(3 -7.71865e-14 0)
(3 -6.88412e-14 0)
(3 -5.39801e-14 0)
(3 -4.09089e-14 0)
(3 -7.78574e-14 0)
(2.80246 0.00340547 0)
(0.952986 0.00983026 0)
(0.730841 0.00917489 0)
(0.703343 0.0127769 0)
(0.668341 0.014554 0)
(0.633716 0.0155503 0)
(0.598974 0.0151861 0)
(0.566303 0.0139371 0)
(0.536455 0.0125912 0)
(0.5092 0.0116399 0)
(0.483409 0.0115577 0)
(0.457261 0.0124481 0)
(0.429255 0.0136489 0)
(0.399535 0.0144852 0)
(0.368997 0.0150357 0)
(0.337738 0.015594 0)
(0.305304 0.0162779 0)
(0.271201 0.0172578 0)
(0.235076 0.0182544 0)
(0.196663 0.0192347 0)
(0.156789 0.0199006 0)
(0.114492 0.0210889 0)
(0.0701553 0.0225799 0)
(0.0240401 0.023027 0)
(3 1.60075e-14 0)
(3 6.49868e-15 0)
(3 3.06089e-15 0)
(3 4.89385e-15 0)
(3 -8.11442e-14 0)
(3 -1.09762e-13 0)
(3 -4.39263e-14 0)
(3 -2.22902e-14 0)
(3 3.54028e-14 0)
(3 6.17249e-14 0)
(3 2.93153e-14 0)
(3 -2.48836e-14 0)
(3 -5.59452e-14 0)
(3 -1.01453e-13 0)
(3 -1.08215e-13 0)
(3 -1.7125e-13 0)
(3 -2.42427e-13 0)
(3 -2.50431e-13 0)
(3 -2.58817e-13 0)
(3 -2.40436e-13 0)
(3 -1.75981e-13 0)
(3 -9.93928e-14 0)
(3 -2.08087e-14 0)
(3 -5.77515e-14 0)
(2.81637 0.0175728 0)
(0.957941 0.0415014 0)
(0.725039 0.0348104 0)
(0.692687 0.0372278 0)
(0.656975 0.0403784 0)
(0.623242 0.0418296 0)
(0.591078 0.0414687 0)
(0.561091 0.0396819 0)
(0.53296 0.037502 0)
(0.506102 0.0358434 0)
(0.479622 0.0359698 0)
(0.452361 0.0384017 0)
(0.423285 0.0415446 0)
(0.392707 0.0435925 0)
(0.36163 0.044957 0)
(0.330192 0.0465606 0)
(0.297927 0.0486799 0)
(0.264337 0.0516849 0)
(0.229074 0.0545636 0)
(0.192051 0.0575379 0)
(0.153825 0.0598337 0)
(0.113274 0.0643119 0)
(0.0691941 0.0694355 0)
(0.0242085 0.0699551 0)
(3 1.59972e-14 0)
(3 3.5878e-14 0)
(3 2.93076e-14 0)
(3 -8.85984e-15 0)
(3 -3.10842e-14 0)
(3 8.96129e-15 0)
(3 3.99599e-14 0)
(3 6.24596e-14 0)
(3 5.64976e-14 0)
(3 5.99818e-15 0)
(3 -1.33906e-14 0)
(3 -7.75206e-14 0)
(3 -5.81731e-14 0)
(3 -7.78422e-14 0)
(3 -1.04681e-13 0)
(3 -1.23457e-13 0)
(3 -1.22302e-13 0)
(3 -1.70884e-13 0)
(3 -2.07293e-13 0)
(3 -2.05117e-13 0)
(3 -2.07435e-13 0)
(3 -2.14038e-13 0)
(3 -1.59007e-13 0)
(3 -1.30871e-13 0)
(2.85286 0.0280155 0)
(0.977876 0.0693235 0)
(0.729121 0.0634028 0)
(0.691785 0.0666278 0)
(0.654243 0.0695364 0)
(0.621568 0.0691053 0)
(0.592549 0.0671696 0)
(0.565384 0.0645378 0)
(0.538483 0.0621012 0)
(0.511212 0.0606921 0)
(0.483167 0.0619196 0)
(0.453846 0.0663434 0)
(0.422597 0.0713724 0)
(0.389962 0.0743001 0)
(0.357163 0.0761058 0)
(0.324345 0.0783139 0)
(0.29092 0.0811647 0)
(0.256499 0.0853435 0)
(0.221009 0.0894001 0)
(0.184865 0.0941491 0)
(0.147995 0.0980503 0)
(0.10958 0.106122 0)
(0.0666001 0.114606 0)
(0.0236041 0.114852 0)
(3 -1.73283e-14 0)
(3 1.06924e-14 0)
(3 2.20191e-14 0)
(3 1.18657e-14 0)
(3 4.24278e-15 0)
(3 1.70351e-14 0)
(3 -2.86586e-15 0)
(3 -2.45319e-14 0)
(3 3.02382e-14 0)
(3 1.57967e-15 0)
(3 -2.68908e-14 0)
(3 -1.08726e-13 0)
(3 -1.0006e-13 0)
(3 -1.33453e-13 0)
(3 -1.06378e-13 0)
(3 -3.30299e-14 0)
(3 -4.28653e-14 0)
(3 -7.02363e-14 0)
(3 -5.1191e-14 0)
(3 -1.77649e-14 0)
(3 -1.73394e-14 0)
(3 -8.76029e-14 0)
(3 -1.48407e-13 0)
(3 -1.54952e-13 0)
(2.89667 0.0331678 0)
(1.00248 0.096892 0)
(0.727344 0.0945281 0)
(0.690949 0.096084 0)
(0.659931 0.096686 0)
(0.632791 0.0926597 0)
(0.606881 0.0883062 0)
(0.580455 0.0859248 0)
(0.552458 0.0853183 0)
(0.522949 0.0858646 0)
(0.492427 0.0891482 0)
(0.460984 0.0960077 0)
(0.42783 0.103096 0)
(0.393313 0.106986 0)
(0.358697 0.109318 0)
(0.324083 0.112118 0)
(0.288851 0.11547 0)
(0.252796 0.120419 0)
(0.21612 0.125026 0)
(0.17965 0.13092 0)
(0.142651 0.135582 0)
(0.105312 0.146961 0)
(0.0635081 0.15838 0)
(0.0223539 0.158183 0)
(3 -4.97736e-15 0)
(3 -5.00206e-15 0)
(3 2.58487e-14 0)
(3 3.78913e-14 0)
(3 4.68915e-14 0)
(3 3.78521e-14 0)
(3 5.06246e-15 0)
(3 -1.76235e-14 0)
(3 -1.63646e-14 0)
(3 1.09636e-14 0)
(3 2.04024e-14 0)
(3 -8.50243e-15 0)
(3 -1.03261e-13 0)
(3 -5.62087e-14 0)
(3 -2.09772e-15 0)
(3 -1.52948e-14 0)
(3 -8.54056e-14 0)
(3 -6.31797e-14 0)
(3 -4.1704e-14 0)
(3 -1.38091e-14 0)
(3 -1.43017e-14 0)
(3 -4.97289e-14 0)
(3 -7.01284e-14 0)
(3 -1.06588e-13 0)
(2.94365 0.0372303 0)
(1.03268 0.131428 0)
(0.731645 0.124284 0)
(0.703921 0.119164 0)
(0.678146 0.11506 0)
(0.652124 0.110508 0)
(0.624602 0.108507 0)
(0.595258 0.109919 0)
(0.563621 0.112908 0)
(0.530196 0.115524 0)
(0.496279 0.119852 0)
(0.462905 0.127876 0)
(0.429507 0.136118 0)
(0.39566 0.140526 0)
(0.36175 0.143275 0)
(0.327234 0.146794 0)
(0.291373 0.150958 0)
(0.254128 0.15707 0)
(0.215652 0.16234 0)
(0.177126 0.169311 0)
(0.137503 0.173864 0)
(0.100043 0.187219 0)
(0.0599048 0.198496 0)
(0.0303841 0.200448 0)
(3 1.39925e-15 0)
(3 -1.82044e-14 0)
(3 -2.30651e-14 0)
(3 -1.93229e-14 0)
(3 7.86553e-15 0)
(3 1.10378e-14 0)
(3 3.05552e-14 0)
(3 4.86337e-14 0)
(3 6.49437e-15 0)
(3 1.6776e-14 0)
(3 2.17386e-14 0)
(3 2.06372e-14 0)
(3 -6.16956e-15 0)
(3 2.64326e-14 0)
(3 1.15361e-14 0)
(3 -4.85378e-14 0)
(3 -6.62091e-14 0)
(3 -7.69772e-14 0)
(3 -1.05667e-13 0)
(3 -1.28751e-13 0)
(3 -1.05651e-13 0)
(3 -5.30101e-14 0)
(3 -5.1037e-14 0)
(3 -4.42264e-14 0)
(2.98819 0.0113869 0)
(1.07572 0.163993 0)
(0.748979 0.141827 0)
(0.722037 0.136388 0)
(0.695363 0.135423 0)
(0.666023 0.134895 0)
(0.633522 0.136395 0)
(0.598946 0.140225 0)
(0.563908 0.144486 0)
(0.529843 0.147032 0)
(0.497374 0.150774 0)
(0.466387 0.158798 0)
(0.435292 0.167644 0)
(0.402719 0.17286 0)
(0.368759 0.176887 0)
(0.333058 0.182146 0)
(0.295392 0.187947 0)
(0.256383 0.195702 0)
(0.216226 0.201696 0)
(0.176275 0.209851 0)
(0.134838 0.214017 0)
(0.0964458 0.227962 0)
(0.0561606 0.23564 0)
(0.0384679 0.241575 0)
(3 4.37498e-15 0)
(3 6.42223e-15 0)
(3 -1.1447e-14 0)
(3 -2.5447e-14 0)
(3 -1.63678e-14 0)
(3 -1.02566e-14 0)
(3 1.05162e-14 0)
(3 3.85191e-14 0)
(3 5.3638e-14 0)
(3 4.86182e-14 0)
(3 2.20155e-14 0)
(3 4.86272e-14 0)
(3 4.24959e-14 0)
(3 -8.16164e-15 0)
(3 -3.27989e-14 0)
(3 -5.37173e-14 0)
(3 -1.11747e-14 0)
(3 -4.06296e-14 0)
(3 -5.44669e-14 0)
(3 -6.01743e-14 0)
(3 -4.41394e-14 0)
(3 2.3946e-15 0)
(3 5.66675e-14 0)
(3 6.71645e-14 0)
(3.00102 0.00107538 0)
(1.15373 0.182961 0)
(0.755696 0.164464 0)
(0.721118 0.162228 0)
(0.691331 0.162284 0)
(0.660283 0.162638 0)
(0.628581 0.165661 0)
(0.596581 0.170687 0)
(0.56443 0.175202 0)
(0.532502 0.176948 0)
(0.500952 0.179954 0)
(0.469967 0.188454 0)
(0.438455 0.198928 0)
(0.405068 0.206009 0)
(0.370322 0.211924 0)
(0.334175 0.219175 0)
(0.296458 0.226613 0)
(0.257835 0.235847 0)
(0.21784 0.242188 0)
(0.177991 0.251213 0)
(0.136342 0.254996 0)
(0.0986574 0.269443 0)
(0.0578098 0.273394 0)
(0.0402068 0.282069 0)
(3 5.62443e-15 0)
(3 8.95231e-15 0)
(3 8.91268e-15 0)
(3 2.08583e-14 0)
(3 1.42218e-14 0)
(3 -1.33286e-14 0)
(3 -5.90589e-14 0)
(3 -1.14376e-13 0)
(3 -6.39403e-14 0)
(3 1.20964e-14 0)
(3 1.41611e-14 0)
(3 2.14286e-14 0)
(3 4.44574e-14 0)
(3 4.86497e-14 0)
(3 5.09985e-14 0)
(3 2.47559e-14 0)
(3 1.1748e-14 0)
(3 1.04528e-14 0)
(3 1.1437e-14 0)
(3 2.94714e-14 0)
(3 2.13434e-14 0)
(3 1.76736e-14 0)
(3 4.7906e-14 0)
(3 4.46285e-14 0)
(3.00002 3.17205e-06 0)
(1.27281 0.212228 0)
(0.763057 0.188824 0)
(0.721797 0.186874 0)
(0.691896 0.187763 0)
(0.660155 0.189232 0)
(0.628514 0.193381 0)
(0.596951 0.199456 0)
(0.565291 0.204821 0)
(0.533668 0.206813 0)
(0.502365 0.209816 0)
(0.471996 0.218986 0)
(0.441772 0.231017 0)
(0.409737 0.239784 0)
(0.376285 0.247295 0)
(0.341443 0.256289 0)
(0.30491 0.265148 0)
(0.267543 0.275699 0)
(0.228348 0.282432 0)
(0.188829 0.292621 0)
(0.1465 0.297135 0)
(0.106927 0.313157 0)
(0.062284 0.31556 0)
(0.0400902 0.323848 0)
(3 -1.41294e-14 0)
(3 -1.44217e-14 0)
(3 -2.94949e-14 0)
(3 -2.43651e-14 0)
(3 -2.71661e-14 0)
(3 -4.1187e-14 0)
(3 -7.98129e-14 0)
(3 -7.70983e-14 0)
(3 -4.03521e-14 0)
(3 -2.76564e-14 0)
(3 -5.39124e-14 0)
(3 -9.15871e-14 0)
(3 3.404e-14 0)
(3 8.87918e-14 0)
(3 9.3211e-14 0)
(3 5.53418e-14 0)
(3 -1.03239e-15 0)
(3 1.75222e-14 0)
(3 2.1646e-14 0)
(3 1.24769e-14 0)
(3 -2.70524e-14 0)
(3 -1.7824e-14 0)
(3 -6.55468e-14 0)
(3 -7.33493e-14 0)
(3 8.70446e-10 0)
(1.44221 0.239705 0)
(0.778976 0.216106 0)
(0.726679 0.213794 0)
(0.695712 0.214502 0)
(0.663055 0.216181 0)
(0.631842 0.220748 0)
(0.601778 0.22746 0)
(0.572185 0.233451 0)
(0.542509 0.235561 0)
(0.512781 0.23815 0)
(0.483791 0.247403 0)
(0.455187 0.260611 0)
(0.424629 0.271094 0)
(0.392495 0.280231 0)
(0.35896 0.290991 0)
(0.323274 0.301345 0)
(0.286424 0.313598 0)
(0.246931 0.321663 0)
(0.207074 0.334006 0)
(0.16367 0.340194 0)
(0.122726 0.358241 0)
(0.0723794 0.365347 0)
(0.0244485 0.367722 0)
(3 4.81812e-15 0)
(3 5.8028e-15 0)
(3 1.95955e-15 0)
(3 -3.4985e-14 0)
(3 -2.54309e-14 0)
(3 -2.98699e-14 0)
(3 -3.76958e-14 0)
(3 -1.25542e-14 0)
(3 -4.00293e-14 0)
(3 -1.05173e-13 0)
(3 -1.13155e-13 0)
(3 -5.01694e-14 0)
(3 -2.4152e-14 0)
(3 6.62536e-14 0)
(3 5.36243e-14 0)
(3 1.49176e-14 0)
(3 -2.01152e-14 0)
(3 3.90873e-14 0)
(3 4.38942e-14 0)
(3 3.25191e-14 0)
(3 -1.20487e-14 0)
(3 -6.77123e-14 0)
(3 -7.06769e-14 0)
(3 -4.6727e-15 0)
(3 -1.03444e-10 0)
(1.66553 0.261479 0)
(0.801926 0.24636 0)
(0.734822 0.242069 0)
(0.702019 0.242463 0)
(0.666529 0.244218 0)
(0.632992 0.248245 0)
(0.601935 0.254313 0)
(0.573117 0.260448 0)
(0.545068 0.26306 0)
(0.517214 0.265599 0)
(0.490221 0.275075 0)
(0.463934 0.289623 0)
(0.435386 0.302178 0)
(0.404819 0.313238 0)
(0.372726 0.326165 0)
(0.337839 0.338597 0)
(0.301533 0.353437 0)
(0.261705 0.364086 0)
(0.220847 0.379111 0)
(0.175438 0.38681 0)
(0.13002 0.406148 0)
(0.0790226 0.42222 0)
(0.0188835 0.421784 0)
(3 5.23439e-15 0)
(3 2.86834e-14 0)
(3 1.59249e-14 0)
(3 2.89665e-14 0)
(3 2.50378e-14 0)
(3 1.53589e-14 0)
(3 -1.00392e-14 0)
(3 -2.77244e-14 0)
(3 -7.84683e-14 0)
(3 -1.27307e-13 0)
(3 -9.70768e-14 0)
(3 2.07224e-14 0)
(3 -3.12789e-14 0)
(3 -1.64698e-14 0)
(3 -6.79131e-15 0)
(3 -2.35241e-14 0)
(3 -5.99372e-16 0)
(3 1.9781e-14 0)
(3 2.31217e-14 0)
(3 3.87493e-14 0)
(3 4.14437e-14 0)
(3 -4.72718e-14 0)
(3 -8.92654e-14 0)
(3 -7.74961e-14 0)
(3 -9.42399e-11 0)
(1.93699 0.277607 0)
(0.826605 0.284676 0)
(0.732976 0.273193 0)
(0.700942 0.272224 0)
(0.667654 0.274641 0)
(0.636683 0.278302 0)
(0.607227 0.28294 0)
(0.579546 0.288073 0)
(0.552158 0.290469 0)
(0.524471 0.292392 0)
(0.497448 0.30153 0)
(0.471762 0.317175 0)
(0.444211 0.331945 0)
(0.41474 0.344982 0)
(0.384395 0.360181 0)
(0.351189 0.374881 0)
(0.316815 0.39263 0)
(0.277946 0.40666 0)
(0.237197 0.424862 0)
(0.190214 0.435569 0)
(0.140689 0.458947 0)
(0.0868434 0.482413 0)
(0.024812 0.481567 0)
(3 5.60236e-15 0)
(3 3.36484e-15 0)
(3 6.50008e-17 0)
(3 1.25985e-14 0)
(3 -6.36351e-15 0)
(3 2.44298e-14 0)
(3 2.69741e-14 0)
(3 -1.98433e-14 0)
(3 -1.94667e-14 0)
(3 -2.3256e-14 0)
(3 -1.18839e-14 0)
(3 4.68429e-15 0)
(3 -2.59358e-14 0)
(3 -5.26645e-14 0)
(3 -2.01192e-14 0)
(3 -5.4404e-15 0)
(3 3.11882e-14 0)
(3 4.24699e-14 0)
(3 8.51206e-15 0)
(3 -6.76177e-14 0)
(3 -1.00159e-13 0)
(3 -1.05361e-13 0)
(3 -1.12483e-13 0)
(3 -1.25543e-13 0)
(3 -2.26606e-11 0)
(2.2691 0.287242 0)
(0.872776 0.333664 0)
(0.748265 0.306023 0)
(0.721957 0.302508 0)
(0.692053 0.30369 0)
(0.662605 0.306447 0)
(0.632488 0.30998 0)
(0.602705 0.31503 0)
(0.572406 0.318707 0)
(0.54156 0.320894 0)
(0.511565 0.329455 0)
(0.484101 0.345541 0)
(0.456069 0.361908 0)
(0.426579 0.376267 0)
(0.397355 0.393361 0)
(0.365576 0.410404 0)
(0.332831 0.431606 0)
(0.293875 0.450629 0)
(0.251516 0.474384 0)
(0.199751 0.490824 0)
(0.146957 0.521508 0)
(0.0882733 0.545602 0)
(0.0431786 0.546788 0)
(3 6.74899e-15 0)
(3 -2.5566e-14 0)
(3 -1.84854e-14 0)
(3 -1.56656e-14 0)
(3 -1.0522e-14 0)
(3 -2.5323e-15 0)
(3 7.283e-15 0)
(3 -5.74996e-15 0)
(3 4.28559e-14 0)
(3 3.11917e-14 0)
(3 6.85008e-15 0)
(3 -9.04068e-14 0)
(3 -5.53404e-14 0)
(3 -7.20652e-14 0)
(3 -7.07158e-14 0)
(3 -3.02159e-14 0)
(3 -5.64963e-14 0)
(3 -7.80671e-14 0)
(3 -7.86884e-14 0)
(3 -1.32303e-13 0)
(3 -1.45795e-13 0)
(3 -1.21701e-13 0)
(3 -1.25229e-13 0)
(3 -9.46965e-14 0)
(3 -1.21553e-12 0)
(2.69748 0.24209 0)
(0.974588 0.373869 0)
(0.798223 0.318367 0)
(0.773857 0.314476 0)
(0.741447 0.321291 0)
(0.709383 0.328844 0)
(0.675351 0.336824 0)
(0.640871 0.344798 0)
(0.605825 0.350693 0)
(0.570487 0.353314 0)
(0.536219 0.360272 0)
(0.505521 0.375693 0)
(0.475785 0.392992 0)
(0.44493 0.408098 0)
(0.415382 0.426737 0)
(0.383825 0.446254 0)
(0.351306 0.47145 0)
(0.313413 0.496358 0)
(0.272508 0.527199 0)
(0.220644 0.550745 0)
(0.168014 0.589791 0)
(0.100909 0.611761 0)
(0.0672971 0.620869 0)
(3 -9.71839e-15 0)
(3 -7.88684e-15 0)
(3 -9.74449e-15 0)
(3 4.06672e-15 0)
(3 6.88164e-14 0)
(3 8.42122e-14 0)
(3 7.75905e-14 0)
(3 8.96884e-14 0)
(3 4.8131e-14 0)
(3 6.72289e-16 0)
(3 -3.05833e-14 0)
(3 -9.49926e-14 0)
(3 -1.02434e-13 0)
(3 -9.66901e-14 0)
(3 -1.23481e-13 0)
(3 -1.0016e-13 0)
(3 -9.12063e-14 0)
(3 -8.56957e-14 0)
(3 -1.6322e-14 0)
(3 -1.74764e-14 0)
(3 2.55032e-14 0)
(3 1.00045e-14 0)
(3 2.11263e-14 0)
(3 7.02239e-14 0)
(3 3.35585e-14 0)
(3.01471 0.055223 0)
(1.12138 0.370597 0)
(0.834679 0.340027 0)
(0.812498 0.344368 0)
(0.780537 0.352168 0)
(0.749344 0.358748 0)
(0.717077 0.366792 0)
(0.68282 0.376749 0)
(0.646607 0.385383 0)
(0.609178 0.389311 0)
(0.571622 0.394555 0)
(0.537605 0.408306 0)
(0.505716 0.425756 0)
(0.472921 0.441159 0)
(0.442007 0.461159 0)
(0.409453 0.482842 0)
(0.378133 0.511462 0)
(0.341398 0.541604 0)
(0.302429 0.580085 0)
(0.24844 0.615041 0)
(0.191821 0.6692 0)
(0.11403 0.698272 0)
(0.069549 0.716804 0)
(3 -2.90569e-15 0)
(3 1.87967e-14 0)
(3 5.82521e-14 0)
(3 5.73201e-14 0)
(3 5.94232e-14 0)
(3 1.06392e-13 0)
(3 1.13742e-13 0)
(3 8.72572e-14 0)
(3 4.00059e-14 0)
(3 -1.97146e-14 0)
(3 -3.04615e-14 0)
(3 -2.228e-14 0)
(3 -9.18434e-14 0)
(3 -8.60141e-14 0)
(3 -1.10239e-13 0)
(3 -1.01157e-13 0)
(3 -1.96873e-14 0)
(3 3.03307e-14 0)
(3 4.42675e-14 0)
(3 1.44478e-14 0)
(3 -4.76413e-14 0)
(3 -4.92766e-14 0)
(3 -1.5911e-14 0)
(3 5.72506e-14 0)
(3 1.41948e-13 0)
(3.0107 0.00234697 0)
(1.24434 0.353656 0)
(0.82856 0.363613 0)
(0.804783 0.381836 0)
(0.775362 0.385757 0)
(0.74988 0.389638 0)
(0.727176 0.398069 0)
(0.704847 0.409042 0)
(0.678172 0.419487 0)
(0.646183 0.425915 0)
(0.610524 0.430776 0)
(0.576371 0.442908 0)
(0.543612 0.460521 0)
(0.509308 0.476637 0)
(0.476779 0.497949 0)
(0.443288 0.521134 0)
(0.412213 0.552764 0)
(0.376306 0.588465 0)
(0.340617 0.636568 0)
(0.291888 0.685041 0)
(0.245469 0.753306 0)
(0.164919 0.797499 0)
(0.109687 0.830504 0)
(3 1.57306e-14 0)
(3 3.67165e-14 0)
(3 5.23699e-14 0)
(3 4.80844e-14 0)
(3 -2.43824e-15 0)
(3 -1.5345e-15 0)
(3 2.71958e-14 0)
(3 2.88267e-14 0)
(3 -9.05579e-15 0)
(3 -1.7196e-14 0)
(3 -4.922e-14 0)
(3 -7.17489e-14 0)
(3 -6.14052e-14 0)
(3 -8.05879e-14 0)
(3 -9.57411e-14 0)
(3 -8.50387e-14 0)
(3 -3.87067e-14 0)
(3 1.03392e-14 0)
(3 2.12781e-15 0)
(3 2.89529e-14 0)
(3 3.81946e-14 0)
(3 4.67955e-14 0)
(3 4.36941e-14 0)
(3 4.97907e-14 0)
(3 6.83613e-14 0)
(3.00012 2.36722e-07 0)
(1.4723 0.374774 0)
(0.817037 0.380515 0)
(0.776798 0.389709 0)
(0.756065 0.396269 0)
(0.736603 0.401984 0)
(0.719598 0.413141 0)
(0.703678 0.429105 0)
(0.687594 0.446296 0)
(0.666125 0.458477 0)
(0.639152 0.46587 0)
(0.611077 0.478112 0)
(0.582239 0.496574 0)
(0.550163 0.514006 0)
(0.518806 0.536535 0)
(0.485492 0.560595 0)
(0.455752 0.594629 0)
(0.422644 0.634297 0)
(0.395198 0.688622 0)
(0.353311 0.746419 0)
(0.313281 0.843864 0)
(0.206716 0.953421 0)
(0.161368 1.04783 0)
(3 6.18069e-15 0)
(3 -6.03183e-15 0)
(3 -3.69158e-14 0)
(3 -6.05641e-14 0)
(3 -6.97427e-14 0)
(3 -5.86951e-14 0)
(3 -8.0472e-14 0)
(3 -9.28379e-14 0)
(3 -9.75089e-14 0)
(3 -1.34286e-13 0)
(3 -9.49302e-14 0)
(3 -3.23623e-14 0)
(3 2.39277e-14 0)
(3 -5.78735e-15 0)
(3 -4.46232e-14 0)
(3 -5.55579e-14 0)
(3 -5.37044e-14 0)
(3 -4.32295e-14 0)
(3 -5.22665e-15 0)
(3 1.14897e-14 0)
(3 5.40029e-14 0)
(3 7.36485e-14 0)
(3 6.83812e-14 0)
(3 9.93406e-14 0)
(3 1.08076e-13 0)
(3 -6.10638e-09 0)
(1.84764 0.421494 0)
(0.841591 0.438993 0)
(0.769898 0.409882 0)
(0.754179 0.413931 0)
(0.73676 0.420233 0)
(0.719973 0.430634 0)
(0.705131 0.445981 0)
(0.69253 0.464343 0)
(0.678664 0.481032 0)
(0.659314 0.492856 0)
(0.638972 0.50735 0)
(0.617325 0.528198 0)
(0.591235 0.548976 0)
(0.564242 0.574448 0)
(0.533702 0.600427 0)
(0.507426 0.636813 0)
(0.478007 0.678079 0)
(0.459001 0.738445 0)
(0.425131 0.818106 0)
(0.409648 0.952014 0)
(0.396517 1.10279 0)
(0.544613 1.35081 0)
(3 -9.28946e-15 0)
(3 -4.62274e-14 0)
(3 -7.08525e-14 0)
(3 -7.3537e-14 0)
(3 -5.65134e-14 0)
(3 -8.53984e-14 0)
(3 -1.17353e-13 0)
(3 -8.62621e-14 0)
(3 -4.15248e-14 0)
(3 -2.15114e-14 0)
(3 3.50167e-14 0)
(3 6.08536e-14 0)
(3 4.22971e-14 0)
(3 3.44406e-14 0)
(3 1.78315e-14 0)
(3 4.53335e-14 0)
(3 7.01717e-14 0)
(3 8.34814e-14 0)
(3 4.5086e-14 0)
(3 2.82927e-14 0)
(3 4.25306e-14 0)
(3 8.14411e-14 0)
(3 8.70501e-14 0)
(3 1.13529e-13 0)
(3 7.61666e-14 0)
(3 -3.577e-09 0)
(2.44752 0.390308 0)
(0.947476 0.497806 0)
(0.818972 0.43322 0)
(0.791212 0.430509 0)
(0.76386 0.43804 0)
(0.739725 0.449203 0)
(0.719928 0.464274 0)
(0.704583 0.482483 0)
(0.691667 0.500637 0)
(0.675882 0.515833 0)
(0.660502 0.532373 0)
(0.645912 0.555393 0)
(0.627763 0.580154 0)
(0.608546 0.609525 0)
(0.584559 0.638292 0)
(0.565044 0.676819 0)
(0.542097 0.719384 0)
(0.532044 0.78364 0)
(0.523749 0.876165 0)
(0.539267 1.01494 0)
(0.62818 1.16503 0)
(0.946235 1.35774 0)
(3 6.97039e-15 0)
(3 2.15145e-15 0)
(3 1.72017e-15 0)
(3 8.84075e-15 0)
(3 3.80558e-14 0)
(3 1.58656e-14 0)
(3 1.60074e-14 0)
(3 4.1137e-14 0)
(3 4.33249e-14 0)
(3 6.71679e-14 0)
(3 1.01023e-13 0)
(3 1.10731e-13 0)
(3 7.35051e-14 0)
(3 1.26663e-13 0)
(3 1.10975e-13 0)
(3 1.39223e-13 0)
(3 1.63709e-13 0)
(3 9.90799e-14 0)
(3 5.03577e-14 0)
(3 2.03778e-14 0)
(3 -4.186e-14 0)
(3 1.84991e-14 0)
(3 4.16915e-14 0)
(3 5.03857e-14 0)
(3 6.12111e-15 0)
(3 -6.19795e-10 0)
(3.04256 0.0973133 0)
(1.17512 0.485918 0)
(0.888688 0.463984 0)
(0.855551 0.461732 0)
(0.815377 0.466015 0)
(0.779668 0.472041 0)
(0.750571 0.483499 0)
(0.729186 0.500342 0)
(0.712963 0.518612 0)
(0.697862 0.535299 0)
(0.683954 0.552165 0)
(0.67349 0.575827 0)
(0.661286 0.60359 0)
(0.650875 0.637078 0)
(0.635059 0.670615 0)
(0.624624 0.712444 0)
(0.611702 0.757526 0)
(0.612273 0.821359 0)
(0.627512 0.911836 0)
(0.67665 1.03253 0)
(0.828725 1.16963 0)
(1.15601 1.28949 0)
(3 3.49115e-16 0)
(3 1.06711e-14 0)
(3 5.16399e-14 0)
(3 5.84222e-14 0)
(3 9.41534e-14 0)
(3 1.26231e-13 0)
(3 8.56372e-14 0)
(3 7.32993e-14 0)
(3 7.77617e-14 0)
(3 7.20115e-14 0)
(3 3.04321e-14 0)
(3 -4.41076e-15 0)
(3 1.7352e-14 0)
(3 3.86033e-14 0)
(3 7.97351e-14 0)
(3 1.07441e-13 0)
(3 8.15866e-16 0)
(3 -4.98947e-14 0)
(3 -1.53196e-14 0)
(3 -1.86635e-14 0)
(3 1.38501e-15 0)
(3 -1.74892e-14 0)
(3 -2.38114e-14 0)
(3 -6.40908e-14 0)
(3 -1.73047e-14 0)
(3 -7.25405e-11 0)
(3.0213 0.00218558 0)
(1.3485 0.458172 0)
(0.892763 0.508736 0)
(0.858938 0.506876 0)
(0.826761 0.5062 0)
(0.798051 0.506289 0)
(0.772293 0.512965 0)
(0.751134 0.526207 0)
(0.733592 0.542307 0)
(0.71936 0.55841 0)
(0.70643 0.573721 0)
(0.698915 0.596093 0)
(0.69124 0.624223 0)
(0.688577 0.659608 0)
(0.682077 0.697244 0)
(0.682361 0.74139 0)
(0.682067 0.788554 0)
(0.695367 0.848677 0)
(0.726215 0.930806 0)
(0.804317 1.0342 0)
(0.976958 1.14246 0)
(1.25195 1.21482 0)
(3 -7.89175e-15 0)
(3 5.2355e-15 0)
(3 1.19185e-14 0)
(3 -2.27489e-15 0)
(3 -1.79906e-15 0)
(3 -2.822e-14 0)
(3 -3.19133e-14 0)
(3 -2.67634e-14 0)
(3 2.36042e-14 0)
(3 1.65575e-14 0)
(3 1.64239e-14 0)
(3 -5.12021e-14 0)
(3 -5.43883e-14 0)
(3 -2.22888e-14 0)
(3 4.2675e-15 0)
(3 1.94145e-14 0)
(3 -4.20276e-14 0)
(3 -6.34388e-14 0)
(3 -5.71649e-14 0)
(3 -7.94632e-14 0)
(3 -3.52745e-14 0)
(3 -6.32784e-14 0)
(3 -5.19028e-14 0)
(3 -5.95858e-14 0)
(3 -3.03219e-14 0)
(3 -4.78805e-12 0)
(3.00027 -6.61507e-06 0)
(1.70622 0.478409 0)
(0.881249 0.526409 0)
(0.846573 0.525684 0)
(0.832058 0.53008 0)
(0.814255 0.530831 0)
(0.795279 0.535489 0)
(0.777488 0.547307 0)
(0.761245 0.562188 0)
(0.748114 0.578043 0)
(0.735163 0.591618 0)
(0.728365 0.612177 0)
(0.722983 0.639117 0)
(0.724632 0.674526 0)
(0.725843 0.715227 0)
(0.73563 0.761697 0)
(0.748322 0.811279 0)
(0.774176 0.867652 0)
(0.818076 0.938604 0)
(0.91222 1.0236 0)
(1.07552 1.10069 0)
(1.31143 1.14571 0)
(3 1.74799e-15 0)
(3 4.24717e-14 0)
(3 3.08449e-14 0)
(3 9.04576e-15 0)
(3 -2.07726e-14 0)
(3 -4.34375e-14 0)
(3 -5.20707e-14 0)
(3 -4.20405e-14 0)
(3 -8.42434e-17 0)
(3 9.6692e-16 0)
(3 2.02949e-14 0)
(3 8.08725e-15 0)
(3 -2.72004e-14 0)
(3 -3.13119e-14 0)
(3 -1.60381e-14 0)
(3 -2.83096e-14 0)
(3 4.31447e-14 0)
(3 4.49534e-14 0)
(3 -9.4352e-15 0)
(3 2.23795e-16 0)
(3 -2.68188e-14 0)
(3 -4.83687e-14 0)
(3 -5.25513e-14 0)
(3 -7.55108e-14 0)
(3 -6.28123e-14 0)
(3 -1.17831e-13 0)
(3.00001 -5.94326e-06 0)
(2.39154 0.442063 0)
(0.978325 0.58365 0)
(0.873512 0.529542 0)
(0.861713 0.53873 0)
(0.843033 0.547462 0)
(0.823951 0.554918 0)
(0.807334 0.568484 0)
(0.791817 0.584125 0)
(0.779552 0.600964 0)
(0.766816 0.613579 0)
(0.759792 0.631954 0)
(0.7559 0.656164 0)
(0.759965 0.688689 0)
(0.766863 0.728302 0)
(0.783607 0.774154 0)
(0.807057 0.824196 0)
(0.843496 0.87776 0)
(0.899379 0.938736 0)
(0.99849 1.00563 0)
(1.14383 1.05828 0)
(1.33734 1.08545 0)
(3 3.91781e-15 0)
(3 -8.89089e-15 0)
(3 -9.17454e-15 0)
(3 -1.40556e-14 0)
(3 -4.15203e-14 0)
(3 -5.37734e-15 0)
(3 6.10556e-16 0)
(3 3.44988e-14 0)
(3 3.01118e-14 0)
(3 4.66272e-14 0)
(3 2.09559e-14 0)
(3 7.62253e-15 0)
(3 4.01128e-14 0)
(3 6.78772e-14 0)
(3 6.81703e-14 0)
(3 4.00179e-14 0)
(3 5.0772e-14 0)
(3 2.8676e-14 0)
(3 -3.69525e-14 0)
(3 -3.86812e-14 0)
(3 -5.9716e-14 0)
(3 -7.46535e-14 0)
(3 -7.8681e-14 0)
(3 -7.21513e-14 0)
(3 -4.82825e-14 0)
(3 8.35306e-15 0)
(3 -1.22762e-06 0)
(3.07279 0.0960689 0)
(1.23213 0.56631 0)
(0.935505 0.548822 0)
(0.908448 0.563634 0)
(0.883701 0.569259 0)
(0.859626 0.574586 0)
(0.841359 0.587705 0)
(0.82573 0.603067 0)
(0.814459 0.62059 0)
(0.803013 0.633166 0)
(0.795939 0.649552 0)
(0.792459 0.670758 0)
(0.796998 0.699961 0)
(0.806899 0.736684 0)
(0.827536 0.779787 0)
(0.857519 0.828037 0)
(0.901853 0.878931 0)
(0.966759 0.933086 0)
(1.06618 0.98583 0)
(1.1938 1.02347 0)
(1.35457 1.03981 0)
(3 -1.44416e-15 0)
(3 -1.43776e-14 0)
(3 -2.26086e-14 0)
(3 -3.1504e-14 0)
(3 -6.83203e-14 0)
(3 -7.80558e-14 0)
(3 -2.34764e-14 0)
(3 3.36464e-14 0)
(3 4.42052e-14 0)
(3 6.32698e-14 0)
(3 4.06493e-14 0)
(3 4.95706e-14 0)
(3 5.402e-14 0)
(3 5.45592e-14 0)
(3 7.01372e-14 0)
(3 6.89991e-14 0)
(3 -4.58833e-15 0)
(3 -1.4372e-15 0)
(3 4.80951e-14 0)
(3 4.58562e-14 0)
(3 4.79571e-14 0)
(3 -4.99352e-14 0)
(3 -1.21613e-13 0)
(3 -1.03261e-13 0)
(3 -5.91881e-14 0)
(3 -7.65747e-16 0)
(3 -1.10031e-07 0)
(3.0196 0.00114599 0)
(1.45503 0.549511 0)
(0.931596 0.610727 0)
(0.907396 0.596924 0)
(0.89226 0.600762 0)
(0.87706 0.603055 0)
(0.864617 0.612962 0)
(0.852939 0.625818 0)
(0.845367 0.642276 0)
(0.837428 0.655285 0)
(0.832412 0.670584 0)
(0.830229 0.688719 0)
(0.8352 0.713896 0)
(0.84699 0.745762 0)
(0.869599 0.783266 0)
(0.90202 0.826377 0)
(0.949825 0.872022 0)
(1.01811 0.919627 0)
(1.11461 0.962289 0)
(1.22702 0.990905 0)
(1.36698 1.00281 0)
(3 -1.03646e-14 0)
(3 -9.3729e-15 0)
(3 2.12512e-14 0)
(3 4.19007e-14 0)
(3 -9.56713e-15 0)
(3 -8.46227e-14 0)
(3 -7.14026e-14 0)
(3 -2.28348e-14 0)
(3 7.7138e-14 0)
(3 1.32028e-13 0)
(3 1.41925e-13 0)
(3 1.30463e-13 0)
(3 7.19145e-14 0)
(3 2.39588e-14 0)
(3 -6.70594e-15 0)
(3 -1.79062e-14 0)
(3 1.56245e-15 0)
(3 8.0989e-14 0)
(3 1.1538e-13 0)
(3 9.75831e-14 0)
(3 3.93178e-14 0)
(3 -3.986e-14 0)
(3 -6.04989e-14 0)
(3 -3.02722e-14 0)
(3 -4.52568e-14 0)
(3 -6.09531e-14 0)
(3 -2.89024e-09 0)
(3.00021 -5.86407e-06 0)
(2.04517 0.551236 0)
(0.980423 0.642892 0)
(0.924446 0.603596 0)
(0.9186 0.608963 0)
(0.905746 0.617378 0)
(0.894597 0.629292 0)
(0.883626 0.642435 0)
(0.878036 0.658958 0)
(0.87285 0.672928 0)
(0.870307 0.688105 0)
(0.869907 0.704292 0)
(0.87524 0.726033 0)
(0.887759 0.753774 0)
(0.910984 0.786354 0)
(0.944187 0.82414 0)
(0.992734 0.863494 0)
(1.05972 0.904286 0)
(1.14983 0.939025 0)
(1.25276 0.962366 0)
(1.37737 0.97348 0)
(3 -8.11342e-15 0)
(3 -2.78807e-14 0)
(3 -3.90818e-14 0)
(3 -3.39243e-14 0)
(3 -4.877e-15 0)
(3 -7.35334e-15 0)
(3 -3.45248e-14 0)
(3 -4.69775e-14 0)
(3 5.72026e-14 0)
(3 3.91819e-14 0)
(3 6.43098e-14 0)
(3 6.20229e-14 0)
(3 9.05191e-14 0)
(3 6.08364e-14 0)
(3 4.09368e-15 0)
(3 -2.90301e-14 0)
(3 3.04168e-14 0)
(3 7.47867e-14 0)
(3 1.10223e-13 0)
(3 9.65047e-14 0)
(3 4.52365e-14 0)
(3 1.7487e-14 0)
(3 -1.04428e-15 0)
(3 -1.62449e-14 0)
(3 -1.46696e-14 0)
(3 5.30798e-15 0)
(3 -5.90148e-12 0)
(3.00002 -7.51961e-06 0)
(2.91419 0.234644 0)
(1.18617 0.641069 0)
(0.977606 0.610782 0)
(0.962638 0.625608 0)
(0.945402 0.635103 0)
(0.930522 0.647464 0)
(0.917463 0.659996 0)
(0.91121 0.676009 0)
(0.907199 0.690296 0)
(0.906599 0.70561 0)
(0.90841 0.720861 0)
(0.9151 0.739874 0)
(0.928622 0.763049 0)
(0.951736 0.790146 0)
(0.985007 0.82147 0)
(1.03204 0.853531 0)
(1.09476 0.887794 0)
(1.17431 0.914862 0)
(1.2668 0.933259 0)
(1.37693 0.943676 0)
(3 1.09875e-14 0)
(3 7.27111e-15 0)
(3 -2.985e-14 0)
(3 -4.96522e-14 0)
(3 1.92371e-14 0)
(3 6.22597e-14 0)
(3 4.46375e-14 0)
(3 -2.05538e-14 0)
(3 -9.04275e-15 0)
(3 9.98246e-15 0)
(3 2.25525e-14 0)
(3 6.25242e-14 0)
(3 5.71913e-14 0)
(3 -2.11746e-14 0)
(3 1.31978e-15 0)
(3 2.96807e-14 0)
(3 3.14417e-15 0)
(3 -4.7887e-14 0)
(3 -5.47903e-14 0)
(3 -7.46477e-14 0)
(3 8.34339e-15 0)
(3 7.81916e-14 0)
(3 7.76519e-14 0)
(3 2.8292e-14 0)
(3 -5.6991e-15 0)
(3 1.29184e-14 0)
(3 -1.4425e-14 0)
(3 -1.56509e-06 0)
(3.05133 0.0103318 0)
(1.43036 0.609917 0)
(0.990413 0.664063 0)
(0.966672 0.654785 0)
(0.954971 0.662705 0)
(0.948161 0.67386 0)
(0.94179 0.68371 0)
(0.938702 0.696495 0)
(0.937799 0.708525 0)
(0.940043 0.721935 0)
(0.944831 0.735753 0)
(0.953752 0.7519 0)
(0.968613 0.772 0)
(0.991725 0.795538 0)
(1.02536 0.822482 0)
(1.0707 0.849058 0)
(1.12903 0.876468 0)
(1.19887 0.896919 0)
(1.28274 0.912255 0)
(1.37879 0.921244 0)
(3 1.22041e-14 0)
(3 5.24594e-14 0)
(3 5.57439e-14 0)
(3 9.84112e-15 0)
(3 -2.57913e-14 0)
(3 -5.47897e-15 0)
(3 1.72287e-14 0)
(3 -4.15508e-15 0)
(3 -4.36055e-14 0)
(3 3.82427e-14 0)
(3 1.16138e-14 0)
(3 1.81796e-14 0)
(3 -1.28546e-14 0)
(3 3.79116e-14 0)
(3 5.69288e-14 0)
(3 4.20409e-14 0)
(3 -1.35087e-14 0)
(3 -7.86141e-14 0)
(3 -1.38231e-13 0)
(3 -1.42052e-13 0)
(3 -9.20757e-14 0)
(3 -5.66032e-14 0)
(3 3.55381e-14 0)
(3 8.85489e-14 0)
(3 1.14559e-13 0)
(3 -4.95442e-14 0)
(3 -1.22789e-13 0)
(3 -1.302e-07 0)
(3.00124 9.48426e-06 0)
(2.02513 0.593439 0)
(1.03494 0.70531 0)
(0.984767 0.66604 0)
(0.981174 0.670132 0)
(0.97725 0.683448 0)
(0.972517 0.696553 0)
(0.969791 0.71025 0)
(0.969746 0.721679 0)
(0.973332 0.73431 0)
(0.979712 0.747029 0)
(0.990709 0.762198 0)
(1.00667 0.779492 0)
(1.0304 0.799339 0)
(1.06351 0.821608 0)
(1.10653 0.843863 0)
(1.15944 0.864427 0)
(1.22136 0.879579 0)
(1.2962 0.892306 0)
(1.37863 0.89855 0)
(3 2.35351e-15 0)
(3 7.50519e-15 0)
(3 5.46922e-15 0)
(3 4.4643e-15 0)
(3 -5.33858e-14 0)
(3 -4.699e-14 0)
(3 -1.91776e-14 0)
(3 -1.20279e-14 0)
(3 -4.09492e-14 0)
(3 -6.23759e-14 0)
(3 -5.20592e-14 0)
(3 -6.57092e-14 0)
(3 -3.2132e-14 0)
(3 2.0628e-14 0)
(3 1.26035e-14 0)
(3 3.46522e-14 0)
(3 -2.55359e-15 0)
(3 -5.46993e-14 0)
(3 -5.96694e-14 0)
(3 -3.06123e-14 0)
(3 -3.77256e-14 0)
(3 -2.42005e-14 0)
(3 -3.08937e-14 0)
(3 6.85846e-14 0)
(3 1.04107e-13 0)
(3 5.06727e-14 0)
(3 -2.66024e-14 0)
(3 -1.52874e-09 0)
(3.00001 -1.8518e-06 0)
(2.9527 0.214365 0)
(1.24897 0.680954 0)
(1.03511 0.669064 0)
(1.02728 0.683597 0)
(1.0186 0.699869 0)
(1.00923 0.713005 0)
(1.00338 0.726136 0)
(1.00156 0.736203 0)
(1.0048 0.747788 0)
(1.01217 0.759017 0)
(1.02449 0.772091 0)
(1.04189 0.787751 0)
(1.06641 0.805417 0)
(1.09897 0.824701 0)
(1.13992 0.84355 0)
(1.18832 0.859891 0)
(1.24496 0.872458 0)
(1.31234 0.882285 0)
(1.38514 0.884944 0)
(3 -4.80227e-15 0)
(3 -3.66377e-14 0)
(3 -4.11751e-14 0)
(3 -5.63946e-15 0)
(3 4.84809e-14 0)
(3 2.64411e-14 0)
(3 -9.86687e-15 0)
(3 -2.04779e-14 0)
(3 -1.09322e-13 0)
(3 -1.49262e-13 0)
(3 -8.87432e-14 0)
(3 -2.28134e-14 0)
(3 1.31243e-14 0)
(3 -4.06655e-16 0)
(3 7.5264e-15 0)
(3 -5.55231e-15 0)
(3 -3.23721e-14 0)
(3 -3.1936e-14 0)
(3 -2.62772e-14 0)
(3 -3.31966e-14 0)
(3 -7.68604e-16 0)
(3 1.67124e-14 0)
(3 1.2159e-14 0)
(3 1.61932e-14 0)
(3 -3.73775e-14 0)
(3 -7.10527e-14 0)
(3 1.0241e-14 0)
(3 -2.00103e-12 0)
(3 -1.12398e-06 0)
(3.0419 0.00670522 0)
(1.50567 0.644204 0)
(1.04365 0.723983 0)
(1.03431 0.718771 0)
(1.0277 0.724254 0)
(1.02638 0.733641 0)
(1.02596 0.744487 0)
(1.02769 0.751217 0)
(1.033 0.758793 0)
(1.04244 0.767247 0)
(1.05617 0.778254 0)
(1.07418 0.791406 0)
(1.09864 0.806724 0)
(1.12997 0.822913 0)
(1.1686 0.838775 0)
(1.21334 0.852283 0)
(1.26659 0.862803 0)
(1.32692 0.86997 0)
(1.39346 0.870453 0)
(3 -1.45232e-15 0)
(3 -7.16863e-15 0)
(3 8.44426e-15 0)
(3 9.26471e-15 0)
(3 4.65834e-14 0)
(3 3.52514e-14 0)
(3 1.26189e-14 0)
(3 -9.99323e-15 0)
(3 -3.58116e-14 0)
(3 -8.0727e-14 0)
(3 -1.33902e-13 0)
(3 -8.0601e-14 0)
(3 -4.19946e-14 0)
(3 4.35099e-14 0)
(3 5.81198e-14 0)
(3 2.40777e-14 0)
(3 2.10757e-14 0)
(3 1.05356e-14 0)
(3 -3.35605e-14 0)
(3 -4.35655e-14 0)
(3 7.15682e-16 0)
(3 7.40171e-15 0)
(3 -3.8182e-14 0)
(3 -6.70613e-14 0)
(3 -6.62846e-14 0)
(3 -6.57992e-14 0)
(3 -2.99605e-14 0)
(3 2.34908e-14 0)
(3 -1.3402e-07 0)