/*--------------------------------*- C++ -*----------------------------------*\
  =========                 |
  \\      /  F ield         | OpenFOAM: The Open Source CFD Toolbox
   \\    /   O peration     | Website:  https://openfoam.org
    \\  /    A nd           | Version:  10
     \\/     M anipulation  |
\*---------------------------------------------------------------------------*/
FoamFile
{
    format      ascii;
    class       volScalarField;
    location    "67";
    object      p;
}
// * * * * * * * * * * * * * * * * * * * * * * * * * * * * * * * * * * * * * //

dimensions      [0 2 -2 0 0 0 0];

internalField   nonuniform List<scalar> 
8800
(
0.817209
0.769423
0.730736
0.701745
0.680887
0.666065
0.655481
0.64802
0.643226
0.641206
0.642514
0.646738
0.653408
0.662741
0.675534
0.693277
0.71806
0.752005
0.794558
0.85326
0.648452
0.656132
0.663611
0.666922
0.665423
0.660352
0.653876
0.647815
0.643115
0.640304
0.640066
0.642611
0.64713
0.653098
0.659883
0.666173
0.669821
0.669088
0.663674
0.654987
0.626848
0.633008
0.637138
0.640087
0.642142
0.642756
0.641663
0.639579
0.637593
0.636726
0.637733
0.640152
0.642979
0.64518
0.645801
0.644612
0.642278
0.638891
0.634334
0.630574
0.621024
0.623676
0.626431
0.628838
0.63048
0.631652
0.632409
0.632549
0.632286
0.632282
0.633083
0.634294
0.635165
0.635252
0.634659
0.63358
0.631773
0.629208
0.626809
0.625305
0.615625
0.617051
0.618833
0.62087
0.622662
0.624015
0.625021
0.625845
0.626497
0.627112
0.627819
0.628361
0.628496
0.628235
0.627557
0.626323
0.624638
0.622797
0.621494
0.620662
0.610525
0.611446
0.612691
0.614264
0.615905
0.617443
0.618748
0.619844
0.620851
0.621803
0.622558
0.62294
0.622939
0.62253
0.621673
0.62049
0.619176
0.617925
0.617107
0.616555
0.605589
0.606259
0.607225
0.608534
0.609953
0.611426
0.612888
0.614244
0.615491
0.616667
0.617564
0.617996
0.61796
0.617489
0.61671
0.615784
0.614788
0.613876
0.613295
0.612889
0.60077
0.601286
0.602074
0.603212
0.6045
0.605891
0.607362
0.608872
0.610356
0.611771
0.612866
0.613413
0.613446
0.613106
0.612537
0.611838
0.611084
0.610414
0.609985
0.609667
0.595994
0.596405
0.597065
0.598079
0.599298
0.600644
0.602118
0.603717
0.605402
0.60709
0.60844
0.609187
0.609421
0.609306
0.608965
0.60848
0.607935
0.607459
0.607141
0.606882
0.591175
0.591509
0.592081
0.593017
0.594189
0.595522
0.597035
0.598737
0.600617
0.602603
0.604283
0.605335
0.605855
0.606
0.605893
0.605638
0.60529
0.604975
0.604743
0.604525
0.586223
0.5865
0.587011
0.587902
0.589057
0.590419
0.592008
0.593856
0.595972
0.598305
0.600399
0.601843
0.602705
0.603148
0.603301
0.603276
0.603126
0.602954
0.60279
0.602601
0.581048
0.581281
0.581752
0.582629
0.583808
0.58524
0.58695
0.588998
0.591417
0.594179
0.59678
0.598695
0.599958
0.600744
0.601187
0.601401
0.601453
0.601413
0.601304
0.601136
0.575557
0.575755
0.576207
0.577098
0.578343
0.579889
0.581775
0.584091
0.586894
0.590194
0.593409
0.595884
0.597618
0.598795
0.599564
0.600036
0.600305
0.600391
0.600329
0.600174
0.569646
0.569815
0.570265
0.5712
0.572551
0.574265
0.576393
0.579056
0.582346
0.58631
0.59027
0.593414
0.595702
0.59733
0.598473
0.599255
0.599741
0.599947
0.599927
0.599779
0.563194
0.563339
0.563802
0.564811
0.566315
0.568254
0.570703
0.573809
0.577711
0.582488
0.587348
0.591292
0.594237
0.596399
0.597968
0.59909
0.599824
0.600156
0.600173
0.600029
0.556063
0.556182
0.556673
0.557786
0.559495
0.56173
0.564588
0.568257
0.572918
0.578688
0.584635
0.589533
0.593256
0.596046
0.598119
0.599631
0.600644
0.601107
0.601157
0.601013
0.548058
0.548162
0.548696
0.549949
0.551921
0.55453
0.55791
0.562285
0.567886
0.57487
0.582124
0.588158
0.592798
0.596327
0.599005
0.600977
0.602298
0.602897
0.602979
0.602831
0.538964
0.539063
0.539653
0.541066
0.543369
0.546467
0.550509
0.555768
0.56253
0.570992
0.579815
0.587196
0.592919
0.597316
0.600709
0.603215
0.604889
0.605633
0.605744
0.605587
0.528455
0.528536
0.529215
0.530854
0.533593
0.537314
0.542189
0.548558
0.556759
0.567021
0.577718
0.586685
0.593679
0.5991
0.603305
0.606453
0.608519
0.609413
0.609547
0.609379
0.516154
0.51622
0.517
0.51895
0.522247
0.526767
0.532709
0.540483
0.550474
0.562925
0.575849
0.586671
0.595138
0.601749
0.606908
0.610783
0.613278
0.614322
0.614473
0.614289
0.501497
0.501552
0.502475
0.504842
0.50888
0.51445
0.521782
0.531354
0.543585
0.558691
0.57424
0.587208
0.597359
0.60533
0.61159
0.616283
0.61923
0.620411
0.620569
0.620366
0.483712
0.483757
0.484892
0.487845
0.492896
0.499889
0.50907
0.520982
0.536024
0.554339
0.572949
0.58836
0.600411
0.609912
0.617381
0.62299
0.626385
0.627678
0.627828
0.627605
0.461627
0.461668
0.463153
0.466991
0.473502
0.482496
0.494213
0.509211
0.527794
0.549955
0.572075
0.590208
0.604348
0.61554
0.624326
0.630883
0.634685
0.636039
0.636161
0.635917
0.433475
0.433538
0.435617
0.440883
0.449668
0.461601
0.476894
0.495991
0.518996
0.545694
0.571759
0.592846
0.60922
0.622198
0.632395
0.639864
0.643967
0.645305
0.645378
0.645116
0.396201
0.396366
0.399665
0.407565
0.420183
0.436615
0.457007
0.481488
0.509901
0.541817
0.572192
0.596381
0.61507
0.629883
0.641492
0.649731
0.653953
0.655173
0.655175
0.654901
0.343932
0.344929
0.351493
0.364812
0.384096
0.407488
0.434914
0.466196
0.500978
0.538682
0.573585
0.600922
0.621914
0.638497
0.651408
0.660157
0.664246
0.665245
0.66517
0.664892
0.26767
0.275041
0.290229
0.313711
0.342922
0.375639
0.41166
0.450773
0.49261
0.536571
0.5763
0.606976
0.630424
0.648905
0.663013
0.672039
0.675837
0.676605
0.676481
0.676238
0.185741
0.203165
0.22777
0.262037
0.301575
0.343746
0.388411
0.435519
0.484774
0.535623
0.581012
0.615742
0.6421
0.66276
0.678166
0.687011
0.690117
0.6906
0.690506
0.690343
0.117437
0.137961
0.170338
0.213773
0.262416
0.313485
0.366533
0.421481
0.478
0.535525
0.58628
0.624773
0.653757
0.676171
0.692085
0.700395
0.703005
0.703428
0.703393
0.703276
0.0614992
0.0836883
0.121614
0.171523
0.227363
0.285927
0.346393
0.408539
0.471894
0.53578
0.591629
0.633634
0.66499
0.688825
0.705274
0.713447
0.715851
0.716237
0.71624
0.716151
0.0149633
0.0383312
0.0800618
0.13511
0.196733
0.261491
0.32833
0.39688
0.466497
0.536347
0.597049
0.642411
0.676053
0.7014
0.718489
0.726648
0.729108
0.729468
0.729495
0.72943
-0.0244456
-0.00042582
0.044187
0.103295
0.169786
0.239816
0.312196
0.386446
0.461789
0.537228
0.602565
0.651188
0.687086
0.713898
0.731768
0.74036
0.742844
0.743207
0.743238
0.743189
-0.0587683
-0.0343329
0.0125451
0.0750103
0.145614
0.220235
0.297537
0.376951
0.457585
0.538284
0.608063
0.659854
0.697982
0.726296
0.745097
0.754094
0.756756
0.757133
0.757166
0.757139
-0.0895161
-0.064722
-0.0160006
0.0493275
0.123487
0.202141
0.283869
0.368002
0.453557
0.539255
0.613324
0.668215
0.708526
0.73833
0.75797
0.767488
0.770377
0.770789
0.770825
0.77081
-0.117674
-0.0925625
-0.0422676
0.0255379
0.102821
0.185056
0.270767
0.359235
0.44942
0.539912
0.618157
0.676072
0.718498
0.749732
0.770242
0.780206
0.783335
0.783843
0.783881
0.783855
-0.144059
-0.118587
-0.0668755
0.00309277
0.0831668
0.1686
0.257923
0.350397
0.444941
0.540048
0.622396
0.683285
0.727766
0.760363
0.781635
0.792027
0.795328
0.795868
0.795865
0.795842
-0.169061
-0.14323
-0.0902195
-0.0183712
0.0642004
0.152509
0.245113
0.341284
0.439935
0.539514
0.625932
0.689793
0.736283
0.770153
0.792049
0.802717
0.80615
0.806709
0.806677
0.806638
-0.193129
-0.166879
-0.112821
-0.0390962
0.0456952
0.136587
0.232174
0.331752
0.434274
0.538196
0.628693
0.695568
0.74405
0.779068
0.801457
0.812307
0.81577
0.816316
0.816251
0.816194
-0.216399
-0.189653
-0.134649
-0.0592681
0.0275051
0.120716
0.219003
0.32172
0.427876
0.536006
0.630618
0.700617
0.751141
0.787246
0.809992
0.820831
0.824256
0.824775
0.82468
0.824605
-0.239023
-0.211849
-0.155806
-0.0789944
0.00955729
0.104839
0.205557
0.311134
0.420681
0.532875
0.631652
0.704957
0.757659
0.794842
0.817777
0.828457
0.831745
0.832204
0.832081
0.831992
-0.261135
-0.233457
-0.176431
-0.0983206
-0.00819097
0.0889374
0.191828
0.299992
0.412668
0.528751
0.63174
0.708589
0.763721
0.802035
0.825014
0.83533
0.838361
0.838723
0.838576
0.838471
-0.282796
-0.254507
-0.196588
-0.117261
-0.0257263
0.0730204
0.177842
0.288317
0.403845
0.523591
0.630812
0.711491
0.769419
0.809045
0.831925
0.841618
0.844204
0.844414
0.844241
0.84413
-0.303853
-0.274988
-0.216211
-0.135804
-0.0430322
0.0571394
0.163643
0.276166
0.394251
0.517401
0.628792
0.713604
0.77479
0.816093
0.838862
0.847581
0.849415
0.849373
0.849182
0.849077
-0.324297
-0.294879
-0.235296
-0.153912
-0.0600634
0.041342
0.149311
0.263602
0.383949
0.510189
0.625617
0.714808
0.779794
0.823362
0.846297
0.853777
0.854326
0.853722
0.853502
0.853461
-0.344196
-0.314153
-0.253832
-0.171564
-0.0767653
0.0257016
0.134921
0.25072
0.373018
0.502006
0.621222
0.71495
0.784279
0.830865
0.854709
0.861153
0.859801
0.85787
0.857422
0.857712
-0.363394
-0.332798
-0.271768
-0.188711
-0.0930864
0.0102944
0.120561
0.23762
0.361563
0.492929
0.615577
0.713835
0.787981
0.838329
0.864243
0.870849
0.867893
0.863584
0.861527
0.861486
-0.381985
-0.350807
-0.289126
-0.205387
-0.109062
-0.00492271
0.106177
0.22425
0.349521
0.48289
0.608549
0.711186
0.790612
0.845306
0.874426
0.883348
0.880994
0.873877
0.866412
0.852851
-0.3999
-0.368167
-0.30602
-0.221791
-0.12497
-0.0202703
0.0913681
0.210147
0.336383
0.471287
0.599534
0.70628
0.791698
0.85123
0.883795
0.896835
0.895592
0.882125
0.86151
0.851048
-0.416973
-0.385033
-0.322267
-0.237732
-0.140457
-0.0354117
0.076352
0.195624
0.322436
0.458351
0.588545
0.69857
0.790294
0.854881
0.888301
0.901338
0.901873
0.876974
0.809732
0.779745
-0.432546
-0.402674
-0.33756
-0.252737
-0.154723
-0.0498469
0.0614469
0.180909
0.307894
0.444194
0.575483
0.68768
0.784818
0.85545
0.882603
0.890581
0.876013
0.819882
0.750577
0.708105
-0.487245
-0.41822
-0.351382
-0.267934
-0.16943
-0.0650651
0.0465797
0.165709
0.292372
0.428331
0.559691
0.672851
0.771185
0.848708
0.84998
0.849164
0.794931
0.721981
0.644412
0.601271
-0.448909
-0.432993
-0.372006
-0.287457
-0.191199
-0.0868729
0.023742
0.142245
0.267971
0.402628
0.532289
0.644192
0.735456
0.818681
0.801139
0.682515
0.574073
0.498683
0.424083
0.453128
-0.479186
-0.450164
-0.388297
-0.304596
-0.208381
-0.104175
0.00671722
0.12459
0.249265
0.382161
0.509103
0.616825
0.6983
0.742409
0.690611
0.53682
0.405901
0.312451
0.21267
0.261324
-0.502492
-0.470551
-0.407558
-0.323733
-0.227401
-0.123307
-0.0125007
0.104536
0.227813
0.358314
0.481528
0.582959
0.655333
0.664476
0.553976
0.377787
0.222528
0.101802
-0.0304136
0.00167717
-0.525247
-0.491821
-0.427702
-0.342977
-0.246578
-0.142648
-0.0323809
0.0836819
0.205353
0.333052
0.451529
0.544905
0.601567
0.578909
0.416526
0.217501
0.0253016
-0.143972
-0.333183
-0.35263
-0.547402
-0.513557
-0.448583
-0.363106
-0.26659
-0.162902
-0.0533055
0.0616495
0.181442
0.305916
0.418895
0.504031
0.540778
0.481049
0.285574
0.0727643
-0.14595
-0.336163
-0.578535
-0.874713
-0.569845
-0.536011
-0.47053
-0.384596
-0.287921
-0.184427
-0.0754373
0.0383653
0.156156
0.277112
0.384225
0.460716
0.475654
0.364347
0.171502
-0.0405196
-0.246269
-0.419551
-0.489846
-0.568368
-0.593521
-0.559642
-0.493887
-0.407759
-0.311062
-0.207861
-0.0995759
0.0128917
0.128348
0.24523
0.346038
0.411189
0.400687
0.255607
0.0699743
-0.122979
-0.287434
-0.381413
-0.405772
-0.421601
-0.618732
-0.584744
-0.518823
-0.432668
-0.336139
-0.23341
-0.126077
-0.0152567
0.097434
0.209571
0.303575
0.354118
0.325709
0.154531
-0.0221085
-0.189906
-0.317907
-0.357553
-0.370417
-0.371726
-0.645677
-0.611488
-0.5454
-0.459316
-0.363103
-0.261079
-0.15496
-0.0461293
0.063348
0.17015
0.256408
0.292366
0.243545
0.0611733
-0.106403
-0.25666
-0.333774
-0.350937
-0.352342
-0.352165
-0.674413
-0.639938
-0.573646
-0.487703
-0.391969
-0.290856
-0.186227
-0.0797394
0.026102
0.127045
0.204644
0.228523
0.14323
-0.0241238
-0.183291
-0.307201
-0.344233
-0.342612
-0.341741
-0.341159
-0.704655
-0.669915
-0.603456
-0.517743
-0.422651
-0.322687
-0.219848
-0.116059
-0.0142626
0.0803725
0.149206
0.155854
0.0520212
-0.103213
-0.244247
-0.321413
-0.331721
-0.334361
-0.335033
-0.334765
-0.735853
-0.700966
-0.634575
-0.549209
-0.454964
-0.356417
-0.255671
-0.154956
-0.0575563
0.0304861
0.0905482
0.0819944
-0.0299076
-0.170164
-0.288636
-0.320883
-0.329327
-0.330753
-0.330519
-0.330228
-0.767544
-0.73255
-0.666546
-0.581708
-0.488564
-0.391725
-0.293417
-0.196139
-0.103493
-0.021914
0.0277613
0.0120136
-0.10527
-0.224765
-0.318504
-0.336188
-0.327918
-0.327195
-0.327245
-0.327033
-0.798826
-0.763947
-0.698515
-0.614639
-0.52291
-0.42814
-0.332639
-0.239133
-0.1516
-0.076162
-0.0363306
-0.0519099
-0.171466
-0.267554
-0.319759
-0.330551
-0.328009
-0.326661
-0.326044
-0.325807
-0.828157
-0.793985
-0.729505
-0.647086
-0.557241
-0.464968
-0.372685
-0.283261
-0.201068
-0.131679
-0.0954271
-0.121963
-0.224788
-0.309958
-0.310877
-0.327099
-0.329451
-0.326933
-0.325906
-0.325384
-0.853923
-0.82082
-0.758388
-0.677876
-0.590524
-0.501278
-0.412695
-0.327676
-0.250786
-0.187609
-0.151351
-0.188455
-0.267944
-0.337352
-0.359366
-0.343568
-0.335209
-0.331754
-0.330373
-0.329583
-0.874002
-0.842624
-0.783067
-0.705596
-0.621475
-0.53594
-0.451588
-0.371356
-0.299649
-0.242613
-0.208426
-0.240769
-0.293915
-0.361685
-0.399662
-0.362923
-0.345588
-0.342186
-0.340448
-0.339381
-0.886165
-0.857487
-0.801708
-0.728346
-0.648603
-0.567632
-0.488176
-0.413098
-0.346614
-0.295165
-0.263103
-0.282086
-0.290478
-0.317258
-0.318155
-0.334611
-0.346134
-0.349754
-0.349436
-0.349644
-0.887785
-0.863149
-0.812317
-0.744335
-0.670209
-0.59493
-0.521117
-0.451647
-0.390557
-0.344131
-0.308681
-0.32075
-0.294472
-0.246345
-0.281416
-0.323294
-0.341441
-0.347999
-0.351157
-0.352399
-0.876644
-0.856818
-0.812719
-0.75196
-0.684816
-0.616347
-0.549049
-0.485678
-0.430287
-0.388418
-0.349433
-0.370418
-0.386426
-0.349479
-0.369394
-0.378449
-0.377628
-0.376712
-0.376411
-0.376482
-0.850797
-0.835913
-0.801113
-0.74996
-0.691404
-0.630854
-0.570743
-0.513746
-0.464177
-0.427458
-0.388801
-0.42396
-0.511061
-0.673612
-0.607838
-0.488319
-0.427036
-0.404266
-0.395834
-0.393311
-0.81278
-0.803189
-0.778303
-0.738475
-0.689924
-0.638144
-0.585436
-0.534648
-0.490105
-0.458497
-0.433231
-0.433595
-0.452399
-0.536478
-0.50771
-0.402685
-0.351308
-0.335161
-0.330093
-0.327397
-0.769271
-0.763822
-0.749106
-0.720291
-0.682301
-0.638961
-0.593261
-0.547644
-0.506437
-0.475197
-0.446692
-0.364733
-0.187677
-0.00489456
-0.00517291
-0.100155
-0.18986
-0.233157
-0.243746
-0.244151
-0.730008
-0.7267
-0.719676
-0.700819
-0.671516
-0.635279
-0.595272
-0.553343
-0.512452
-0.477975
-0.452411
-0.359568
-0.216964
0.0110153
0.0824421
-0.0876377
-0.229724
-0.304697
-0.319122
-0.336703
-0.701669
-0.699581
-0.695968
-0.684489
-0.661513
-0.630299
-0.593725
-0.553258
-0.510333
-0.472127
-0.444837
-0.449903
-0.614699
-1.04193
-1.52997
-1.77777
-1.80096
-1.6599
-1.47308
-1.37742
-0.68034
-0.679561
-0.678377
-0.672648
-0.655151
-0.626772
-0.590914
-0.549107
-0.503073
-0.453162
-0.41805
-0.443216
-0.701165
-1.10032
-1.53925
-1.67685
-1.5488
-1.31749
-1.11743
-1.01792
-0.667962
-0.667715
-0.667187
-0.664569
-0.652002
-0.624949
-0.587647
-0.543261
-0.490759
-0.428326
-0.376038
-0.327009
-0.325915
-0.30189
-0.24056
-0.14395
0.0802388
0.265771
0.379844
0.430033
-0.65916
-0.65905
-0.658619
-0.657655
-0.64969
-0.624637
-0.585937
-0.537231
-0.478047
-0.407826
-0.322775
-0.225243
-0.0600174
0.260991
0.644649
1.04418
1.36194
1.53498
1.60551
1.62571
-0.653211
-0.653041
-0.652487
-0.652001
-0.647108
-0.626454
-0.586605
-0.533053
-0.46826
-0.384246
-0.279582
-0.172641
0.0659367
0.486003
0.95467
1.38987
1.7143
1.88537
1.94927
1.96183
-0.650977
-0.650693
-0.649809
-0.648055
-0.646802
-0.632157
-0.590938
-0.533285
-0.462044
-0.371331
-0.262712
-0.146631
0.0484596
0.448158
0.8604
1.23168
1.50244
1.64165
1.68769
1.69551
-0.652602
-0.653248
-0.654985
-0.657452
-0.65909
-0.644582
-0.599548
-0.539018
-0.463838
-0.370519
-0.263019
-0.152811
-0.00406561
0.314009
0.627649
0.895959
1.08319
1.17288
1.20278
1.2082
-0.654486
-0.655826
-0.658953
-0.665423
-0.669884
-0.65146
-0.608666
-0.55029
-0.47371
-0.379028
-0.278232
-0.178003
-0.0621935
0.162867
0.381333
0.548251
0.656456
0.708382
0.731002
0.738249
-0.675355
-0.675187
-0.665911
-0.639676
-0.614213
-0.615904
-0.613264
-0.56866
-0.489853
-0.393075
-0.299414
-0.215671
-0.128573
0.0377925
0.191147
0.29862
0.367579
0.404298
0.424584
0.432183
-0.726094
-0.722652
-0.705587
-0.665835
-0.631839
-0.638817
-0.652849
-0.599744
-0.509438
-0.408243
-0.322536
-0.252651
-0.186957
-0.0599511
0.0612386
0.151183
0.212521
0.247187
0.264686
0.269894
-0.824698
-0.831159
-0.859775
-0.89651
-0.897833
-0.867568
-0.785754
-0.655499
-0.531333
-0.420704
-0.337112
-0.279867
-0.231277
-0.123707
-0.0212196
0.0578958
0.118342
0.154644
0.170161
0.172747
-0.970619
-0.996092
-1.05013
-1.09635
-1.10122
-1.05148
-0.895973
-0.70454
-0.544335
-0.423207
-0.341107
-0.291275
-0.251011
-0.160665
-0.0733672
-0.00677534
0.044278
0.0739066
0.0852686
0.0866138
-1.00578
-1.02779
-1.06769
-1.10073
-1.10376
-1.04738
-0.883483
-0.687138
-0.526336
-0.406657
-0.328783
-0.282912
-0.242682
-0.175064
-0.107097
-0.0536758
-0.0121719
0.0112352
0.0203433
0.0202681
-0.83977
-0.860728
-0.896872
-0.931911
-0.939
-0.882962
-0.736916
-0.588478
-0.462524
-0.365879
-0.300115
-0.25672
-0.219491
-0.171364
-0.123706
-0.0841702
-0.0549129
-0.037438
-0.0313297
-0.0317694
-0.513205
-0.529691
-0.560669
-0.595806
-0.61509
-0.590115
-0.520217
-0.440528
-0.368973
-0.307927
-0.259584
-0.223066
-0.194754
-0.165421
-0.133969
-0.106338
-0.085414
-0.0737113
-0.070102
-0.0714446
-0.174791
-0.18374
-0.203815
-0.235469
-0.268248
-0.28761
-0.294814
-0.287005
-0.26873
-0.242473
-0.215455
-0.190783
-0.173525
-0.157877
-0.139559
-0.123308
-0.110639
-0.104368
-0.103067
-0.10476
0.0463791
0.0417929
0.0278227
-0.000176299
-0.0431414
-0.0927598
-0.134328
-0.164688
-0.180571
-0.181999
-0.172866
-0.160819
-0.153627
-0.150633
-0.145166
-0.140285
-0.138214
-0.138846
-0.140049
-0.1413
0.136949
0.134208
0.123827
0.0999798
0.0599159
0.00899949
-0.0426994
-0.0864636
-0.117286
-0.133747
-0.136271
-0.132768
-0.133328
-0.139107
-0.146156
-0.154344
-0.161667
-0.169065
-0.17204
-0.172605
0.149533
0.147656
0.140094
0.122032
0.0906694
0.0491257
0.00326233
-0.0400813
-0.0758454
-0.0999589
-0.10906
-0.108086
-0.108627
-0.124133
-0.142511
-0.158556
-0.173005
-0.182162
-0.185091
-0.1853
0.12953
0.128301
0.123116
0.110466
0.0880527
0.0571031
0.0202976
-0.0172229
-0.051646
-0.0791406
-0.0938657
-0.0961486
-0.0973821
-0.117643
-0.139306
-0.156667
-0.169956
-0.177199
-0.179181
-0.179473
0.100908
0.100122
0.0966937
0.08815
0.0726455
0.0503267
0.0221212
-0.00885104
-0.0403633
-0.0698361
-0.0928
-0.106468
-0.114762
-0.130449
-0.144099
-0.154141
-0.161766
-0.165051
-0.165951
-0.166386
0.0732069
0.0727877
0.0705935
0.0649641
0.0544272
0.0385887
0.0174793
-0.00748156
-0.0357044
-0.0672257
-0.101239
-0.136374
-0.156664
-0.157868
-0.154927
-0.154572
-0.154957
-0.155044
-0.155153
-0.15556
0.050194
0.049876
0.0484732
0.044827
0.0377473
0.0266472
0.0110939
-0.00861869
-0.0330329
-0.0646628
-0.106312
-0.15701
-0.186429
-0.172706
-0.158317
-0.151118
-0.148639
-0.147737
-0.147324
-0.147433
0.0320745
0.0319136
0.0310572
0.0288132
0.0242597
0.0167297
0.00571911
-0.00911512
-0.0286092
-0.056374
-0.0961986
-0.145896
-0.167796
-0.15187
-0.13876
-0.134872
-0.134815
-0.135043
-0.134661
-0.134493
0.0184419
0.0183665
0.0179068
0.0166807
0.0140516
0.00941033
0.00226257
-0.0078223
-0.021748
-0.0420297
-0.070361
-0.10117
-0.109201
-0.103709
-0.100603
-0.104088
-0.108262
-0.1102
-0.110072
-0.109672
0.00852118
0.00852394
0.0083713
0.00789327
0.00668471
0.00441257
0.000659606
-0.00481874
-0.0125011
-0.0235711
-0.0371105
-0.0478198
-0.0467745
-0.0479549
-0.0527242
-0.0605518
-0.0667262
-0.0691229
-0.0691163
-0.0685304
0.000946077
0.00100256
0.000991239
0.00116347
0.00146947
0.00149974
0.00112143
0.000288711
-0.000910443
-0.00252723
-0.00396374
-0.00289163
-0.00486924
-0.00542864
-0.00962752
-0.0145528
-0.0152981
-0.0147989
-0.014701
-0.014293
-0.107316
0.0585479
0.251862
0.420519
0.554816
0.660002
0.746658
0.820509
0.854366
0.831142
0.192185
0.311997
0.440775
0.551854
0.645224
0.722273
0.784625
0.828947
0.851136
0.863325
0.408844
0.490924
0.578903
0.656445
0.723041
0.778735
0.823049
0.855467
0.878974
0.897032
0.568214
0.627021
0.687899
0.744497
0.793633
0.835384
0.869712
0.89714
0.919802
0.938147
0.692638
0.735353
0.780962
0.824397
0.862793
0.896348
0.925099
0.94906
0.969365
0.987227
0.796324
0.828968
0.866843
0.902157
0.934596
0.963696
0.989144
1.01056
1.02836
1.04572
0.888478
0.917038
0.950851
0.982851
1.01269
1.03977
1.06344
1.08311
1.09859
1.11567
0.976829
1.00595
1.03986
1.07182
1.10136
1.12789
1.15071
1.16917
1.18252
1.19955
1.072
1.10515
1.14174
1.17527
1.20528
1.23143
1.25335
1.27061
1.28246
1.29986
1.18691
1.22471
1.26332
1.29753
1.32685
1.35158
1.37193
1.38781
1.39926
1.41733
1.3318
1.37032
1.40644
1.43711
1.46277
1.48486
1.5039
1.51942
1.53184
1.54983
1.50684
1.53846
1.56462
1.58706
1.60702
1.62574
1.64345
1.65992
1.67526
1.69333
1.69544
1.71263
1.72766
1.74389
1.75979
1.77431
1.78751
1.80144
1.81898
1.83913
1.87715
1.88668
1.89822
1.90902
1.91831
1.92789
1.93867
1.95003
1.96139
1.97674
2.08437
2.08803
2.07309
2.05828
2.052
2.05767
2.07615
2.10646
2.13863
2.16529
2.39069
2.25583
2.17919
2.1368
2.11937
2.12334
2.15074
2.20715
2.30977
2.53413
0.707806
0.705678
0.701195
0.692574
0.680353
0.668231
0.658011
0.650129
0.64453
0.641302
0.640979
0.643747
0.648874
0.656114
0.665513
0.67706
0.689716
0.700755
0.706868
0.709924
0.632251
0.638098
0.644433
0.648929
0.651403
0.651085
0.648357
0.644561
0.641071
0.638838
0.638725
0.640954
0.644641
0.648947
0.652766
0.654658
0.653727
0.65025
0.64509
0.638469
0.623812
0.626108
0.629514
0.632514
0.634594
0.636097
0.636863
0.636561
0.635558
0.634705
0.634916
0.636377
0.638218
0.639543
0.639736
0.638856
0.637314
0.634983
0.631723
0.628804
0.618281
0.619367
0.621202
0.623584
0.625614
0.62705
0.628082
0.628851
0.629277
0.629533
0.630065
0.63091
0.631536
0.631624
0.631227
0.63039
0.628929
0.626851
0.624769
0.623388
0.613051
0.613714
0.614824
0.616533
0.618322
0.619963
0.621272
0.622307
0.623218
0.624047
0.624823
0.625418
0.625645
0.625503
0.624954
0.623913
0.622496
0.62096
0.619647
0.618869
0.608042
0.608502
0.60929
0.610593
0.612088
0.613615
0.615096
0.616416
0.617584
0.618684
0.619654
0.620272
0.620457
0.620213
0.619537
0.618565
0.617453
0.61633
0.615421
0.614905
0.603171
0.603515
0.604128
0.605202
0.606504
0.60789
0.609347
0.610818
0.612228
0.613559
0.614733
0.615484
0.615709
0.615469
0.614898
0.614142
0.613308
0.612453
0.611788
0.611411
0.598384
0.598651
0.599146
0.600061
0.60124
0.602551
0.603966
0.605483
0.607065
0.608645
0.610067
0.611008
0.611366
0.61129
0.610931
0.610398
0.60977
0.609147
0.608663
0.608376
0.593598
0.59381
0.594222
0.595027
0.596128
0.597392
0.5988
0.600368
0.602088
0.603912
0.605632
0.606845
0.607453
0.607625
0.607502
0.607195
0.606778
0.606349
0.606007
0.605782
0.588724
0.588895
0.589248
0.589981
0.591036
0.592281
0.59372
0.595377
0.59726
0.599348
0.601422
0.603005
0.603946
0.604414
0.604551
0.60448
0.60428
0.604028
0.603803
0.603624
0.583672
0.58381
0.584122
0.58481
0.585851
0.587123
0.588631
0.590419
0.59252
0.594929
0.597438
0.599479
0.60082
0.601633
0.602066
0.602248
0.602263
0.602183
0.602058
0.601914
0.578351
0.578462
0.578746
0.579416
0.580476
0.58182
0.583443
0.585417
0.587803
0.590618
0.593661
0.596254
0.598068
0.599279
0.600048
0.600506
0.600749
0.600842
0.600804
0.600687
0.572664
0.572751
0.573019
0.573695
0.574811
0.576269
0.578062
0.580289
0.58304
0.586368
0.590064
0.59332
0.595695
0.597369
0.598517
0.599299
0.599795
0.600052
0.600093
0.599997
0.566499
0.566565
0.566827
0.567531
0.56874
0.57036
0.572386
0.574947
0.578161
0.582127
0.586621
0.590673
0.593716
0.595934
0.597519
0.598665
0.599442
0.599878
0.599992
0.599913
0.559724
0.559771
0.560034
0.560789
0.562132
0.563969
0.566302
0.569289
0.57309
0.577843
0.583307
0.588316
0.59215
0.595012
0.597113
0.598666
0.599767
0.600398
0.600585
0.60052
0.552186
0.552213
0.55248
0.553308
0.554829
0.556949
0.559674
0.563203
0.567736
0.573457
0.580097
0.586252
0.591025
0.594646
0.597359
0.5994
0.600869
0.601707
0.601967
0.601911
0.543668
0.543681
0.543958
0.544886
0.546643
0.549109
0.55234
0.556552
0.561997
0.568906
0.57697
0.584493
0.590379
0.594891
0.598326
0.600953
0.60284
0.603908
0.604241
0.604192
0.533882
0.533867
0.534197
0.535268
0.537312
0.540236
0.544107
0.549178
0.555759
0.564128
0.57391
0.58306
0.590258
0.595821
0.600101
0.603411
0.605785
0.607103
0.607508
0.607462
0.522518
0.522478
0.522856
0.52412
0.526535
0.530051
0.534735
0.540893
0.548896
0.55906
0.570911
0.581982
0.590714
0.597506
0.602779
0.606872
0.609803
0.611388
0.611862
0.611814
0.509086
0.509019
0.509477
0.510995
0.513897
0.518181
0.523919
0.531472
0.541267
0.553642
0.567972
0.581298
0.5918
0.600005
0.606436
0.611433
0.61498
0.616838
0.617371
0.617315
0.492928
0.492832
0.493416
0.495289
0.498844
0.504157
0.511292
0.520664
0.53274
0.54784
0.565122
0.58106
0.593584
0.603393
0.611131
0.617148
0.621363
0.623486
0.62406
0.623989
0.473092
0.472969
0.473758
0.476149
0.480622
0.487365
0.496408
0.508203
0.523211
0.541667
0.56243
0.581345
0.596132
0.607727
0.61689
0.624051
0.628946
0.631298
0.631884
0.631792
0.448142
0.448004
0.44913
0.452324
0.458191
0.467027
0.478776
0.493869
0.51266
0.535216
0.560021
0.582258
0.599513
0.613044
0.623761
0.632109
0.637644
0.640148
0.640705
0.640583
0.41574
0.415625
0.417369
0.421958
0.430139
0.442242
0.457961
0.477579
0.501213
0.528691
0.558087
0.583933
0.603797
0.619358
0.631689
0.641224
0.64726
0.649792
0.650271
0.650115
0.371692
0.371744
0.374847
0.382343
0.39482
0.412249
0.433853
0.45957
0.489229
0.522442
0.55689
0.586525
0.60906
0.626671
0.640595
0.651193
0.657469
0.659852
0.660206
0.660016
0.308135
0.309363
0.316949
0.330935
0.351274
0.377178
0.407068
0.440555
0.477346
0.516946
0.556718
0.590179
0.615327
0.634898
0.650245
0.66158
0.667786
0.669781
0.669963
0.669754
0.232831
0.234635
0.249158
0.273182
0.304521
0.340434
0.379351
0.421097
0.465497
0.512085
0.557954
0.596049
0.624469
0.646424
0.663359
0.675342
0.681226
0.682892
0.683027
0.682903
0.155183
0.161455
0.182897
0.217239
0.259034
0.304661
0.352563
0.402613
0.454693
0.508361
0.560459
0.603288
0.634975
0.65933
0.67803
0.690101
0.695186
0.696343
0.696419
0.696368
0.0916492
0.100261
0.126289
0.167694
0.217685
0.271588
0.327585
0.385402
0.444806
0.505285
0.563339
0.610597
0.645306
0.67167
0.691286
0.703332
0.70809
0.70916
0.709284
0.709294
0.0399856
0.0491972
0.0787941
0.125463
0.181635
0.242208
0.305053
0.369732
0.435831
0.50269
0.566392
0.617859
0.655378
0.683637
0.704327
0.716594
0.721123
0.722131
0.722312
0.722369
-0.00321143
0.00628049
0.0383344
0.0890155
0.150264
0.216375
0.285032
0.355714
0.427836
0.500591
0.569638
0.625146
0.665405
0.695557
0.717342
0.729883
0.734476
0.735682
0.735891
0.735984
-0.0403144
-0.0307192
0.00317088
0.0570638
0.122516
0.193352
0.267077
0.343085
0.420681
0.49892
0.573034
0.632436
0.675375
0.707378
0.730315
0.74352
0.748394
0.749696
0.749901
0.750001
-0.0730091
-0.0633903
-0.0280968
0.0285049
0.0974797
0.172396
0.250616
0.331432
0.414063
0.497428
0.576375
0.639553
0.685119
0.718996
0.743158
0.757022
0.762293
0.763673
0.763871
0.763946
-0.102594
-0.0929509
-0.0565099
0.00242935
0.0744261
0.152921
0.235145
0.32033
0.407615
0.495832
0.579437
0.646292
0.69442
0.730083
0.755389
0.769986
0.775642
0.777112
0.777288
0.777342
-0.129971
-0.120296
-0.0828664
-0.0218784
0.0527944
0.134461
0.220269
0.309437
0.401064
0.493899
0.582024
0.652481
0.703109
0.740497
0.766902
0.782116
0.788196
0.789738
0.789895
0.789923
-0.15572
-0.145992
-0.107645
-0.0449297
0.0321576
0.116659
0.205704
0.29852
0.39419
0.491425
0.583971
0.658002
0.711085
0.750133
0.777558
0.793268
0.799622
0.801214
0.801351
0.801345
-0.180338
-0.170486
-0.131254
-0.067036
0.0122307
0.0992666
0.19124
0.28739
0.38683
0.48827
0.585169
0.662796
0.718334
0.758962
0.787277
0.803347
0.809844
0.811452
0.81157
0.811534
-0.204109
-0.194051
-0.154105
-0.0883862
-0.00718377
0.0821131
0.17673
0.27593
0.378877
0.484337
0.585535
0.66682
0.724866
0.767037
0.796091
0.812391
0.818896
0.820479
0.820577
0.820512
-0.227147
-0.216899
-0.176254
-0.10913
-0.0262167
0.0651114
0.1621
0.264073
0.370263
0.479535
0.584989
0.670055
0.730733
0.774487
0.804171
0.820526
0.826918
0.828427
0.828484
0.828399
-0.24965
-0.239128
-0.197742
-0.129367
-0.0449277
0.0482091
0.147316
0.251791
0.360958
0.473827
0.58347
0.672471
0.736004
0.781457
0.811683
0.827913
0.834056
0.835428
0.835436
0.835331
-0.271568
-0.260791
-0.218714
-0.149157
-0.0633372
0.0314009
0.132392
0.2391
0.350965
0.467182
0.580919
0.674022
0.74073
0.788105
0.81885
0.834729
0.840437
0.841592
0.841534
0.84141
-0.292978
-0.281918
-0.239108
-0.168495
-0.0814407
0.0147044
0.117353
0.226043
0.340321
0.459606
0.577282
0.674637
0.744915
0.794586
0.825936
0.841227
0.846177
0.846974
0.846839
0.846711
-0.313732
-0.302456
-0.25892
-0.187346
-0.0992037
-0.00182065
0.102255
0.212678
0.329085
0.451139
0.572525
0.67423
0.748501
0.800993
0.833282
0.847835
0.851604
0.85173
0.851455
0.851348
-0.333969
-0.322369
-0.278152
-0.205701
-0.116603
-0.0181436
0.0871804
0.199076
0.317331
0.441846
0.566639
0.672688
0.751353
0.807312
0.841187
0.855219
0.857397
0.856194
0.855497
0.855442
-0.353536
-0.341639
-0.29678
-0.223527
-0.133567
-0.0341863
0.0722022
0.185349
0.305161
0.431782
0.559648
0.669889
0.75327
0.813355
0.849721
0.864136
0.86492
0.861577
0.859387
0.858703
-0.372497
-0.360315
-0.314757
-0.240779
-0.150066
-0.0498844
0.0573997
0.171573
0.29268
0.421073
0.551606
0.665712
0.753996
0.818748
0.858459
0.874814
0.875822
0.870731
0.864453
0.856567
-0.390773
-0.378355
-0.332177
-0.25761
-0.166306
-0.065502
0.0424511
0.157365
0.279464
0.409249
0.542021
0.659649
0.7531
0.823249
0.866896
0.886812
0.890674
0.885158
0.87415
0.86961
-0.408321
-0.395684
-0.349027
-0.273998
-0.182298
-0.0810353
0.0273651
0.142703
0.26546
0.39618
0.530674
0.651284
0.749754
0.826062
0.873114
0.896139
0.90214
0.899387
0.861232
0.809613
-0.424862
-0.411524
-0.365159
-0.289873
-0.198145
-0.0966481
0.0120815
0.127696