/*--------------------------------*- C++ -*----------------------------------*\
  =========                 |
  \\      /  F ield         | OpenFOAM: The Open Source CFD Toolbox
   \\    /   O peration     | Website:  https://openfoam.org
    \\  /    A nd           | Version:  10
     \\/     M anipulation  |
\*---------------------------------------------------------------------------*/
FoamFile
{
    format      ascii;
    class       volVectorField;
    location    "67";
    object      U;
}
// * * * * * * * * * * * * * * * * * * * * * * * * * * * * * * * * * * * * * //

dimensions      [0 1 -1 0 0 0 0];

internalField   nonuniform List<vector> 
8800
(
(0.980137 -0.0915203 0)
(1.00234 -0.0587302 0)
(0.999584 -0.0321286 0)
(0.999984 -0.0165213 0)
(1.00009 -0.00884079 0)
(1.00011 -0.00509598 0)
(1.00007 -0.00299188 0)
(1.00002 -0.00168054 0)
(0.999999 -0.000778316 0)
(1.00006 -7.85003e-05 0)
(0.99998 0.000631201 0)
(0.99999 0.00138919 0)
(1.00003 0.00241214 0)
(1.00005 0.00400951 0)
(1.00004 0.00675218 0)
(0.999998 0.0120525 0)
(0.999804 0.023095 0)
(0.999033 0.0431554 0)
(1.00724 0.0790248 0)
(0.775026 0.0478395 0)
(0.358997 -0.014748 0)
(1.04651 -0.0724777 0)
(1.08848 -0.066014 0)
(1.04944 -0.0509056 0)
(1.02556 -0.0376828 0)
(1.01277 -0.0258753 0)
(1.0066 -0.0166762 0)
(1.00364 -0.0101823 0)
(1.00219 -0.00554706 0)
(1.00151 -0.00194881 0)
(1.00137 0.001266 0)
(1.00172 0.00457766 0)
(1.0027 0.00846621 0)
(1.00476 0.0137698 0)
(1.00898 0.0214389 0)
(1.01794 0.0319244 0)
(1.03579 0.0446923 0)
(1.06742 0.0581307 0)
(1.09468 0.0699506 0)
(0.845608 0.055509 0)
(0.217817 -0.00137969 0)
(1.0757 -0.0506329 0)
(1.09943 -0.0489115 0)
(1.06441 -0.0399903 0)
(1.03994 -0.0325258 0)
(1.02385 -0.0253051 0)
(1.01405 -0.0180764 0)
(1.00853 -0.0114455 0)
(1.00566 -0.00567995 0)
(1.00448 -0.000382534 0)
(1.00478 0.00473146 0)
(1.00661 0.0100201 0)
(1.01057 0.0159793 0)
(1.01789 0.0227188 0)
(1.03048 0.0298109 0)
(1.05046 0.0368884 0)
(1.08002 0.0446562 0)
(1.10563 0.0519708 0)
(0.943212 0.0410249 0)
(0.217148 0.00140685 0)
(0.176694 -0.0006277 0)
(1.01947 -0.0354379 0)
(1.10575 -0.0413704 0)
(1.07802 -0.0363456 0)
(1.05252 -0.0302914 0)
(1.0353 -0.0244034 0)
(1.02342 -0.0185942 0)
(1.01558 -0.0125816 0)
(1.01096 -0.00647217 0)
(1.0089 -0.000224354 0)
(1.00941 0.00593691 0)
(1.01247 0.011851 0)
(1.01845 0.0176027 0)
(1.02805 0.0231543 0)
(1.04222 0.0286885 0)
(1.06303 0.0344552 0)
(1.09382 0.0403272 0)
(1.09436 0.0418346 0)
(0.830053 0.0228004 0)
(0.175551 0.000649546 0)
(0.154811 -0.000461397 0)
(0.958326 -0.0256582 0)
(1.10448 -0.0350601 0)
(1.08816 -0.0325978 0)
(1.06136 -0.0280784 0)
(1.04332 -0.0231003 0)
(1.03091 -0.0177801 0)
(1.02229 -0.012219 0)
(1.01671 -0.00629024 0)
(1.01402 0.000177163 0)
(1.01463 0.00664108 0)
(1.0184 0.0125115 0)
(1.0252 0.0178063 0)
(1.03533 0.0227815 0)
(1.05003 0.0275859 0)
(1.07196 0.0320076 0)
(1.10093 0.0358664 0)
(1.06955 0.0340485 0)
(0.742268 0.0144837 0)
(0.153095 0.000485903 0)
(0.140158 -0.000333153 0)
(0.901414 -0.0192869 0)
(1.09695 -0.0301513 0)
(1.09633 -0.0292549 0)
(1.0691 -0.0254564 0)
(1.05027 -0.0213517 0)
(1.03728 -0.0166297 0)
(1.02826 -0.0113568 0)
(1.02229 -0.00561145 0)
(1.01925 0.000761718 0)
(1.01983 0.00713984 0)
(1.02379 0.0127862 0)
(1.03083 0.0177396 0)
(1.04133 0.0221696 0)
(1.05665 0.0260932 0)
(1.07944 0.0295859 0)
(1.10318 0.0322766 0)
(1.03765 0.0282331 0)
(0.675299 0.010345 0)
(0.13774 0.000362228 0)
(0.129457 -0.000251531 0)
(0.85166 -0.0148836 0)
(1.08467 -0.0260371 0)
(1.10206 -0.0263583 0)
(1.07597 -0.0230178 0)
(1.05663 -0.0193403 0)
(1.04321 -0.0151173 0)
(1.03381 -0.0102266 0)
(1.02755 -0.00470028 0)
(1.02429 0.00148927 0)
(1.02473 0.00765065 0)
(1.0287 0.0130132 0)
(1.03589 0.0175414 0)
(1.04666 0.0213617 0)
(1.06235 0.0246834 0)
(1.08558 0.0276937 0)
(1.10234 0.0294774 0)
(1.00282 0.0237177 0)
(0.623065 0.00795142 0)
(0.126179 0.000286885 0)
(0.121312 -0.000192527 0)
(0.809305 -0.0116918 0)
(1.06945 -0.0224284 0)
(1.10564 -0.0237084 0)
(1.08226 -0.020817 0)
(1.06246 -0.0173637 0)
(1.04876 -0.01342 0)
(1.03911 -0.00884753 0)
(1.03257 -0.00359221 0)
(1.02906 0.00236673 0)
(1.02933 0.00825945 0)
(1.03323 0.0132675 0)
(1.04048 0.0173356 0)
(1.05134 0.0206767 0)
(1.06727 0.0236 0)
(1.09088 0.0262898 0)
(1.09861 0.0271592 0)
(0.96752 0.0201744 0)
(0.581068 0.00639432 0)
(0.11699 0.000235487 0)
(0.115011 -0.000147703 0)
(0.773631 -0.00930116 0)
(1.05271 -0.0192483 0)
(1.10804 -0.021256 0)
(1.08817 -0.0187431 0)
(1.06796 -0.0154476 0)
(1.054 -0.0116691 0)
(1.04416 -0.00729468 0)
(1.03738 -0.00227469 0)
(1.0336 0.00342597 0)
(1.03364 0.00900914 0)
(1.0374 0.0136369 0)
(1.04458 0.0172976 0)
(1.05545 0.0202561 0)
(1.0716 0.0228477 0)
(1.0949 0.025187 0)
(1.09203 0.0252458 0)
(0.933108 0.0174391 0)
(0.546295 0.00532945 0)
(0.109419 0.000199837 0)
(0.110105 -0.00011224 0)
(0.743714 -0.00744707 0)
(1.03551 -0.0164252 0)
(1.1095 -0.0189468 0)
(1.09379 -0.0167434 0)
(1.07328 -0.0135447 0)
(1.05904 -0.00986167 0)
(1.049 -0.00560817 0)
(1.042 -0.000755253 0)
(1.03793 0.0047006 0)
(1.03767 0.009965 0)
(1.0412 0.0142319 0)
(1.04824 0.0175286 0)
(1.05908 0.0201348 0)
(1.07545 0.0224337 0)
(1.09763 0.0243958 0)
(1.08299 0.0236847 0)
(0.900163 0.0153635 0)
(0.516675 0.00458878 0)
(0.10297 0.000175381 0)
(0.106303 -8.29004e-05 0)
(0.718733 -0.00595269 0)
(1.0187 -0.0138878 0)
(1.11013 -0.016712 0)
(1.0993 -0.0147876 0)
(1.07852 -0.0116046 0)
(1.06398 -0.00795397 0)
(1.05371 -0.00376276 0)
(1.04645 0.000980608 0)
(1.04205 0.00623097 0)
(1.04142 0.011195 0)
(1.04464 0.0151216 0)
(1.05149 0.0180694 0)
(1.0623 0.0203361 0)
(1.07885 0.0223721 0)
(1.099 0.023929 0)
(1.07186 0.0224714 0)
(0.868806 0.0138345 0)
(0.490732 0.00408065 0)
(0.0972933 0.000159568 0)
(0.103415 -5.74931e-05 0)
(0.698047 -0.00469975 0)
(1.00289 -0.0115701 0)
(1.11008 -0.0145146 0)
(1.10466 -0.0127891 0)
(1.08376 -0.00957267 0)
(1.06889 -0.0058968 0)
(1.05835 -0.00170636 0)
(1.05079 0.00297836 0)
(1.04598 0.00807232 0)
(1.04489 0.0127668 0)
(1.04774 0.0163692 0)
(1.05436 0.0189791 0)
(1.0651 0.0209088 0)
(1.08179 0.022687 0)
(1.09933 0.0238399 0)
(1.05892 0.0216189 0)
(0.838874 0.0127625 0)
(0.467364 0.00374809 0)
(0.092126 0.000150529 0)
(0.101318 -3.40734e-05 0)
(0.681182 -0.00359984 0)
(0.988532 -0.0094019 0)
(1.10958 -0.0122701 0)
(1.10984 -0.0106615 0)
(1.08908 -0.00739184 0)
(1.07386 -0.0036309 0)
(1.063 0.000624267 0)
(1.05505 0.00530638 0)
(1.04975 0.0102969 0)
(1.04812 0.0147532 0)
(1.05051 0.0180369 0)
(1.05686 0.020309 0)
(1.06749 0.0218995 0)
(1.08424 0.0234065 0)
(1.09866 0.0241316 0)
(1.04432 0.0211423 0)
(0.810041 0.0120773 0)
(0.445705 0.00355302 0)
(0.0872634 0.00014684 0)
(0.0999499 -1.09413e-05 0)
(0.667833 -0.00258363 0)
(0.975999 -0.00730897 0)
(1.10893 -0.00991787 0)
(1.11497 -0.00834156 0)
(1.09456 -0.00498202 0)
(1.07895 -0.00107167 0)
(1.06771 0.00330917 0)
(1.0593 0.00805339 0)
(1.0534 0.0129898 0)
(1.0511 0.0172344 0)
(1.05295 0.0202063 0)
(1.05897 0.0221265 0)
(1.06947 0.0233573 0)
(1.08624 0.0246 0)
(1.09673 0.0248654 0)
(1.02811 0.021029 0)
(0.781872 0.011724 0)
(0.425049 0.00346981 0)
(0.0825393 0.000147458 0)
(0.099294 1.40252e-05 0)
(0.657842 -0.00159696 0)
(0.965604 -0.00521952 0)
(1.10845 -0.00739545 0)
(1.1202 -0.00576016 0)
(1.10028 -0.00226223 0)
(1.08425 0.00186387 0)
(1.07256 0.0064395 0)
(1.06359 0.0113153 0)
(1.05694 0.016249 0)
(1.05385 0.0203034 0)
(1.05505 0.0229653 0)
(1.06067 0.0245172 0)
(1.07101 0.0253759 0)
(1.08769 0.0263156 0)
(1.09352 0.0260579 0)
(1.01026 0.0213141 0)
(0.753886 0.0116738 0)
(0.404806 0.0034835 0)
(0.0778183 0.000151862 0)
(0.0993696 3.57487e-05 0)
(0.651179 -0.000593461 0)
(0.957649 -0.00306157 0)
(1.1085 -0.00462943 0)
(1.12567 -0.00282799 0)
(1.10635 0.000869664 0)
(1.08986 0.00528753 0)
(1.07762 0.0101369 0)
(1.06796 0.0152157 0)
(1.06043 0.0201973 0)
(1.05637 0.0240762 0)
(1.0568 0.0264188 0)
(1.06194 0.0275925 0)
(1.07208 0.028057 0)
(1.08838 0.0286276 0)
(1.08879 0.0277391 0)
(0.990588 0.0220341 0)
(0.725542 0.0119121 0)
(0.384434 0.0035856 0)
(0.0729771 0.000159634 0)
(0.100217 7.15895e-05 0)
(0.647919 0.000439573 0)
(0.952454 -0.000763593 0)
(1.10943 -0.00153752 0)
(1.13159 0.000553207 0)
(1.11289 0.00453266 0)
(1.09588 0.00933103 0)
(1.08299 0.014541 0)
(1.07248 0.0199005 0)
(1.06387 0.0249826 0)
(1.05867 0.0286987 0)
(1.05817 0.0306989 0)
(1.06274 0.0314777 0)
(1.07264 0.031521 0)
(1.08818 0.0316674 0)
(1.08225 0.0300163 0)
(0.968817 0.0232121 0)
(0.696238 0.0124279 0)
(0.363427 0.00376746 0)
(0.0679055 0.000170219 0)
(0.102046 0.00010365 0)
(0.648453 0.00160671 0)
(0.950375 0.00176994 0)
(1.11168 0.00199455 0)
(1.13818 0.00446917 0)
(1.12002 0.00886954 0)
(1.10242 0.0141486 0)
(1.08874 0.0198179 0)
(1.07721 0.0255407 0)
(1.06729 0.0307752 0)
(1.06071 0.0343375 0)
(1.05912 0.0359569 0)
(1.06301 0.0363089 0)
(1.0726 0.0358966 0)
(1.08682 0.035555 0)
(1.07364 0.0329677 0)
(0.944544 0.0248942 0)
(0.66534 0.0132175 0)
(0.341312 0.0040231 0)
(0.062509 0.000182931 0)
(0.104913 0.000151891 0)
(0.653223 0.00306569 0)
(0.951898 0.00468996 0)
(1.11573 0.00606882 0)
(1.14565 0.00910391 0)
(1.12791 0.0140716 0)
(1.10962 0.0199512 0)
(1.09499 0.0261908 0)
(1.0822 0.0323596 0)
(1.07069 0.0377779 0)
(1.06248 0.0411543 0)
(1.05963 0.0423441 0)
(1.0627 0.0422443 0)
(1.07191 0.0413223 0)
(1.08413 0.0404644 0)
(1.06258 0.0367098 0)
(0.917219 0.0271147 0)
(0.632145 0.0142736 0)
(0.317631 0.00434378 0)
(0.0567055 0.000197047 0)
(0.109098 0.000214817 0)
(0.662643 0.00475683 0)
(0.957475 0.00813529 0)
(1.12209 0.010863 0)
(1.15429 0.0146511 0)
(1.13678 0.0203664 0)
(1.11766 0.0269915 0)
(1.10183 0.0339273 0)
(1.08749 0.0406242 0)
(1.07407 0.0462408 0)
(1.06393 0.0493773 0)
(1.05962 0.05007 0)
(1.06173 0.0494638 0)
(1.07048 0.0479664 0)
(1.0802 0.0465024 0)
(1.04858 0.0413443 0)
(0.886143 0.029906 0)
(0.595904 0.015578 0)
(0.291964 0.00471529 0)
(0.0504359 0.000211316 0)
(0.114942 0.000299159 0)
(0.677482 0.00685568 0)
(0.967738 0.0123072 0)
(1.13131 0.0166223 0)
(1.16446 0.02138 0)
(1.14689 0.0280707 0)
(1.12671 0.0356118 0)
(1.10939 0.0433763 0)
(1.09311 0.0506609 0)
(1.07739 0.0564472 0)
(1.065 0.0592478 0)
(1.05892 0.0593104 0)
(1.06002 0.0581495 0)
(1.06827 0.0560259 0)
(1.07476 0.0538565 0)
(1.03098 0.0469514 0)
(0.850465 0.0332559 0)
(0.555847 0.0170822 0)
(0.263965 0.00511114 0)
(0.0436775 0.000223793 0)
(0.122949 0.00042122 0)
(0.698713 0.00960854 0)
(0.983567 0.017516 0)
(1.14406 0.0236933 0)
(1.17666 0.0296936 0)
(1.15853 0.037657 0)
(1.13697 0.0463057 0)
(1.11772 0.0550096 0)
(1.09904 0.0628796 0)
(1.08055 0.0687132 0)
(1.06555 0.0710031 0)
(1.0575 0.070296 0)
(1.05748 0.0684509 0)
(1.06521 0.065624 0)
(1.06746 0.0625549 0)
(1.00892 0.0535955 0)
(0.809182 0.0371138 0)
(0.511238 0.0187042 0)
(0.23343 0.00549364 0)
(0.0364616 0.000232189 0)
(0.133848 0.000593976 0)
(0.727558 0.0133845 0)
(1.00613 0.0242361 0)
(1.16113 0.0326242 0)
(1.19147 0.040189 0)
(1.17207 0.049794 0)
(1.14859 0.0597352 0)
(1.12683 0.0694253 0)
(1.10516 0.077766 0)
(1.08338 0.0834003 0)
(1.06542 0.0849044 0)
(1.05523 0.0832348 0)
(1.054 0.0805806 0)
(1.06095 0.0768847 0)
(1.05758 0.0727697 0)
(0.981318 0.0612356 0)
(0.761183 0.0413438 0)
(0.461482 0.0203054 0)
(0.200379 0.00580876 0)
(0.0288918 0.000233675 0)
(0.148897 0.000872062 0)
(0.766053 0.0187973 0)
(1.03708 0.0332593 0)
(1.18347 0.0443662 0)
(1.2097 0.0540254 0)
(1.18782 0.0655148 0)
(1.16164 0.0768532 0)
(1.13656 0.0874001 0)
(1.1112 0.0958796 0)
(1.0856 0.100869 0)
(1.06439 0.101176 0)
(1.05194 0.0982772 0)
(1.04946 0.0946732 0)
(1.05515 0.090192 0)
(1.04433 0.0845538 0)
(0.94676 0.0697283 0)
(0.705368 0.0456793 0)
(0.406317 0.0216815 0)
(0.165189 0.00598775 0)
(0.0211627 0.000225219 0)
(0.170312 0.00135339 0)
(0.817486 0.0270164 0)
(1.07903 0.0461623 0)
(1.21219 0.0607913 0)
(1.23188 0.073215 0)
(1.20587 0.0864507 0)
(1.17585 0.0989869 0)
(1.14649 0.109877 0)
(1.1167 0.11782 0)
(1.08681 0.121449 0)
(1.06216 0.119981 0)
(1.04746 0.115503 0)
(1.04376 0.11078 0)
(1.04781 0.105444 0)
(1.02656 0.0977961 0)
(0.903519 0.0786803 0)
(0.640929 0.0497084 0)
(0.346179 0.0225773 0)
(0.128756 0.00595872 0)
(0.0135787 0.000203584 0)
(0.201519 0.00242216 0)
(0.887625 0.0407651 0)
(1.1356 0.0668107 0)
(1.24775 0.0854656 0)
(1.2578 0.100518 0)
(1.22561 0.114951 0)
(1.19039 0.127719 0)
(1.1558 0.13782 0)
(1.12096 0.14411 0)
(1.08649 0.145374 0)
(1.05839 0.141381 0)
(1.04157 0.134912 0)
(1.03678 0.128858 0)
(1.03847 0.122472 0)
(1.0027 0.112116 0)
(0.849578 0.0873856 0)
(0.567986 0.0528833 0)
(0.282925 0.0228112 0)
(0.0928676 0.00571081 0)
(0.00664717 0.000169069 0)
(0.244031 0.00871562 3.92332e-20)
(0.980584 0.068205 3.44104e-20)
(1.20456 0.101406 -1.21148e-20)
(1.28705 0.121942 0)
(1.28464 0.139511 -3.18221e-34)
(1.24488 0.153328 4.6748e-21)
(1.20371 0.164556 -8.54712e-21)
(1.16335 0.172456 0)
(1.12314 0.176007 1.78415e-34)
(1.08384 0.174096 -1.08348e-20)
(1.05211 0.167099 0)
(1.03309 0.15848 -1.29907e-20)
(1.02747 0.151301 -3.84093e-20)
(1.02583 0.14463 -1.81745e-20)
(0.968619 0.130017 -5.48412e-21)
(0.778669 0.0972721 -3.26159e-21)
(0.48138 0.0555365 0)
(0.214989 0.0227677 2.28023e-21)
(0.0575288 0.00552397 2.69183e-21)
(0.000333895 0.000133396 4.85399e-20)
(0.273819 0.0243275 2.65716e-20)
(1.05732 0.111097 5.44112e-22)
(1.26142 0.150714 3.13268e-21)
(1.32221 0.171461 0)
(1.30819 0.188809 -1.5828e-20)
(1.26142 0.200441 -1.8162e-20)
(1.21436 0.209341 -8.54666e-21)
(1.16819 0.214744 -3.08397e-20)
(1.12239 0.215501 0)
(1.07786 0.21047 4.60284e-20)
(1.04207 0.200563 4.587e-20)
(1.02064 0.189823 1.36677e-20)
(1.01293 0.180897 5.00956e-20)
(1.00299 0.171957 7.06552e-20)
(0.914723 0.150803 0)
(0.682551 0.107382 9.97451e-20)
(0.379336 0.0576157 1.42996e-19)
(0.14436 0.0219703 1.58743e-19)
(0.0219545 0.00410486 -1.81439e-19)
(-0.00616005 -0.000506055 -3.41891e-21)
(0.274838 0.0402686 0)
(1.10582 0.166666 4.17665e-21)
(1.29971 0.211375 0)
(1.34951 0.231553 -1.92051e-20)
(1.32667 0.245802 0)
(1.27401 0.25355 -3.50732e-20)
(1.22143 0.258699 1.73118e-20)
(1.16976 0.260491 -6.14972e-20)
(1.11866 0.257579 -1.58479e-21)
(1.06919 0.248774 2.36914e-20)
(1.02954 0.235499 1.00941e-19)
(1.00577 0.222279 -2.13906e-22)
(0.99571 0.211436 -3.64016e-20)
(0.976857 0.199503 -6.65159e-20)
(0.866018 0.170666 7.87666e-20)
(0.613574 0.116394 -1.3947e-19)
(0.319545 0.0594622 -1.84009e-20)
(0.107585 0.0208818 0)
(0.00385642 0.00191089 -1.27978e-23)
(-0.00974849 -0.00137737 0)
(0.268313 0.0540469 4.10856e-20)
(1.13191 0.225511 -2.21044e-20)
(1.32328 0.276487 -1.9683e-20)
(1.3676 0.296807 8.70963e-21)
(1.33866 0.307103 -1.48263e-20)
(1.28158 0.3103 7.30789e-20)
(1.22447 0.311007 3.59179e-20)
(1.16806 0.308531 0)
(1.11222 0.301388 -1.17477e-19)
(1.05819 0.288316 0)
(1.01495 0.271287 -5.28009e-20)
(0.98891 0.255314 -6.56631e-20)
(0.976489 0.242143 -3.96235e-20)
(0.950326 0.226509 -4.82872e-20)
(0.826178 0.190168 0)
(0.568914 0.126552 0)
(0.287889 0.0632405 -1.19744e-19)
(0.0887625 0.020397 2.36398e-20)
(-0.00687019 -0.000538645 -1.38321e-20)
(-0.0124601 -0.00243652 -1.61819e-20)
(0.260497 0.0661961 -6.24025e-21)
(1.14323 0.284159 0)
(1.33616 0.342476 3.48573e-20)
(1.37746 0.363428 2.32258e-20)
(1.34426 0.369856 3.51154e-20)
(1.28396 0.368471 0)
(1.22328 0.36462 3.45537e-20)
(1.16295 0.357679 6.75727e-20)
(1.10303 0.346068 5.97937e-20)
(1.04494 0.328478 1.11676e-19)
(0.998362 0.307451 0)
(0.970074 0.288473 -1.41533e-19)
(0.955309 0.272755 -8.55394e-20)
(0.923528 0.253355 -5.06479e-20)
(0.793658 0.210324 3.10768e-19)
(0.540967 0.138729 3.69195e-20)
(0.27268 0.0690336 1.73327e-19)
(0.0811939 0.0209221 -8.20022e-19)
(-0.0119908 -0.00270361 4.84525e-19)
(-0.014294 -0.00353814 -5.83887e-19)
(0.252924 0.0771264 9.7558e-21)
(1.14506 0.340733 7.57212e-22)
(1.34124 0.407423 -2.44632e-21)
(1.38067 0.429525 -1.93174e-20)
(1.34441 0.432322 -2.7176e-20)
(1.28171 0.426536 1.80252e-21)
(1.21822 0.418275 -3.75134e-20)
(1.15467 0.40693 6.94654e-20)
(1.09126 0.390861 -1.28717e-19)
(1.02953 0.368712 0)
(0.979838 0.343577 -6.39043e-20)
(0.949322 0.321479 -1.59389e-21)
(0.932283 0.303152 -9.37395e-20)
(0.896647 0.280132 0)
(0.766372 0.231265 -6.73434e-20)
(0.523344 0.152851 -1.59747e-19)
(0.267693 0.0770954 4.25142e-19)
(0.0816751 0.0230947 -4.18934e-19)
(-0.012225 -0.0039373 5.94103e-19)
(-0.0150197 -0.00446833 -6.17242e-19)
(0.246461 0.0871862 -4.19408e-22)
(1.14094 0.394569 3.64945e-21)
(1.34069 0.470333 1.36483e-22)
(1.37866 0.493892 5.75018e-21)
(1.34018 0.493458 -1.33053e-20)
(1.27568 0.483558 0)
(1.20992 0.471139 -3.39163e-20)
(1.14367 0.455586 -7.24941e-20)
(1.07721 0.435208 -6.66484e-20)
(1.01222 0.408583 0)
(0.959617 0.379364 -6.61163e-20)
(0.926931 0.354151 -8.24986e-20)
(0.907735 0.333177 1.01808e-19)
(0.869455 0.306698 -6.19343e-20)
(0.741845 0.252913 -2.94661e-19)
(0.510764 0.16852 1.74759e-19)
(0.267698 0.0867058 5.17903e-20)
(0.0864637 0.026873 0)
(-0.0088241 -0.00387883 -5.75713e-19)
(-0.0146627 -0.00505944 -2.11359e-20)
(0.241231 0.096689 4.65099e-21)
(1.13321 0.445483 -6.69831e-21)
(1.33601 0.530738 -1.41264e-21)
(1.37269 0.555822 2.35363e-20)
(1.33253 0.552601 -4.53078e-20)
(1.26665 0.538958 6.35025e-20)
(1.19904 0.522683 7.32058e-20)
(1.13051 0.503188 -1.15796e-19)
(1.06137 0.478725 4.18912e-20)
(0.993392 0.447791 -2.74781e-19)
(0.938066 0.41461 -7.51807e-20)
(0.903254 0.386328 0)
(0.882009 0.362799 1.10663e-19)
(0.841855 0.333078 1.3298e-19)
(0.71859 0.274635 1.59023e-19)
(0.49972 0.185148 -1.90422e-19)
(0.268952 0.0975375 -5.62341e-20)
(0.0929113 0.0321403 6.61085e-20)
(-0.00334513 -0.00254394 0)
(-0.0135218 -0.00528977 -4.60034e-20)
(0.237164 0.105802 -7.24928e-20)
(1.12353 0.493585 4.02449e-20)
(1.32847 0.588451 3.18027e-21)
(1.36379 0.615 1.15007e-20)
(1.32226 0.609359 -1.80743e-20)
(1.25533 0.592341 -4.10014e-21)
(1.18622 0.572559 -8.04691e-20)
(1.11572 0.549435 -4.20252e-20)
(1.04417 0.521153 -1.16097e-19)
(0.973427 0.486136 3.25075e-22)
(0.915516 0.449124 -2.35181e-19)
(0.87867 0.41783 2.00212e-19)
(0.855515 0.391789 -1.22029e-19)
(0.813924 0.358929 1.47053e-19)
(0.695166 0.296155 0)
(0.488043 0.202057 -1.03841e-19)
(0.269445 0.108831 2.62827e-22)
(0.0993052 0.0383361 -2.89493e-19)
(0.00287875 -0.000301284 -4.24599e-20)
(-0.0119229 -0.00521245 0)
(0.234138 0.114672 0)
(1.11288 0.539103 4.64509e-20)
(1.31899 0.643845 1.83214e-20)
(1.35276 0.67128 -7.56492e-21)
(1.31008 0.663522 -2.60106e-20)
(1.24233 0.643487 0)
(1.17198 0.620546 -3.51281e-20)
(1.09975 0.594123 -1.04187e-21)
(1.02602 0.562329 2.49116e-19)
(0.952673 0.523482 -3.76291e-20)
(0.892278 0.482774 -1.70116e-19)
(0.853494 0.448551 1.03939e-19)
(0.828566 0.420042 -2.23854e-21)
(0.785717 0.384057 1.56632e-19)
(0.67093 0.317007 9.65013e-20)
(0.474571 0.218617 -2.24451e-19)
(0.267344 0.120092 2.65688e-19)
(0.103964 0.0449341 7.87217e-20)
(0.00867928 0.0025469 3.24259e-19)
(-0.0101155 -0.00486084 -8.65927e-19)
(0.232085 0.12345 -2.43786e-20)
(1.10197 0.582226 3.28169e-20)
(1.30818 0.696257 -2.20274e-20)
(1.34024 0.724633 -7.85761e-25)
(1.29654 0.714992 0)
(1.22815 0.692267 -2.6015e-20)
(1.15676 0.666515 1.19796e-19)
(1.08301 0.637131 9.17143e-20)
(1.00726 0.602145 0)
(0.931426 0.559742 -5.4468e-19)
(0.8686 0.51549 4.61308e-19)
(0.827947 0.478419 0)
(0.801336 0.447429 1.43176e-19)
(0.75723 0.408217 -2.23207e-21)
(0.645345 0.336834 -3.098e-19)
(0.459225 0.23386 1.21027e-19)
(0.262402 0.130597 0)
(0.106044 0.0511843 4.25708e-19)
(0.0130631 0.00536785 0)
(-0.00846184 -0.00442086 -4.10791e-19)
(0.230853 0.132205 2.9343e-20)
(1.09121 0.623188 4.29531e-20)
(1.2966 0.745769 -2.17275e-20)
(1.32671 0.775071 0)
(1.28212 0.76375 -1.75766e-20)
(1.21323 0.738645 0)
(1.14096 0.710402 -1.15839e-19)
(1.06586 0.678389 -4.15234e-20)
(0.98821 0.640545 4.35714e-20)
(0.909945 0.594874 -2.69687e-19)
(0.844688 0.547254 4.75207e-20)
(0.802204 0.50736 0)
(0.773998 0.473766 -3.06132e-19)
(0.728615 0.431119 2.15562e-21)
(0.618967 0.355005 0)
(0.44161 0.24736 1.09777e-21)
(0.254448 0.139606 3.89996e-19)
(0.105021 0.0563448 -3.67949e-19)
(0.0154582 0.00763948 1.08632e-19)
(-0.00719043 -0.00402764 0)
(0.230122 0.140836 0)
(1.0809 0.662055 5.1971e-20)
(1.28446 0.792563 3.24594e-20)
(1.31259 0.822648 -2.54006e-21)
(1.26719 0.809824 -2.18188e-21)
(1.1979 0.782621 -5.85795e-20)
(1.1249 0.752188 4.41845e-20)
(1.04856 0.717866 -5.00496e-20)
(0.969124 0.677493 1.95911e-19)
(0.888453 0.628869 -4.31749e-19)
(0.82072 0.578069 -4.11642e-21)
(0.776376 0.535299 -1.33494e-19)
(0.746614 0.49891 4.97607e-19)
(0.699863 0.452467 -2.58226e-21)
(0.59185 0.371224 -2.41255e-19)
(0.422121 0.258687 -4.28695e-19)
(0.243948 0.146628 0)
(0.101575 0.0598616 0)
(0.0160518 0.00900372 1.17297e-19)
(-0.00632974 -0.00378533 -6.88294e-20)
(0.2301 0.149471 4.14274e-20)
(1.0712 0.698749 -1.18313e-19)
(1.27204 0.836738 -3.48271e-20)
(1.29819 0.867429 0)
(1.25204 0.853273 -1.50696e-21)
(1.18245 0.824223 -4.92803e-20)
(1.10883 0.791886 1.03881e-19)
(1.03137 0.755559 1.94294e-19)
(0.950231 0.712989 2.54026e-19)
(0.867158 0.661743 -3.52521e-19)
(0.796845 0.607958 -3.98006e-19)
(0.750534 0.562234 3.57353e-19)
(0.719179 0.522804 0)
(0.67094 0.472038 -1.09837e-19)
(0.564125 0.385149 -2.6097e-19)
(0.400934 0.267405 -3.08548e-19)
(0.231139 0.151296 -3.64163e-19)
(0.095896 0.0616274 1.07559e-19)
(0.01515 0.00939946 -6.31996e-20)
(-0.00584877 -0.00371528 3.02644e-22)
(0.230204 0.158029 0)
(1.06222 0.733657 0)
(1.25959 0.878389 2.47537e-21)
(1.28375 0.909531 0)
(1.23691 0.894189 -6.35023e-21)
(1.16709 0.863513 2.97461e-20)
(1.09296 0.829524 0)
(1.01449 0.791481 2.25574e-20)
(0.931725 0.747037 4.23253e-19)
(0.846243 0.693523 -8.11642e-19)
(0.773194 0.636968 0)
(0.724723 0.588245 -2.30428e-19)
(0.691626 0.545435 -3.03274e-21)
(0.641764 0.489627 -2.30863e-21)
(0.535799 0.39646 2.79544e-19)
(0.378193 0.273241 -6.39972e-23)
(0.21659 0.153376 -7.84947e-19)
(0.0884954 0.0615584 2.3149e-19)
(0.0131608 0.00896136 6.83821e-20)
(-0.00560966 -0.00375399 0)
(0.230445 0.166461 -1.66214e-19)
(1.0537 0.766916 -8.02445e-20)
(1.24723 0.917608 -1.03772e-19)
(1.26944 0.949094 9.87531e-20)
(1.22198 0.932647 -2.64539e-20)
(1.15202 0.900558 0)
(1.07745 0.865151 6.08657e-20)
(0.998072 0.825659 -5.08417e-20)
(0.913762 0.779658 3.91643e-21)
(0.825875 0.724244 6.00923e-20)
(0.749894 0.665182 5.16282e-19)
(0.698968 0.613471 -8.08044e-20)
(0.663846 0.566833 -3.07513e-19)
(0.612174 0.50505 -1.2818e-19)
(0.506959 0.404803 1.51756e-19)
(0.354699 0.27593 1.07574e-22)
(0.200781 0.152772 2.11475e-19)
(0.0799916 0.0597469 -4.98248e-19)
(0.0105026 0.00781149 5.8883e-19)
(-0.00551709 -0.003868 8.58413e-20)
(0.230617 0.174633 6.32571e-20)
(1.04567 0.79861 -4.52763e-20)
(1.23507 0.954496 6.23848e-21)
(1.25537 0.986251 6.43467e-20)
(1.20738 0.968762 1.23866e-20)
(1.13734 0.935432 -4.84551e-20)
(1.06245 0.898816 1.62767e-20)
(0.982245 0.858114 -2.11173e-19)
(0.896478 0.810854 -4.65665e-19)
(0.806189 0.753919 -4.83851e-19)
(0.727087 0.692696 0)
(0.673297 0.638077 -3.56059e-19)
(0.635714 0.587082 4.43953e-19)
(0.581929 0.518161 0)
(0.477547 0.409789 -3.25272e-19)
(0.331066 0.275002 1.93327e-19)
(0.185014 0.14931 -2.27464e-19)
(0.0716414 0.0564806 -2.68128e-19)
(0.00783126 0.00625056 -4.74372e-19)
(-0.00552111 -0.00403364 -3.69743e-19)
(0.231154 0.18268 -7.16301e-20)
(1.03796 0.828736 4.84493e-20)
(1.22318 0.989127 1.1012e-19)
(1.24164 1.02109 9.47036e-20)
(1.19322 1.00263 -2.2175e-20)
(1.12316 0.968223 -2.13681e-20)
(1.04802 0.930573 5.55226e-20)
(0.9671 0.888892 -2.15582e-19)
(0.879963 0.840653 -2.7579e-19)
(0.78731 0.782568 5.06404e-19)
(0.704899 0.719603 1.13602e-18)
(0.647775 0.662227 0)
(0.60712 0.606353 0)
(0.550657 0.528963 -1.47674e-19)
(0.447235 0.410973 0)
(0.30753 0.269554 4.15498e-19)
(0.170739 0.142168 4.88993e-19)
(0.0654716 0.0516714 0)
(0.00637895 0.00461912 0)
(-0.00552677 -0.00418645 3.97441e-19)
(0.231372 0.190307 8.16123e-20)
(1.0306 0.857288 6.58564e-20)
(1.21162 1.02163 8.00989e-20)
(1.22831 1.05373 -9.20056e-20)
(1.17956 1.03436 -3.08029e-20)
(1.10955 0.999009 1.4887e-20)
(1.03425 0.960484 -7.52821e-20)
(0.952704 0.918021 -6.03571e-22)
(0.8643 0.869062 -5.0966e-21)
(0.769336 0.810195 -4.52327e-21)
(0.683477 0.745969 5.85526e-19)
(0.622511 0.686072 0)
(0.578 0.624915 4.50848e-19)
(0.517938 0.537647 3.15543e-19)
(0.41526 0.408118 7.59777e-19)
(0.283662 0.258265 2.23995e-19)
(0.159476 0.128592 -2.63121e-19)
(0.0659539 0.0420468 -1.54487e-19)
(0.0123861 0.00184598 0)
(-0.00336817 -0.00355379 4.27254e-19)
(0.231918 0.197956 -1.84374e-19)
(1.02354 0.884361 0)
(1.20038 1.05205 9.46917e-20)
(1.21543 1.08425 -7.8328e-20)
(1.16646 1.06404 4.39022e-20)
(1.09654 1.02787 -3.2688e-21)
(1.02117 0.988607 1.39999e-19)
(0.939098 0.945536 -1.79622e-20)
(0.849538 0.89609 0)
(0.752351 0.836779 -5.5829e-19)
(0.66296 0.771817 -1.27339e-18)
(0.597659 0.709757 5.26033e-20)
(0.5484 0.643104 6.23475e-19)
(0.483454 0.544651 0)
(0.380401 0.401623 5.1341e-19)
(0.257148 0.240018 0)
(0.149087 0.102417 0)
(0.0779391 0.0131043 -1.67053e-19)
(0.0475208 -0.0126476 0)
(0.027037 0.0104028 1.14514e-19)
(0.232115 0.205026 -2.06379e-19)
(1.01676 0.910294 0)
(1.18945 1.0806 1.58052e-19)
(1.20296 1.11288 0)
(1.15388 1.09195 -2.73335e-20)
(1.08408 1.05511 0)
(1.00873 1.01525 5.7912e-21)
(0.926183 0.971774 2.95114e-20)
(0.835553 0.922097 3.46455e-20)
(0.736184 0.862704 -6.1178e-19)
(0.643155 0.797574 3.80639e-20)
(0.572976 0.733924 4.24795e-19)
(0.517878 0.661767 6.08848e-19)
(0.446275 0.550597 8.22652e-20)
(0.340633 0.392884 4.03056e-19)
(0.222826 0.215718 0)
(0.127207 0.0591289 5.54716e-19)
(0.0691169 -0.0302511 -3.23657e-19)
(0.0420079 0.0421622 3.76498e-19)
(-0.0690618 0.437812 -4.43648e-19)
(0.232313 0.211913 1.7114e-19)
(1.00997 0.934857 2.63253e-19)
(1.17876 1.1076 0)
(1.19074 1.14006 4.92037e-21)
(1.14162 1.11866 8.20364e-20)
(1.0719 1.08139 -3.2297e-20)
(0.996604 1.04122 4.47704e-20)
(0.913545 0.997665 0)
(0.821804 0.948163 2.26835e-19)
(0.72016 0.889267 -3.16267e-20)
(0.62314 0.824714 0)
(0.547187 0.760261 0)
(0.484419 0.68238 5.46346e-19)
(0.403979 0.556011 -2.54801e-19)
(0.292677 0.383736 -4.09261e-19)
(0.175767 0.18869 0)
(0.0743431 0.0692423 2.80015e-19)
(0.00316276 0.437572 -3.22986e-19)
(0.032821 1.8935 -1.76121e-19)
(0.0620006 2.8133 -2.25753e-19)
(0.23235 0.217993 -1.28772e-19)
(1.0034 0.958242 -3.38264e-19)
(1.16829 1.13302 9.41278e-20)
(1.17878 1.16568 7.72298e-20)
(1.12969 1.14394 0)
(1.06008 1.10643 -3.33884e-20)
(0.984994 1.06619 5.52263e-20)
(0.901377 1.02278 -1.39901e-20)
(0.808566 0.973775 3.4034e-20)
(0.704666 0.915866 5.82073e-19)
(0.603519 0.852602 6.44253e-19)
(0.521214 0.788414 4.76958e-19)
(0.448833 0.705087 5.50646e-19)
(0.358084 0.559926 -6.00338e-19)
(0.241864 0.377877 -6.19291e-19)
(0.118902 0.23305 0)
(0.0421149 0.83074 0)
(0.0995644 2.5526 1.54111e-19)
(0.100827 3.20295 0)
(0.10416 3.38876 3.65624e-19)
(0.234927 0.223613 0)
(0.997626 0.980653 0)
(1.15784 1.15673 0)
(1.16687 1.18956 2.34508e-20)
(1.11777 1.16753 7.53241e-20)
(1.04839 1.13011 -3.72876e-20)
(0.973791 1.09006 3.32583e-20)
(0.889639 1.04702 -1.347e-20)
(0.795807 0.998801 2.80201e-19)
(0.689737 0.942369 -8.90078e-21)
(0.584456 0.881151 1.27219e-18)
(0.495359 0.818255 -5.52273e-20)
(0.411296 0.731002 6.66729e-20)
(0.311167 0.560062 8.70585e-20)
(0.178526 0.389617 -5.55493e-21)
(0.0972115 0.960781 1.84606e-21)
(0.138132 2.72456 -8.18603e-19)
(0.146068 3.2931 -3.05781e-19)
(0.135425 3.42563 1.56768e-19)
(0.123255 3.44782 -1.73966e-19)
(0.153727 0.18098 7.64015e-20)
(0.986508 1.00483 0)
(1.14702 1.17891 -1.88943e-19)
(1.15551 1.21222 -2.10209e-19)
(1.10673 1.19028 1.79732e-19)
(1.03779 1.15311 4.42409e-20)
(0.962942 1.11291 -3.11064e-20)
(0.878444 1.07052 1.40597e-19)
(0.783698 1.02342 -2.27668e-19)
(0.675669 0.968958 0)
(0.566372 0.910583 6.24033e-19)
(0.470178 0.849684 -3.89544e-19)
(0.373449 0.762838 0)
(0.257138 0.55701 8.13631e-20)
(0.141234 0.73273 1.94387e-19)
(0.153884 2.49825 -2.25032e-19)
(0.210344 3.32216 2.517e-19)
(0.190806 3.43776 1.34396e-19)
(0.158919 3.45952 1.5012e-19)
(0.13742 3.46996 2.36208e-19)
(0.277739 0.261461 -1.39429e-19)
(0.971101 1.01449 0)
(1.12883 1.20422 2.06246e-19)
(1.14048 1.24263 2.30625e-19)
(1.08931 1.22328 -2.00503e-19)
(1.0196 1.18648 -6.7363e-20)
(0.943829 1.14793 1.31314e-20)
(0.858813 1.10677 1.11909e-20)
(0.762737 1.06186 2.13563e-19)
(0.651917 1.01137 4.97773e-19)
(0.537275 0.959505 3.4913e-20)
(0.430023 0.9038 3.46024e-19)
(0.303834 0.799014 6.25713e-20)
(0.211753 0.911993 -7.99985e-20)
(0.228379 2.34609 -1.8069e-19)
(0.290025 3.32376 1.70418e-19)
(0.272922 3.46587 -1.86654e-19)
(0.237614 3.48816 -1.07186e-19)
(0.200668 3.51614 -8.72037e-20)
(0.149228 3.51059 -1.02604e-20)
(0.265577 0.25832 0)
(0.968662 1.03704 5.99288e-20)
(1.12044 1.22764 -4.26385e-20)
(1.12981 1.26625 -2.7613e-20)
(1.07845 1.24647 -1.39296e-19)
(1.00869 1.20989 7.04199e-20)
(0.932598 1.17148 -4.42499e-22)
(0.847375 1.13113 9.76937e-21)
(0.750758 1.08771 -2.20347e-19)
(0.638613 1.04013 -1.36587e-20)
(0.521093 0.993198 -1.12413e-18)
(0.408581 0.941963 4.9509e-20)
(0.284974 0.863749 -5.88851e-20)
(0.254482 1.47322 -7.36565e-20)
(0.33028 3.09846 1.81729e-20)
(0.349399 3.46289 1.97012e-22)
(0.309111 3.51954 2.60738e-19)
(0.271782 3.54682 1.23518e-19)
(0.223143 3.57066 -2.35193e-20)
(0.164177 3.56701 -4.49503e-20)
(0.24942 0.256831 1.52098e-19)
(0.964635 1.06227 4.09259e-19)
(1.11164 1.25317 -1.22289e-19)
(1.11855 1.29128 -1.04244e-19)
(1.06696 1.27099 0)
(0.997346 1.23447 1.29287e-19)
(0.921235 1.19631 1.43167e-20)
(0.836085 1.15675 8.23202e-21)
(0.739249 1.11492 -2.47484e-20)
(0.62631 1.07051 -4.44441e-19)
(0.506761 1.02891 -5.16024e-19)
(0.390613 0.981395 -4.0258e-19)
(0.286587 0.992433 -4.45372e-19)
(0.324876 2.1966 4.60038e-19)
(0.418084 3.37192 3.78738e-19)
(0.394264 3.52023 0)
(0.348821 3.56605 0)
(0.310727 3.60755 -1.72434e-20)
(0.259869 3.66814 0)
(0.176861 3.64454 -9.26435e-21)
(0.238788 0.258739 -2.28111e-19)
(0.958681 1.08859 -3.47877e-19)
(1.10141 1.27987 0)
(1.10592 1.31703 5.89734e-21)
(1.05418 1.29611 -1.5161e-19)
(0.984867 1.25953 2.10845e-19)
(0.909079 1.22166 1.79108e-20)
(0.824207 1.1828 3.27413e-21)
(0.727391 1.14251 -1.49721e-19)
(0.614076 1.10126 2.17319e-20)
(0.493434 1.06513 0)
(0.37218 1.02236 0)
(0.308102 1.24902 -4.0401e-19)
(0.409505 2.87731 1.63507e-19)
(0.490582 3.47937 2.04077e-19)
(0.44174 3.55281 0)