/*--------------------------------*- C++ -*----------------------------------*\
  =========                 |
  \\      /  F ield         | OpenFOAM: The Open Source CFD Toolbox
   \\    /   O peration     | Website:  https://openfoam.org
    \\  /    A nd           | Version:  10
     \\/     M anipulation  |
\*---------------------------------------------------------------------------*/
FoamFile
{
    format      ascii;
    class       volScalarField;
    location    "46";
    object      p;
}
// * * * * * * * * * * * * * * * * * * * * * * * * * * * * * * * * * * * * * //

dimensions      [0 2 -2 0 0 0 0];

internalField   nonuniform List<scalar> 
8800
(
0.828941
0.781153
0.742461
0.713462
0.692594
0.677755
0.667148
0.659655
0.654819
0.652739
0.65398
0.658149
0.664777
0.67408
0.68685
0.704577
0.729349
0.763287
0.805833
0.864535
0.660197
0.667875
0.675344
0.67865
0.677143
0.672059
0.665565
0.659476
0.654737
0.651872
0.651567
0.654047
0.658514
0.664443
0.6712
0.677471
0.681106
0.680366
0.674941
0.666247
0.638611
0.644769
0.648894
0.651833
0.653875
0.654471
0.653353
0.651233
0.649197
0.648263
0.649197
0.651552
0.65433
0.656495
0.65709
0.655881
0.653532
0.650133
0.645573
0.641811
0.632822
0.635471
0.638219
0.640615
0.642242
0.643393
0.644121
0.644221
0.643903
0.643824
0.644543
0.645683
0.646498
0.646542
0.645917
0.644814
0.642989
0.640411
0.638003
0.636499
0.62747
0.628894
0.630668
0.632692
0.634467
0.635796
0.636768
0.637544
0.638131
0.63866
0.639273
0.639733
0.639802
0.639489
0.638772
0.637508
0.635799
0.633941
0.632629
0.631797
0.622432
0.623351
0.624587
0.626144
0.627765
0.629275
0.630541
0.631582
0.632513
0.633366
0.634007
0.63429
0.63421
0.633738
0.632832
0.631611
0.630266
0.628993
0.628165
0.627614
0.617573
0.618242
0.619198
0.62049
0.621885
0.623326
0.624742
0.626034
0.627194
0.628249
0.629012
0.629323
0.62919
0.628639
0.627799
0.626824
0.625788
0.624848
0.624256
0.623851
0.612849
0.613365
0.614142
0.61526
0.616522
0.617875
0.619293
0.62073
0.62211
0.623384
0.624317
0.624716
0.624627
0.624187
0.623538
0.622776
0.62197
0.621266
0.620825
0.62051
0.608191
0.608601
0.60925
0.610243
0.611431
0.612733
0.614146
0.615659
0.617223
0.618744
0.619897
0.620462
0.620543
0.620302
0.61986
0.619295
0.618685
0.618166
0.617834
0.617578
0.603517
0.603851
0.604411
0.605323
0.60646
0.607743
0.609185
0.610785
0.61252
0.614306
0.615747
0.616576
0.616908
0.616896
0.616663
0.616305
0.615874
0.615506
0.615258
0.615045
0.598742
0.599019
0.599517
0.600382
0.601497
0.602801
0.604307
0.606032
0.607975
0.610066
0.611873
0.613048
0.613679
0.613928
0.61392
0.613764
0.613509
0.613273
0.613091
0.612908
0.593783
0.594015
0.594473
0.595322
0.596457
0.597822
0.599435
0.60134
0.603554
0.606025
0.608281
0.60987
0.61085
0.611393
0.611634
0.611682
0.6116
0.611481
0.611353
0.611193
0.588555
0.588752
0.58919
0.590052
0.591248
0.59272
0.594495
0.596646
0.599212
0.602168
0.60497
0.607045
0.60843
0.609304
0.609821
0.610079
0.610176
0.610168
0.610086
0.609941
0.582967
0.583134
0.58357
0.584474
0.585772
0.587401
0.589404
0.59188
0.594894
0.598455
0.60192
0.604579
0.606437
0.60769
0.608514
0.609027
0.609299
0.609391
0.609348
0.609215
0.576911
0.577054
0.577501
0.578476
0.579921
0.581766
0.584069
0.586958
0.590537
0.594842
0.599116
0.602479
0.604902
0.606602
0.607777
0.608562
0.609031
0.609231
0.609225
0.609098
0.570261
0.570377
0.57085
0.571927
0.573569
0.575698
0.578389
0.581804
0.586085
0.5913
0.596561
0.600775
0.603875
0.606106
0.607687
0.608778
0.60947
0.60978
0.609809
0.609686
0.56285
0.562942
0.563456
0.56467
0.566567
0.569058
0.57225
0.576338
0.581509
0.587857
0.594311
0.599531
0.603422
0.606267
0.608338
0.60979
0.610727
0.611155
0.611218
0.611095
0.554467
0.55456
0.555124
0.55649
0.558715
0.561675
0.5655
0.570434
0.576706
0.584442
0.592341
0.598776
0.603611
0.607191
0.609845
0.611721
0.612936
0.61349
0.613587
0.613461
0.544822
0.544895
0.545546
0.547128
0.549771
0.553331
0.55796
0.563958
0.571607
0.58105
0.590694
0.598571
0.604529
0.608981
0.612319
0.614694
0.616231
0.616926
0.617056
0.616925
0.533546
0.5336
0.534344
0.536235
0.539419
0.543751
0.54941
0.556762
0.56613
0.577657
0.58941
0.599005
0.606282
0.611763
0.615896
0.618869
0.620772
0.621618
0.621781
0.621639
0.520115
0.520154
0.521043
0.523337
0.527236
0.532588
0.539601
0.548711
0.560265
0.574371
0.588614
0.600197
0.609003
0.615676
0.62074
0.6244
0.626712
0.627716
0.627907
0.627751
0.503775
0.503803
0.504903
0.507765
0.512641
0.519367
0.528176
0.539557
0.553838
0.571056
0.588268
0.602188
0.612765
0.620822
0.626969
0.63142
0.634184
0.635349
0.63556
0.635386
0.48342
0.483446
0.484876
0.488583
0.494865
0.503533
0.514824
0.52924
0.547016
0.56802
0.588648
0.605169
0.617718
0.627328
0.634678
0.640037
0.643281
0.644597
0.644813
0.644616
0.457259
0.457304
0.459313
0.464412
0.472892
0.484437
0.499231
0.517671
0.539796
0.565273
0.589804
0.609232
0.623954
0.635269
0.643948
0.650277
0.653996
0.655426
0.655624
0.655397
0.422268
0.422417
0.425625
0.433301
0.445518
0.461462
0.481258
0.505
0.532475
0.563143
0.591974
0.614505
0.631513
0.644624
0.654744
0.662048
0.666169
0.667641
0.667788
0.667528
0.37269
0.373657
0.380078
0.393078
0.411815
0.434584
0.461293
0.491748
0.525544
0.561996
0.595397
0.621122
0.640448
0.655382
0.666934
0.675104
0.679474
0.680884
0.680952
0.680661
0.299579
0.306798
0.321731
0.344722
0.373188
0.405103
0.440274
0.478481
0.519322
0.562107
0.600491
0.629727
0.651642
0.668637
0.681774
0.690804
0.695412
0.696795
0.69683
0.696574
0.220715
0.237814
0.262058
0.295674
0.334304
0.375542
0.419297
0.465511
0.513872
0.56378
0.608189
0.641932
0.667248
0.686882
0.702062
0.712102
0.716816
0.718064
0.71813
0.718001
0.155091
0.175257
0.207249
0.249806
0.2974
0.347427
0.399498
0.453553
0.509281
0.566109
0.616282
0.654254
0.68271
0.704733
0.721506
0.73212
0.73677
0.738153
0.738313
0.738264
0.101351
0.123193
0.16068
0.209637
0.26428
0.321694
0.381121
0.442373
0.505022
0.568426
0.624046
0.665958
0.697284
0.721389
0.739564
0.751049
0.756457
0.757755
0.757911
0.757906
0.0565147
0.0795442
0.120809
0.17485
0.235174
0.298679
0.364405
0.432041
0.501004
0.570518
0.631224
0.67679
0.710725
0.736794
0.756384
0.768905
0.77476
0.776158
0.77639
0.776422
0.018296
0.0420147
0.0861264
0.144201
0.209299
0.277981
0.349175
0.422474
0.49717
0.572327
0.637767
0.686694
0.723024
0.750854
0.771682
0.784968
0.791263
0.792923
0.793239
0.793292
-0.0153017
0.00888759
0.0552738
0.116653
0.185782
0.258958
0.334997
0.413395
0.493339
0.573736
0.643581
0.695609
0.734091
0.763423
0.785243
0.799123
0.805765
0.807773
0.808157
0.808209
-0.0457317
-0.0211269
0.027125
0.0913358
0.163937
0.241043
0.321413
0.404451
0.489246
0.57455
0.648545
0.70346
0.743887
0.774528
0.797042
0.811302
0.818279
0.82051
0.820931
0.820968
-0.0739092
-0.0489167
0.000951291
0.0675678
0.143232
0.223816
0.308073
0.395351
0.484664
0.574615
0.652588
0.710274
0.752505
0.784215
0.807133
0.821726
0.828878
0.831279
0.831737
0.831756
-0.100598
-0.0751738
-0.0238044
0.0448976
0.123271
0.206956
0.294722
0.38589
0.479425
0.573818
0.655691
0.716132
0.760115
0.792767
0.816112
0.830766
0.838084
0.840594
0.841034
0.841018
-0.126121
-0.100258
-0.0477523
0.0230125
0.103784
0.190248
0.281188
0.375932
0.473422
0.572102
0.657872
0.721119
0.766856
0.800403
0.824106
0.838913
0.846272
0.848788
0.849242
0.849198
-0.15088
-0.124444
-0.0708821
0.00168325
0.0845886
0.173548
0.267369
0.365395
0.466591
0.569428
0.65914
0.725303
0.772861
0.807329
0.83139
0.846304
0.853663
0.856133
0.856554
0.856492
-0.174992
-0.148107
-0.0933681
-0.0192231
0.0655907
0.156786
0.25321
0.354243
0.458905
0.565772
0.659494
0.728734
0.778246
0.813725
0.838192
0.853189
0.860495
0.862887
0.863223
0.863111
-0.198564
-0.171131
-0.115359
-0.0397781
0.0467544
0.139945
0.238707
0.342471
0.450356
0.561112
0.658899
0.731421
0.783101
0.819742
0.844663
0.859693
0.866822
0.869048
0.869286
0.869126
-0.221708
-0.193676
-0.136908
-0.0600041
0.0280638
0.123038
0.223889
0.330117
0.440968
0.555431
0.657301
0.733334
0.787485
0.825507
0.850915
0.86586
0.872689
0.874656
0.874791
0.874599
-0.244424
-0.215715
-0.158003
-0.0798827
0.00956096
0.106104
0.208811
0.317234
0.430777
0.548713
0.654634
0.734403
0.791404
0.831146
0.857126
0.871805
0.878113
0.879733
0.87976
0.87955
-0.266547
-0.237203
-0.178586
-0.0993771
-0.00871027
0.0892173
0.193541
0.303902
0.41985
0.540986
0.650831
0.734525
0.794803
0.836766
0.86356
0.877777
0.883207
0.884302
0.884207
0.883996
-0.28805
-0.258107
-0.198639
-0.118435
-0.0266885
0.072442
0.178173
0.290205
0.408268
0.532277
0.645842
0.733566
0.797555
0.842387
0.87055
0.884278
0.888287
0.888432
0.888138
0.887981
-0.308995
-0.278382
-0.218125
-0.137017
-0.0443088
0.0558619
0.162796
0.276248
0.396124
0.52265
0.639621
0.731381
0.799446
0.847849
0.878341
0.892146
0.89432
0.892573
0.891653
0.891756
-0.329206
-0.298
-0.236984
-0.155057
-0.0615092
0.0395606
0.147506
0.262142
0.383535
0.512203
0.632164
0.727813
0.800185
0.852734
0.886751
0.902266
0.903434
0.898969
0.895855
0.895231
-0.348771
-0.316953
-0.255232
-0.172584
-0.0783229
0.0234921
0.132245
0.247826
0.370427
0.500855
0.623333
0.722586
0.79944
0.856428
0.894935
0.914646
0.917818
0.912315
0.903271
0.888321
-0.367615
-0.335227
-0.272989
-0.189793
-0.0950409
0.00731974
0.116594
0.232813
0.356258
0.487961
0.612469
0.714888
0.796575
0.858027
0.900815
0.926365
0.932544
0.921012
0.901681
0.888463
-0.385562
-0.352964
-0.290059
-0.206457
-0.111336
-0.00860855
0.10078
0.21743
0.341337
0.473789
0.599671
0.704306
0.79089
0.856394
0.89978
0.92495
0.934619
0.91288
0.844466
0.813377
-0.401949
-0.3714
-0.30611
-0.222002
-0.126465
-0.0237885
0.0851099
0.201904
0.32588
0.458465
0.584892
0.690586
0.781131
0.850974
0.887217
0.905695
0.899743
0.847476
0.778194
0.735413
-0.458225
-0.387626
-0.320769
-0.237497
-0.141996
-0.0396626
0.0695201
0.185957
0.309527
0.441548
0.567559
0.673194
0.763652
0.84028
0.846373
0.853453
0.809341
0.741544
0.66556
0.623152
-0.419556
-0.403357
-0.342523
-0.258974
-0.164657
-0.0624808
0.0456984
0.161468
0.283997
0.414423
0.538103
0.641564
0.723633
0.803293
0.793987
0.685427
0.582567
0.510972
0.43836
0.470382
-0.450943
-0.421368
-0.359521
-0.276727
-0.182353
-0.0804205
0.0280179
0.143139
0.264592
0.393163
0.513881
0.61303
0.686633
0.728462
0.681837
0.536969
0.411466
0.321493
0.223294
0.274769
-0.475163
-0.442646
-0.379532
-0.296483
-0.202014
-0.100173
0.00819094
0.122485
0.242547
0.368688
0.485606
0.578734
0.643336
0.651881
0.547766
0.376981
0.225839
0.108201
-0.0224553
0.0111965
-0.498873
-0.464807
-0.400501
-0.316547
-0.221893
-0.120163
-0.012297
0.101051
0.219533
0.342888
0.45515
0.541346
0.590501
0.56808
0.412049
0.217237
0.0277747
-0.139691
-0.328428
-0.345553
-0.521936
-0.487448
-0.422245
-0.337511
-0.242627
-0.141073
-0.0338274
0.0784611
0.195119
0.315333
0.422311
0.501162
0.531815
0.473853
0.28301
0.0736702
-0.143173
-0.332465
-0.575076
-0.876611
-0.545282
-0.510802
-0.445054
-0.3598
-0.264673
-0.163245
-0.056543
0.0546617
0.169402
0.286251
0.387727
0.458148
0.469372
0.360651
0.170931
-0.0379409
-0.241822
-0.414043
-0.482515
-0.563287
-0.569831
-0.535323
-0.469276
-0.38376
-0.288533
-0.187317
-0.0812469
0.0287083
0.141223
0.25421
0.349818
0.409631
0.396482
0.254138
0.071593
-0.118324
-0.280421
-0.372838
-0.396805
-0.412873
-0.595902
-0.561314
-0.495077
-0.409472
-0.314329
-0.213493
-0.10829
0.00011721
0.109995
0.218494
0.307725
0.354082
0.323442
0.155351
-0.0183575
-0.183123
-0.309001
-0.347889
-0.361012
-0.362284
-0.623689
-0.588932
-0.522509
-0.436914
-0.341999
-0.241766
-0.137683
-0.0311558
0.0756505
0.179093
0.261085
0.293336
0.244555
0.0639207
-0.100803
-0.248225
-0.32425
-0.341309
-0.342744
-0.342557
-0.653234
-0.618195
-0.551578
-0.466065
-0.37154
-0.272113
-0.169418
-0.0651192
0.0381955
0.136066
0.209971
0.231363
0.146705
-0.0198149
-0.176654
-0.298082
-0.334255
-0.333012
-0.332191
-0.331632
-0.684235
-0.648978
-0.582161
-0.496822
-0.402849
-0.304461
-0.203447
-0.101738
-0.00234301
0.0894917
0.155063
0.159974
0.0568209
-0.098124
-0.236832
-0.312518
-0.322706
-0.325083
-0.325703
-0.325345
-0.716104
-0.680719
-0.61399
-0.528941
-0.435716
-0.338628
-0.239599
-0.140867
-0.0457977
0.0397054
0.096796
0.0870885
-0.0238552
-0.164814
-0.281253
-0.312295
-0.321046
-0.322635
-0.322281
-0.321803
-0.748377
-0.712882
-0.646564
-0.562
-0.469765
-0.374265
-0.277566
-0.182204
-0.0918971
-0.0127094
0.0340155
0.0172408
-0.0974878
-0.219498
-0.313036
-0.329319
-0.321558
-0.320565
-0.320503
-0.320157
-0.780157
-0.744804
-0.679008
-0.595335
-0.504417
-0.410856
-0.316856
-0.225247
-0.14015
-0.0672856
-0.0302329
-0.0488915
-0.161308
-0.260772
-0.321098
-0.328689
-0.323915
-0.31997
-0.318716
-0.31841
-0.809821
-0.775235
-0.710339
-0.628002
-0.538855
-0.447641
-0.356748
-0.26926
-0.189723
-0.123617
-0.089808
-0.126363
-0.214048
-0.289269
-0.31566
-0.329834
-0.32683
-0.320757
-0.318992
-0.318277
-0.835813
-0.802241
-0.739403
-0.658816
-0.571985
-0.483593
-0.396285
-0.31327
-0.239466
-0.18082
-0.147986
-0.20862
-0.272596
-0.267158
-0.314494
-0.325715
-0.340836
-0.348409
-0.349861
-0.349057
-0.856009
-0.82416
-0.763989
-0.686312
-0.602421
-0.517478
-0.434225
-0.356044
-0.288116
-0.237529
-0.209471
-0.295682
-0.360134
-0.288299
-0.274214
-0.370528
-0.425214
-0.448658
-0.449008
-0.445866
-0.868148
-0.838954
-0.782395
-0.708479
-0.628577
-0.547799
-0.469113
-0.396068
-0.334141
-0.291759
-0.271392
-0.393943
-0.570036
-0.64039
-0.595608
-0.580686
-0.583607
-0.57857
-0.56696
-0.563834
-0.869583
-0.844375
-0.792536
-0.72352
-0.648631
-0.572904
-0.49929
-0.431496
-0.375521
-0.340836
-0.327524
-0.488173
-0.788459
-1.16787
-1.08532
-0.809241
-0.652106
-0.593459
-0.576601
-0.572493
-0.858495
-0.838002
-0.792308
-0.729791
-0.661016
-0.591135
-0.522976
-0.460292
-0.40955
-0.379752
-0.36849
-0.488419
-0.702197
-1.10038
-1.08611
-0.713122
-0.512343
-0.452738
-0.440179
-0.43497
-0.832517
-0.816771
-0.779922
-0.726003
-0.664627
-0.601293
-0.538658
-0.480508
-0.432495
-0.403936
-0.387197
-0.303131
-0.105896
-0.0174086
-0.133501
-0.181777
-0.230753
-0.242823
-0.245176
-0.244429
-0.793758
-0.783366
-0.755866
-0.712293
-0.659429
-0.603033
-0.545671
-0.490587
-0.443169
-0.411611
-0.380154
-0.156335
0.276674
0.954865
0.885783
0.398008
0.0293494
-0.101121
-0.145011
-0.145495
-0.748321
-0.742354
-0.724752
-0.691308
-0.647357
-0.597341
-0.544398
-0.490963
-0.441739
-0.403966
-0.375856
-0.302899
-0.289093
-0.426858
-0.850567
-1.20907
-1.16829
-0.884906
-0.672011
-0.647815
-0.7054
-0.701853
-0.692625
-0.66845
-0.63163
-0.586645
-0.536607
-0.482994
-0.428846
-0.384488
-0.360267
-0.531413
-1.17463
-2.17541
-2.87973
-3.1177
-2.93531
-2.55621
-2.21927
-1.9926
-0.672445
-0.67019
-0.665427
-0.648858
-0.617243
-0.57471
-0.524739
-0.468147
-0.406629
-0.340557
-0.296854
-0.37993
-0.752711
-1.06864
-1.10352
-0.895105
-0.555405
-0.259732
-0.0525098
0.0459425
-0.646233
-0.645316
-0.643805
-0.634587
-0.607592
-0.565454
-0.51265
-0.450186
-0.377445
-0.290089
-0.193086
-0.0804792
0.0487877
0.320332
0.674449
1.09394
1.46941
1.72268
1.85
1.89039
-0.630272
-0.629711
-0.62913
-0.624865
-0.602982
-0.559897
-0.502277
-0.432378
-0.348997
-0.245115
-0.114836
0.030531
0.286041
0.729928
1.30347
1.82901
2.22344
2.45117
2.55052
2.5763
-0.620625
-0.620233
-0.619599
-0.618294
-0.601737
-0.558471
-0.495655
-0.418796
-0.325061
-0.213664
-0.0853574
0.0468966
0.265305
0.735466
1.27613
1.76724
2.1106
2.29765
2.37523
2.39386
-0.615775
-0.614782
-0.6127
-0.612131
-0.603141
-0.562714
-0.494909
-0.410727
-0.312561
-0.200675
-0.0822825
0.0403745
0.192479
0.578489
1.01221
1.3796
1.64245
1.78558
1.84434
1.85864
-0.624854
-0.621931
-0.617146
-0.616975
-0.615056
-0.575713
-0.498966
-0.405963
-0.305169
-0.195541
-0.0900195
0.0148833
0.122673
0.391607
0.708942
0.966692
1.15127
1.25122
1.29281
1.30282
-0.658839
-0.657051
-0.659133
-0.663802
-0.659147
-0.599591
-0.503098
-0.398682
-0.295775
-0.191714
-0.101514
-0.0202941
0.0597343
0.247379
0.46065
0.631917
0.754402
0.820906
0.848955
0.855055
-0.699224
-0.706988
-0.722914
-0.729193
-0.703189
-0.611667
-0.493773
-0.381571
-0.281117
-0.187975
-0.115123
-0.0576887
-0.00754281
0.12513
0.273911
0.389209
0.468129
0.509615
0.526584
0.530288
-0.662054
-0.673133
-0.691501
-0.695062
-0.659247
-0.562649
-0.449386
-0.346116
-0.25752
-0.180075
-0.123577
-0.0871406
-0.0570922
0.0386024
0.140311
0.217796
0.270932
0.298889
0.310374
0.312057
-0.490285
-0.500501
-0.513904
-0.516976
-0.490627
-0.428671
-0.357192
-0.286193
-0.220858
-0.161801
-0.119837
-0.098466
-0.0802507
-0.0057512
0.0672735
0.117898
0.148546
0.164026
0.169916
0.170493
-0.261541
-0.266466
-0.274941
-0.283246
-0.281457
-0.266933
-0.242342
-0.210265
-0.173804
-0.13513
-0.10599
-0.0904724
-0.0747517
-0.0249061
0.022643
0.0561311
0.0756402
0.0860314
0.0902395
0.0903711
-0.0784606
-0.0809859
-0.0882282
-0.101935
-0.120312
-0.1355
-0.14221
-0.138947
-0.126028
-0.104918
-0.0829677
-0.066478
-0.050482
-0.0163704
0.013312
0.0327736
0.0441577
0.049973
0.052182
0.0519518
0.0241928
0.0226518
0.0161381
0.000463443
-0.0242139
-0.0504902
-0.0714469
-0.083406
-0.0844734
-0.074336
-0.0562445
-0.0355156
-0.0144558
0.00977965
0.0235293
0.0322039
0.0379015
0.0411084
0.042546
0.0418842
0.0639126
0.0627423
0.0573584
0.0437094
0.0213333
-0.00436608
-0.0277968
-0.0449581
-0.052955
-0.0492857
-0.0333613
-0.00907395
0.0159276
0.0287662
0.032105
0.0350055
0.038987
0.0426571
0.0436628
0.0424993
0.0693823
0.0685268
0.0645765
0.0543876
0.0372238
0.0163634
-0.00440011
-0.0216026
-0.0320845
-0.0323162
-0.0190871
0.00438408
0.0282756
0.0326919
0.0312618
0.0339206
0.0378914
0.0408899
0.0412753
0.0397909
0.0600515
0.0594815
0.0567901
0.0497199
0.0374631
0.0217864
0.00505768
-0.0099858
-0.0206961
-0.0237912
-0.0151579
0.00262048
0.019358
0.0177241
0.0144416
0.0176812
0.0235273
0.0276656
0.0283363
0.0267212
0.0456799
0.0453226
0.0435614
0.0388292
0.0303574
0.0190048
0.00609375
-0.00661964
-0.0172334
-0.0232645
-0.0211939
-0.0129617
-0.00645615
-0.0114673
-0.0130505
-0.00817169
-0.00224645
0.00127264
0.00156407
0.00012913
0.0306234
0.0303921
0.0292547
0.0261511
0.0203982
0.0122702
0.00241493
-0.00826232
-0.018872
-0.0282648
-0.0343418
-0.0381727
-0.0435734
-0.0516899
-0.05075
-0.0435813
-0.0375281
-0.0353293
-0.0352354
-0.0362512
0.016949
0.0167572
0.0160066
0.0140245
0.0101923
0.00441627
-0.00318459
-0.012364
-0.0230861
-0.0357902
-0.0500906
-0.0660811
-0.0837408
-0.0924673
-0.0867479
-0.0784432
-0.0733084
-0.0720916
-0.0722469
-0.0728035
0.00575082
0.00558031
0.00504577
0.00378688
0.00126648
-0.00284598
-0.00876956
-0.0167609
-0.0275329
-0.0428046
-0.0640013
-0.091162
-0.114623
-0.120066
-0.111893
-0.103791
-0.100388
-0.0999339
-0.100119
-0.100417
-0.00241902
-0.00258632
-0.00299692
-0.00381133
-0.00546095
-0.00838441
-0.0130223
-0.0199275
-0.0303455
-0.0466556
-0.071548
-0.103472
-0.131173
-0.131742
-0.121967
-0.115224
-0.113537
-0.114149
-0.114296
-0.114418
-0.00737972
-0.00755656
-0.00788794
-0.00843763
-0.00954425
-0.0116518
-0.0152966
-0.0211964
-0.0305003
-0.045977
-0.0705217
-0.101861
-0.124739
-0.121386
-0.113729
-0.110589
-0.111365
-0.112714
-0.11286
-0.112905
-0.00946027
-0.00961443
-0.00987999
-0.0102893
-0.0110451
-0.0125652
-0.0153635
-0.0200629
-0.0277454
-0.0406253
-0.0604037
-0.0847887
-0.0992299
-0.0950888
-0.0907756
-0.0923549
-0.0950732
-0.0967827
-0.0970316
-0.0971314
-0.00915235
-0.00927782
-0.00949905
-0.00980896
-0.0103379
-0.0114245
-0.0134584
-0.016909
-0.0225277
-0.0315762
-0.0441164
-0.0577614
-0.0633847
-0.0602285
-0.0617421
-0.0663839
-0.0699043
-0.0713893
-0.0717469
-0.0719904
-0.00716982
-0.00727279
-0.00744138
-0.0076688
-0.00803369
-0.00877177
-0.0100862
-0.0123082
-0.0157781
-0.0208124
-0.0257652
-0.0281203
-0.0271433
-0.0256954
-0.0315534
-0.0382626
-0.0417316
-0.0427247
-0.0432398
-0.0436187
-0.00417453
-0.00424442
-0.00434838
-0.00448253
-0.00469944
-0.00508814
-0.00579321
-0.00691493
-0.00856557
-0.010413
-0.0100575
-0.00337497
0.00636942
0.00262707
-0.00679517
-0.0142346
-0.0166857
-0.0166348
-0.0172625
-0.0179049
-0.000598035
-0.000623781
-0.000629834
-0.000698769
-0.000846108
-0.000865629
-0.000851057
-0.00100522
-0.00112621
-0.00129156
-0.00104061
0.00249266
0.00947352
0.00877057
0.00201492
-0.00170854
-0.00267819
-0.00331752
-0.00420346
-0.00411153
-0.096842
0.0715325
0.268438
0.440178
0.577827
0.686753
0.777088
0.853808
0.88851
0.865203
0.20967
0.331515
0.462648
0.576162
0.672037
0.751538
0.815904
0.861539
0.88439
0.89641
0.430983
0.514619
0.604244
0.68355
0.751813
0.808941
0.854352
0.887505
0.911425
0.929364
0.593319
0.653034
0.715527
0.773138
0.823307
0.865904
0.900872
0.928745
0.951656
0.969931
0.719832
0.763364
0.809703
0.853869
0.892888
0.926954
0.956097
0.980336
1.0008
1.01862
0.824803
0.857927
0.896288
0.932067
0.964896
0.99431
1.02
1.04159
1.05949
1.07683
0.917759
0.946594
0.980732
1.01301
1.04309
1.07036
1.09419
1.11398
1.12952
1.14659
1.00659
1.03589
1.07
1.10213
1.13181
1.15846
1.18138
1.19991
1.21331
1.23034
1.10206
1.13532
1.17203
1.20566
1.23576
1.26198
1.28397
1.30127
1.31316
1.33056
1.21714
1.25501
1.29369
1.32797
1.35734
1.38212
1.40251
1.41842
1.4299
1.44797
1.36214
1.40071
1.43687
1.46758
1.49327
1.51539
1.53445
1.54999
1.56243
1.58043
1.53726
1.56889
1.59508
1.61754
1.63753
1.65626
1.67398
1.69047
1.70582
1.72389
1.72589
1.7431
1.75814
1.77438
1.79029
1.80483
1.81804
1.83197
1.84952
1.86967
1.90761
1.91716
1.92871
1.93952
1.94881
1.95839
1.96918
1.98055
1.99191
2.00727
2.11487
2.11853
2.10359
2.08878
2.0825
2.08818
2.10666
2.13697
2.16915
2.19581
2.42118
2.28632
2.20969
2.16731
2.14989
2.15385
2.18125
2.23767
2.34029
2.56465
0.71954
0.71741
0.712926
0.704298
0.692069
0.679933
0.669695
0.661785
0.656148
0.652867
0.652479
0.655184
0.660261
0.667463
0.676835
0.688364
0.701008
0.712037
0.718146
0.721198
0.644002
0.649848
0.65618
0.660668
0.663132
0.6628
0.660053
0.656228
0.652697
0.650408
0.650226
0.652388
0.656021
0.660287
0.664077
0.665948
0.665002
0.661514
0.656347
0.649725
0.635592
0.637888
0.641289
0.64428
0.646348
0.647835
0.648577
0.648243
0.647195
0.646281
0.646417
0.647803
0.649585
0.650865
0.651025
0.650119
0.648558
0.646214
0.642944
0.640021
0.630102
0.631188
0.633018
0.63539
0.637405
0.638822
0.639827
0.640559
0.640934
0.641121
0.641566
0.642327
0.642885
0.64292
0.642482
0.641614
0.64013
0.638034
0.63594
0.634555
0.624927
0.625589
0.626694
0.628392
0.630163
0.631781
0.633059
0.634051
0.634902
0.63565
0.636326
0.636822
0.636967
0.636762
0.636164
0.635084
0.633637
0.632079
0.630751
0.629968
0.619985
0.620446
0.621229
0.622519
0.623994
0.625495
0.62694
0.62821
0.629309
0.630314
0.631164
0.631663
0.63175
0.631427
0.63069
0.629668
0.628517
0.627365
0.626438
0.625918
0.615201
0.615546
0.616153
0.617212
0.618493
0.619849
0.621264
0.622677
0.624006
0.625226
0.626257
0.626864
0.626966
0.626628
0.625978
0.62516
0.624275
0.623385
0.622698
0.622317
0.61052
0.610788
0.611278
0.612177
0.613331
0.614607
0.615973
0.617424
0.618912
0.62036
0.621612
0.622376
0.622583
0.622382
0.621925
0.621311
0.62062
0.619948
0.619439
0.619149
0.605865
0.606078
0.606484
0.607273
0.608345
0.609569
0.610922
0.612411
0.61402
0.615688
0.617203
0.618201
0.618622
0.61864
0.618393
0.617983
0.617483
0.616994
0.616621
0.616393
0.60115
0.601322
0.60167
0.602384
0.603409
0.604608
0.605981
0.607545
0.609295
0.611196
0.613024
0.614346
0.615059
0.615337
0.615318
0.615116
0.614811
0.614483
0.614222
0.614041
0.596293
0.596432
0.596738
0.597407
0.598414
0.599634
0.601067
0.602746
0.604687
0.606873
0.609084
0.610811
0.611875
0.612453
0.61269
0.612706
0.612588
0.612413
0.612245
0.612099
0.591212
0.591324
0.591602
0.592251
0.593273
0.594559
0.596097
0.597943
0.600144
0.602693
0.605379
0.607593
0.60907
0.609989
0.610512
0.610761
0.610833
0.610807
0.61072
0.610602
0.585817
0.585905
0.586167
0.58682
0.587895
0.589287
0.590984
0.593067
0.595608
0.598627
0.601903
0.604697
0.606655
0.607966
0.608807
0.609323
0.6096
0.609713
0.609697
0.609601
0.580008
0.580075
0.580328
0.581009
0.582175
0.583723
0.585639
0.588035
0.591003
0.594607
0.598604
0.602105
0.604641
0.606416
0.607622
0.608431
0.608934
0.609193
0.609244
0.609167
0.57367
0.573716
0.57397
0.574701
0.575997
0.577753
0.579962
0.582758
0.58627
0.5906
0.595479
0.599834
0.603064
0.605389
0.607018
0.608157
0.608918
0.609335
0.609451
0.60939
0.566662
0.566691
0.566948
0.56775
0.569218
0.571245
0.573828
0.577136
0.581337
0.586565
0.592523
0.597914
0.60197
0.604941
0.607075
0.608596
0.609653
0.610239
0.610423
0.610375
0.558799
0.558813
0.559071
0.55997
0.561667
0.564033
0.567102
0.571067
0.576139
0.58249
0.589768
0.596395
0.601428
0.60516
0.607882
0.609874
0.611261
0.612033
0.612285
0.61225
0.5498
0.549783
0.5501
0.551131
0.553105
0.555912
0.559598
0.564384
0.570539
0.578276
0.587164
0.59528
0.601485
0.606125
0.609555
0.612099
0.613873
0.614855
0.615179
0.615154
0.53938
0.539337
0.539697
0.540916
0.543248
0.546624
0.551096
0.556931
0.564449
0.573894
0.584736
0.594644
0.602236
0.60795
0.612214
0.6154
0.61763
0.618848
0.619251
0.619233
0.527076
0.527005
0.527441
0.5289
0.531704
0.535826
0.541319
0.548507
0.557768
0.569356
0.58257
0.594589
0.60379
0.610756
0.61601
0.619946
0.622695
0.624173
0.624654
0.62464
0.512256
0.512155
0.51271
0.514513
0.517951
0.523072
0.529922
0.538882
0.550363
0.564597
0.580659
0.595164
0.606255
0.614665
0.621066
0.625874
0.629214
0.630973
0.631529
0.631513
0.494012
0.493883
0.49463
0.496928
0.501249
0.507749
0.51645
0.527772
0.542118
0.559632
0.579093
0.596474
0.609714
0.61978
0.627488
0.633298
0.637307
0.639361
0.639982
0.639957
0.470923
0.470776
0.471852
0.474926
0.480588
0.489125
0.500475
0.515038
0.533115
0.554678
0.578112
0.598726
0.614334
0.626239
0.635383
0.642316
0.647035
0.649375
0.650038
0.649991
0.440654
0.440529
0.44221
0.446641
0.454563
0.466281
0.481515
0.500515
0.52335
0.549771
0.577763
0.601979
0.620169
0.634042
0.644762
0.652913
0.658334
0.66091
0.661574
0.661492
0.39908
0.399118
0.402148
0.409437
0.421547
0.438483
0.459488
0.484493
0.513294
0.545421
0.578464
0.606484
0.62735
0.643254
0.655592
0.664979
0.670986
0.67367
0.674278
0.674152
0.338489
0.339674
0.34713
0.360783
0.380587
0.405828
0.434961
0.467611
0.503463
0.541956
0.580372
0.612308
0.635864
0.653768
0.66769
0.678144
0.684579
0.687162
0.687603
0.687435
0.266193
0.267954
0.282258
0.305824
0.336444
0.371514
0.409555
0.450415
0.4939
0.5395
0.584249
0.621136
0.648323
0.668977
0.684921
0.696705
0.703598
0.706194
0.706666
0.70661
0.191458
0.197623
0.21877
0.252486
0.293415
0.338054
0.384987
0.434117
0.485329
0.538172
0.589473
0.631533
0.662474
0.686079
0.704349
0.717469
0.724606
0.726901
0.72719
0.727214
0.130403
0.138841
0.164606
0.205327
0.254246
0.307024
0.361967
0.41883
0.477414
0.53723
0.594796
0.641728
0.676154
0.702353
0.722475
0.736682
0.743934
0.74632
0.746976
0.747081
0.080704
0.0897338
0.119045
0.164985
0.219992
0.279326
0.341028
0.404712
0.470015
0.536332
0.599793
0.651277
0.688914
0.717476
0.739345
0.754669
0.762678
0.765648
0.766439
0.766569
0.0389642
0.0482805
0.0800489
0.129979
0.189967
0.254741
0.322162
0.391796
0.463123
0.535402
0.604343
0.660056
0.700634
0.731353
0.754883
0.771305
0.78018
0.783559
0.78448
0.784601
0.00282547
0.0122675
0.0458944
0.0990229
0.16312
0.232526
0.304931
0.379829
0.456594
0.534351
0.608389
0.668017
0.71129
0.743943
0.76886
0.7862
0.795722
0.799467
0.80051
0.800645
-0.0293475
-0.0198509
0.0152078
0.0710474
0.138593
0.21198
0.288788
0.368413
0.450147
0.532979
0.61178
0.675059
0.720791
0.755154
0.781176
0.79922
0.809293
0.813364
0.814428
0.814559
-0.0587857
-0.0492302
-0.0130026
0.0451735
0.115698
0.192569
0.273278
0.35718
0.443485
0.531066
0.614379
0.681123
0.729146
0.765006
0.791888
0.810362
0.820778
0.825084
0.826223
0.826345
-0.0863097
-0.0766954
-0.0394056
0.0207506
0.0939274
0.173879
0.258074
0.345858
0.436388
0.528446
0.616093
0.686214
0.736462
0.773689
0.801251
0.819984
0.830563
0.835046
0.836258
0.836369
-0.112464
-0.102756
-0.064481
-0.00263958
0.0729216
0.155608
0.242939
0.334259
0.428703
0.524999
0.616877
0.690383
0.742863
0.781394
0.809549
0.82854
0.839217
0.843769
0.844967
0.84505
-0.137705
-0.127804
-0.088686
-0.0252273
0.0524275
0.137557
0.22772
0.322262
0.420337
0.520661
0.616714
0.693682
0.748453
0.788294
0.81703
0.836243
0.847013
0.851545
0.852705
0.852732
-0.162253
-0.152115
-0.112221
-0.0472018
0.0322958
0.119609
0.212322
0.309804
0.411235
0.515397
0.615592
0.696134
0.753327
0.79455
0.823912
0.843342
0.854146
0.858623
0.859721
0.859742
-0.186198
-0.175834
-0.13509
-0.0687157
0.0124444
0.101717
0.196715
0.296858
0.401383
0.509178
0.613483
0.69775
0.757547
0.800301
0.83038
0.850041
0.860822
0.865161
0.866151
0.866126
-0.209668
-0.198984
-0.157486
-0.0898248
-0.00715835
0.0838625
0.180902
0.283442
0.390795
0.502009
0.610351
0.698489
0.761146
0.805662
0.83657
0.85642
0.867062
0.871179
0.872008
0.871926
-0.232628
-0.221649
-0.179388
-0.11054
-0.0265074
0.0660692
0.164928
0.269603
0.379512
0.493897
0.606156
0.698283
0.764111
0.810719
0.842625
0.862597
0.872908
0.876656
0.877299
0.877172
-0.255113
-0.243814
-0.200744
-0.130826
-0.0455662
0.0483827
0.148846
0.255411
0.367598
0.484874
0.600864
0.69705
0.766373
0.815516
0.84873
0.86878
0.878487
0.881648
0.882057
0.88189
-0.276937
-0.265392
-0.221542
-0.150638
-0.0642791
0.0308838
0.132728
0.240944
0.355133
0.475003
0.594455
0.694694
0.767815
0.820032
0.855085
0.875338
0.884078
0.886245
0.886289
0.886092
-0.298235
-0.286336
-0.241755
-0.169949
-0.0826101
0.0136155
0.116671
0.226289
0.34221
0.464366
0.586939
0.691112
0.768272
0.824121
0.861792
0.882805
0.890351
0.890814
0.890055
0.8898
-0.318836
-0.306616
-0.261344
-0.188703
-0.100475
-0.00333476
0.100759
0.211567
0.32894
0.453029
0.578359
0.68621
0.767538
0.827494
0.868683
0.891684
0.898639
0.896725
0.893939
0.892799
-0.338795
-0.326271
-0.280254
-0.206843
-0.117832
-0.0198956
0.085076
0.196861
0.315436
0.441132
0.568791
0.679905
0.765396
0.829728
0.875128
0.901793
0.910384
0.907355
0.90056
0.891592
-0.358027
-0.345256
-0.298579
-0.224527
-0.134892
-0.0363497
0.0692814
0.181762
0.301237
0.428154
0.557683
0.671601
0.761287
0.830319
0.880212
0.912028
0.925593
0.923986
0.913857
0.907257
-0.376477
-0.363487
-0.316312
-0.241713
-0.15165
-0.0526985
0.0533932
0.166251
0.286301
0.413984
0.54485