/*--------------------------------*- C++ -*----------------------------------*\
  =========                 |
  \\      /  F ield         | OpenFOAM: The Open Source CFD Toolbox
   \\    /   O peration     | Website:  https://openfoam.org
    \\  /    A nd           | Version:  10
     \\/     M anipulation  |
\*---------------------------------------------------------------------------*/
FoamFile
{
    format      ascii;
    class       volScalarField;
    location    "13";
    object      p;
}
// * * * * * * * * * * * * * * * * * * * * * * * * * * * * * * * * * * * * * //

dimensions      [0 2 -2 0 0 0 0];

internalField   nonuniform List<scalar> 
8800
(
0.422878
0.375124
0.336507
0.30758
0.286794
0.272062
0.261579
0.254195
0.249418
0.247282
0.248327
0.252205
0.258534
0.267559
0.280103
0.297662
0.322308
0.356147
0.398587
0.457286
0.254032
0.26172
0.269297
0.272671
0.27125
0.2663
0.259956
0.253997
0.249345
0.246481
0.246049
0.248258
0.25242
0.258051
0.264533
0.270561
0.274018
0.273179
0.26761
0.258836
0.23227
0.238484
0.242731
0.245839
0.248045
0.248792
0.24783
0.245867
0.243915
0.242907
0.243624
0.245651
0.248065
0.249893
0.250207
0.248748
0.246159
0.242565
0.237884
0.234102
0.22623
0.228949
0.231941
0.234618
0.236507
0.237885
0.238802
0.239037
0.238763
0.238603
0.239075
0.23988
0.240336
0.240008
0.23902
0.237561
0.235375
0.232457
0.229835
0.228329
0.220742
0.222208
0.224311
0.226731
0.228874
0.230508
0.2317
0.232624
0.23331
0.233795
0.234097
0.234114
0.233745
0.233017
0.231853
0.230113
0.227901
0.225578
0.224004
0.223208
0.215742
0.216667
0.218445
0.220678
0.222932
0.225039
0.226758
0.227993
0.228863
0.229487
0.229859
0.229832
0.229321
0.228228
0.226544
0.224525
0.222394
0.220358
0.219166
0.218708
0.211947
0.21246
0.213924
0.21586
0.217713
0.219404
0.221027
0.222553
0.223821
0.224745
0.225119
0.22489
0.224135
0.223022
0.22171
0.220164
0.218368
0.21665
0.215766
0.215568
0.210047
0.210326
0.211265
0.212625
0.214068
0.215561
0.217025
0.218378
0.219612
0.22062
0.221145
0.221084
0.220587
0.21974
0.218654
0.217474
0.216244
0.215153
0.21463
0.214536
0.208436
0.208595
0.209079
0.209814
0.210817
0.211988
0.213205
0.214552
0.215875
0.217034
0.217719
0.217819
0.217488
0.216947
0.216169
0.215405
0.214838
0.214343
0.214092
0.214033
0.206035
0.206136
0.206448
0.206971
0.207546
0.208351
0.209404
0.210597
0.211887
0.213156
0.21407
0.214465
0.214479
0.214265
0.214023
0.213776
0.213475
0.213222
0.213089
0.213046
0.202906
0.202967
0.203226
0.203712
0.204337
0.204994
0.206032
0.207249
0.208631
0.210093
0.211289
0.211981
0.212267
0.212297
0.212302
0.212157
0.211961
0.211786
0.211717
0.211695
0.199415
0.199441
0.199651
0.200083
0.20062
0.201502
0.202409
0.203616
0.205108
0.206817
0.208371
0.20944
0.210092
0.210465
0.210534
0.210616
0.210547
0.210466
0.21045
0.21044
0.195663
0.195686
0.195867
0.196271
0.196856
0.197639
0.198672
0.200025
0.201738
0.203799
0.205792
0.207277
0.20827
0.208901
0.209255
0.209426
0.20947
0.209482
0.209501
0.209491
0.19151
0.191541
0.191708
0.192089
0.192676
0.19351
0.194667
0.19623
0.198271
0.200806
0.203346
0.205311
0.206681
0.207604
0.208187
0.208535
0.208726
0.208831
0.208879
0.208868
0.186809
0.186834
0.187031
0.187423
0.188063
0.189009
0.19036
0.192229
0.194718
0.197866
0.201077
0.203619
0.205433
0.206685
0.207514
0.208042
0.208364
0.208548
0.208621
0.208608
0.181434
0.181464
0.181694
0.182155
0.182893
0.184019
0.185651
0.187939
0.191019
0.194952
0.199004
0.202243
0.204597
0.20622
0.207315
0.20803
0.20848
0.208737
0.208834
0.208819
0.175214
0.175248
0.175526
0.176092
0.177014
0.1784
0.180421
0.183267
0.187118
0.192054
0.197158
0.201257
0.204223
0.206296
0.207699
0.208623
0.209207
0.20954
0.209665
0.209647
0.167944
0.167986
0.168337
0.169056
0.170225
0.171974
0.174514
0.178103
0.182954
0.18916
0.195569
0.200707
0.204432
0.207038
0.208807
0.209973
0.210711
0.211129
0.211287
0.211265
0.15934
0.159395
0.159853
0.160777
0.162278
0.164509
0.167757
0.172323
0.178458
0.186269
0.194295
0.200708
0.205352
0.208602
0.210811
0.212268
0.213189
0.21371
0.213903
0.213874
0.149012
0.149087
0.149683
0.150885
0.152832
0.155738
0.159929
0.165762
0.173554
0.18339
0.193413
0.201381
0.207138
0.211167
0.213911
0.215724
0.216871
0.217519
0.217757
0.217717
0.13642
0.136527
0.137314
0.138911
0.141483
0.145284
0.150724
0.158249
0.168185
0.180558
0.193025
0.202873
0.209975
0.214946
0.218339
0.220589
0.222009
0.222803
0.223098
0.223047
0.120779
0.12093
0.121993
0.124165
0.127627
0.132687
0.139868
0.149654
0.162335
0.177851
0.193269
0.205362
0.214071
0.220179
0.224365
0.22716
0.228937
0.22992
0.230278
0.230211
0.100898
0.10111
0.102616
0.105684
0.110486
0.117404
0.127031
0.139832
0.156024
0.175389
0.194308
0.209033
0.219642
0.227118
0.232277
0.23575
0.237981
0.23922
0.239654
0.239569
0.0749335
0.0752663
0.0775325
0.0820867
0.0890123
0.0987331
0.111842
0.128701
0.149341
0.173329
0.196306
0.214052
0.226867
0.23598
0.242349
0.246699
0.249535
0.251126
0.25168
0.251564
0.0397668
0.040382
0.0441781
0.0515063
0.0620228
0.0761106
0.0942063
0.116422
0.14253
0.171899
0.199433
0.220538
0.235848
0.246889
0.254768
0.260292
0.263987
0.26608
0.266791
0.266632
-0.0108294
-0.00895881
-0.00117706
0.0118859
0.0287158
0.049557
0.0745332
0.103498
0.136036
0.171405
0.203844
0.228534
0.246557
0.259783
0.269495
0.276575
0.281538
0.284517
0.285538
0.285316
-0.0868852
-0.0769064
-0.0590855
-0.0357696
-0.00941564
0.0204001
0.0537681
0.0905056
0.130191
0.172123
0.209935
0.238655
0.25987
0.275821
0.287995
0.29742
0.304603
0.309374
0.311312
0.311456
-0.167894
-0.145749
-0.117344
-0.0837459
-0.0477125
-0.00884608
0.0329591
0.0776214
0.124832
0.17404
0.218242
0.252058
0.277459
0.297049
0.312533
0.325022
0.335068
0.343436
0.347334
0.347637
-0.231005
-0.206589
-0.169909
-0.128139
-0.0836198
-0.0364366
0.0133378
0.06557
0.119965
0.176007
0.226001
0.264194
0.292965
0.31528
0.333005
0.347336
0.358859
0.368052
0.371606
0.372179
-0.281963
-0.255429
-0.214147
-0.166516
-0.115528
-0.0615948
-0.00495169
0.05407
0.115018
0.177278
0.232372
0.274112
0.305274
0.329176
0.347913
0.362884
0.374847
0.383894
0.387781
0.388347
-0.323168
-0.296014
-0.251323
-0.199332
-0.143354
-0.0839973
-0.0216451
0.0432066
0.10995
0.177749
0.237236
0.281839
0.314742
0.339665
0.358954
0.374152
0.386136
0.395002
0.399134
0.399706
-0.358101
-0.330615
-0.28355
-0.228087
-0.168073
-0.104221
-0.0370053
0.0329484
0.104848
0.177667
0.241197
0.288364
0.322737
0.348425
0.368016
0.383219
0.395077
0.403721
0.407911
0.408484
-0.388695
-0.36113
-0.31226
-0.253954
-0.190534
-0.122812
-0.0513661
0.0231184
0.0997334
0.177227
0.244499
0.29401
0.329704
0.356053
0.375908
0.391141
0.402915
0.411368
0.415559
0.416142
-0.416381
-0.388748
-0.338418
-0.277761
-0.211476
-0.140423
-0.0652182
0.0133658
0.0942979
0.176151
0.247065
0.298965
0.336047
0.363138
0.383328
0.39865
0.410372
0.41869
0.422812
0.423419
-0.442049
-0.414323
-0.362762
-0.300108
-0.231349
-0.15739
-0.0788767
0.00337981
0.0883343
0.174453
0.249072
0.303489
0.342095
0.370045
0.390664
0.406153
0.417879
0.426095
0.4301
0.430779
-0.466393
-0.438474
-0.385836
-0.321415
-0.2505
-0.173996
-0.0925364
-0.00690194
0.0818417
0.172108
0.250493
0.307623
0.347973
0.376964
0.398151
0.4139
0.425693
0.433841
0.437716
0.438408
-0.489597
-0.461453
-0.407862
-0.342003
-0.269169
-0.190401
-0.10629
-0.0175905
0.0746762
0.168966
0.25125
0.311352
0.353737
0.384008
0.405939
0.422071
0.434005
0.442121
0.44585
0.446507
-0.512046
-0.483572
-0.429177
-0.36201
-0.287482
-0.206729
-0.12027
-0.0288046
0.0667428
0.164943
0.251232
0.314599
0.359357
0.39121
0.414102
0.430763
0.44293
0.451068
0.454641
0.455205
-0.533777
-0.504996
-0.449968
-0.38153
-0.305539
-0.223057
-0.134521
-0.0405546
0.0580189
0.159968
0.250311
0.31723
0.364722
0.398505
0.422636
0.440019
0.452536
0.46074
0.464196
0.464595
-0.554858
-0.525726
-0.470143
-0.400605
-0.32335
-0.239355
-0.149006
-0.0528381
0.0484773
0.153955
0.248349
0.319056
0.369645
0.405755
0.431466
0.449819
0.46284
0.471165
0.474519
0.47472
-0.575349
-0.545912
-0.489707
-0.419238
-0.340902
-0.255599
-0.163693
-0.0656128
0.0381369
0.146869
0.245208
0.319857
0.373928
0.412824
0.44052
0.460112
0.473791
0.482263
0.485502
0.485511
-0.595304
-0.565479
-0.508695
-0.437418
-0.358149
-0.271751
-0.178522
-0.0788125
0.0270497
0.138698
0.240776
0.319408
0.377304
0.419496
0.449674
0.470846
0.485321
0.493938
0.496941
0.496786
-0.614553
-0.584364
-0.52706
-0.455103
-0.375044
-0.287725
-0.193413
-0.0923461
0.0152951
0.129477
0.234973
0.317489
0.37938
0.425372
0.458693
0.481972
0.497394
0.506037
0.508701
0.508353
-0.633089
-0.602569
-0.544786
-0.472235
-0.39152
-0.30346
-0.20827
-0.106122
0.00297188
0.119272
0.227757
0.313922
0.379792
0.429969
0.46725
0.493512
0.510202
0.518464
0.520402
0.519848
-0.650947
-0.620026
-0.561847
-0.488784
-0.407522
-0.318875
-0.223004
-0.120025
-0.00980572
0.108183
0.219148
0.308571
0.378209
0.432668
0.474731
0.505385
0.524402
0.531725
0.531678
0.530811
-0.668004
-0.636761
-0.578199
-0.504691
-0.422997
-0.333895
-0.237523
-0.133943
-0.0229008
0.0963457
0.209228
0.301365
0.374363
0.432758
0.480021
0.516876
0.540919
0.548433
0.543827
0.541244
-0.684348
-0.652762
-0.593863
-0.519982
-0.43798
-0.348567
-0.251882
-0.147932
-0.0363789
0.0837006
0.197893
0.292097
0.36794
0.429431
0.481381
0.525825
0.558915
0.573867
0.567286
0.544358
-0.699933
-0.668043
-0.608956
-0.534825
-0.452736
-0.363192
-0.266464
-0.16245
-0.0507645
0.0695975
0.184442
0.279873
0.358052
0.421481
0.475544
0.526365
0.567281
0.583734
0.569946
0.54258
-0.714635
-0.682797
-0.623317
-0.548968
-0.466996
-0.377448
-0.281052
-0.177172
-0.065728
0.0543764
0.169115
0.264644
0.344339
0.408696
0.458621
0.508213
0.543262
0.547672
0.480216
0.43549
-0.727871
-0.697786
-0.636548
-0.561861
-0.48012
-0.390905
-0.295374
-0.191889
-0.0810495
0.0382218
0.151992
0.246423
0.326221
0.391951
0.43238
0.460421
0.480669
0.440205
0.363545
0.312917
-0.78003
-0.70977
-0.648458
-0.575018
-0.49346
-0.404861
-0.309507
-0.206839
-0.0970201
0.0208136
0.132688
0.224969
0.301836
0.372252
0.38578
0.389329
0.361579
0.294751
0.206705
0.157715
-0.737455
-0.723567
-0.66508
-0.593672
-0.51241
-0.42456
-0.33062
-0.229314
-0.121418
-0.0064421
0.10106
0.188156
0.256744
0.314099
0.319401
0.195721
0.0765332
-0.00510857
-0.0911621
-0.0440635
-0.764416
-0.737417
-0.67958
-0.607818
-0.527287
-0.440025
-0.346283
-0.246073
-0.13978
-0.0273462
0.0762228
0.157824
0.218806
0.247487
0.19043
0.0176781
-0.14118
-0.251897
-0.373058
-0.298598
-0.784409
-0.753858
-0.695934
-0.623766
-0.543574
-0.456745
-0.363547
-0.264617
-0.160232
-0.0508661
0.0480809
0.123033
0.173362
0.174301
0.048729
-0.182223
-0.381548
-0.53315
-0.707502
-0.640401
-0.803173
-0.771302
-0.712522
-0.639819
-0.55975
-0.473357
-0.381062
-0.283521
-0.18122
-0.0752121
0.0185176
0.0862313
0.122383
0.0836635
-0.117346
-0.387514
-0.646472
-0.877237
-1.13509
-1.11314
-0.820516
-0.788654
-0.729445
-0.656313
-0.576374
-0.490487
-0.39919
-0.303144
-0.203104
-0.100685
-0.0125578
0.0476584
0.0672756
-0.0185574
-0.278755
-0.579144
-0.892371
-1.17708
-1.52105
-1.89541
-0.837535
-0.806078
-0.746755
-0.673555
-0.593754
-0.508366
-0.418022
-0.323487
-0.225725
-0.12699
-0.0445583
0.00771866
0.00959163
-0.127066
-0.424016
-0.731134
-1.05067
-1.32355
-1.44188
-1.627
-0.854829
-0.823818
-0.76474
-0.691701
-0.612171
-0.527396
-0.438125
-0.345257
-0.250055
-0.155403
-0.0791336
-0.035491
-0.0535885
-0.255088
-0.554569
-0.84384
-1.10808
-1.2832
-1.31851
-1.35011
-0.872673
-0.842097
-0.783415
-0.71068
-0.6316
-0.547604
-0.459634
-0.368725
-0.276479
-0.186443
-0.116749
-0.0823015
-0.130337
-0.377152
-0.675653
-0.938183
-1.14512
-1.24461
-1.27143
-1.27279
-0.891194
-0.860973
-0.802594
-0.730361
-0.651839
-0.568834
-0.482398
-0.393772
-0.304799
-0.219815
-0.156941
-0.13286
-0.212172
-0.48989
-0.793942
-1.04483
-1.18616
-1.23137
-1.23829
-1.24069
-0.91017
-0.8803
-0.822251
-0.75053
-0.672719
-0.590876
-0.506226
-0.420168
-0.334804
-0.255355
-0.199579
-0.187574
-0.298892
-0.596753
-0.904439
-1.17683
-1.21701
-1.2318
-1.24697
-1.24959
-0.929307
-0.899795
-0.842164
-0.770925
-0.693919
-0.613443
-0.530808
-0.447594
-0.366249
-0.292595
-0.244805
-0.243432
-0.390813
-0.693848
-0.995843
-1.34949
-1.41408
-1.32067
-1.28117
-1.27045
-0.947924
-0.918721
-0.861907
-0.791112
-0.715058
-0.63607
-0.555735
-0.475713
-0.39876
-0.330998
-0.291757
-0.296758
-0.4873
-0.778127
-1.00658
-1.33637
-1.44244
-1.29421
-1.24701
-1.23243
-0.965438
-0.936777
-0.880542
-0.810489
-0.735483
-0.658221
-0.580411
-0.50393
-0.431655
-0.369682
-0.339315
-0.349888
-0.590663
-0.847276
-0.849212
-0.82628
-1.02212
-1.157
-1.21305
-1.2154
-0.981171
-0.953113
-0.897562
-0.828175
-0.754311
-0.67897
-0.603995
-0.531489
-0.463999
-0.408122
-0.385715
-0.403885
-0.720946
-1.0119
-0.936888
-0.62903
-0.889002
-1.24953
-1.43927
-1.46493
-0.993847
-0.966623
-0.91185
-0.843073
-0.770475
-0.697281
-0.625519
-0.557308
-0.49476
-0.444848
-0.428512
-0.463469
-0.899807
-1.50237
-2.03712
-2.14097
-2.20912
-2.1107
-2.05447
-2.04742
-1.00219
-0.975997
-0.92201
-0.853938
-0.782723
-0.71192
-0.64385
-0.580319
-0.52275
-0.477422
-0.465199
-0.526877
-1.1083
-2.08248
-3.51164
-4.28242
-4.37355
-3.95291
-3.37476
-3.11738
-1.00453
-0.979538
-0.926557
-0.859191
-0.789549
-0.721512
-0.6576
-0.599837
-0.548742
-0.505501
-0.492048
-0.562405
-1.08282
-2.12115
-3.52877
-4.48491
-4.46778
-4.05576
-3.56582
-3.30027
-0.998891
-0.975238
-0.92342
-0.857031
-0.789318
-0.724451
-0.665489
-0.614825
-0.572645
-0.530994
-0.500894
-0.534501
-0.758412
-1.17322
-1.47494
-1.65978
-1.53067
-1.30844
-1.10977
-0.97586
-0.983246
-0.960912
-0.910562
-0.845793
-0.780454
-0.719375
-0.666802
-0.627062
-0.600273
-0.56757
-0.512896
-0.459431
-0.379331
-0.137527
0.21537
0.678458
1.07632
1.31352
1.41743
1.45411
-0.955637
-0.934781
-0.886423
-0.824053
-0.761781
-0.705375
-0.660783
-0.635936
-0.639209
-0.649783
-0.588886
-0.393945
-0.131985
0.351712
1.00573
1.58933
2.04081
2.30509
2.4051
2.43232
-0.914873
-0.895575
-0.849867
-0.791007
-0.732706
-0.681772
-0.647091
-0.644794
-0.704026
-0.85521
-0.918375
-0.587397
-0.143788
0.430427
1.09925
1.65632
2.06274
2.29793
2.39236
2.41875
-0.859625
-0.841663
-0.800328
-0.746343
-0.692944
-0.64789
-0.623894
-0.650417
-0.806252
-1.25883
-1.60278
-1.09303
-0.370479
0.258312
0.899088
1.39751
1.74063
1.92419
1.99972
2.02051
-0.790152
-0.774299
-0.737963
-0.689754
-0.64176
-0.60175
-0.58504
-0.632906
-0.876073
-1.60855
-2.35424
-1.64252
-0.744001
0.0210347
0.626536
1.05211
1.31422
1.44495
1.50647
1.51209
-0.706486
-0.692346
-0.661881
-0.620601
-0.577761
-0.540604
-0.522822
-0.562413
-0.773435
-1.37578
-1.89355
-1.34383
-0.635825
0.0126563
0.474954
0.761426
0.925646
1.01564
1.0599
1.06685
-0.611966
-0.601986
-0.57496
-0.539163
-0.500556
-0.463695
-0.43741
-0.443307
-0.535193
-0.779806
-0.888516
-0.556693
-0.125829
0.225316
0.446534
0.582123
0.667896
0.72202
0.750812
0.758499
-0.496829
-0.491414
-0.472447
-0.44437
-0.411894
-0.377515
-0.345173
-0.32401
-0.331827
-0.374159
-0.342129
-0.104046
0.119517
0.295507
0.410204
0.482352
0.529986
0.56231
0.580317
0.583817
-0.385485
-0.382649
-0.369149
-0.348084
-0.322381
-0.292652
-0.26
-0.226913
-0.196398
-0.1605
-0.077429
0.0798078
0.204472
0.295181
0.358332
0.399065
0.425677
0.44195
0.44942
0.450758
-0.284937
-0.283343
-0.274571
-0.259093
-0.239362
-0.215176
-0.18589
-0.151022
-0.108597
-0.0503889
0.034377
0.140098
0.219108
0.272422
0.30897
0.332195
0.346241
0.354001
0.357197
0.357115
-0.194598
-0.194138
-0.188982
-0.179019
-0.165375
-0.147251
-0.123423
-0.0922547
-0.0508648
0.00658188
0.0789759
0.151939
0.206048
0.241931
0.265193
0.279056
0.286465
0.289777
0.290689
0.290202
-0.116135
-0.11646
-0.11483
-0.110276
-0.102386
-0.0902413
-0.0725016
-0.0473084
-0.0120273
0.0370137
0.0948204
0.147202
0.185573
0.21078
0.226348
0.234927
0.238854
0.240146
0.240237
0.239705
-0.0543738
-0.0550905
-0.0559373
-0.0555092
-0.0523783
-0.0452855
-0.0329651
-0.0138058
0.0142548
0.0534638
0.0980385
0.136225
0.163828
0.181753
0.192369
0.197888
0.200071
0.200437
0.200226
0.199761
-0.0108616
-0.011661
-0.0135332
-0.0151351
-0.0148273
-0.0114386
-0.00357863
0.010214
0.0314846
0.0616254
0.0953882
0.12349
0.143459
0.15626
0.163704
0.167331
0.16848
0.168408
0.168094
0.167707
0.0171983
0.0165116
0.0145692
0.0124446
0.0116267
0.0130578
0.0178466
0.0273656
0.0429678
0.0655891
0.090802
0.111428
0.125947
0.135098
0.140143
0.142384
0.142874
0.14252
0.142147
0.141834
0.0340551
0.0335444
0.0319581
0.0300033
0.0288751
0.0294188
0.032505
0.0390922
0.0502885
0.0669071
0.0855595
0.10068
0.111045
0.11738
0.120774
0.122127
0.122179
0.121664
0.121276
0.12103
0.0435429
0.0431878
0.0420424
0.0405311
0.0394969
0.0395544
0.0414698
0.0460891
0.0541957
0.0663051
0.07985
0.0907282
0.0981384
0.102631
0.1049
0.10564
0.105451
0.104894
0.104534
0.104345
0.0485149
0.0482695
0.0474826
0.0463934
0.0455983
0.045535
0.0467202
0.0498062
0.0555084
0.0642613
0.0741302
0.082048
0.0873318
0.0903942
0.0918385
0.0921993
0.0918981
0.091369
0.0910584
0.0909147
0.0507093
0.0505316
0.0499682
0.0491637
0.048541
0.048427
0.0492207
0.0513858
0.0554132
0.061653
0.0687141
0.0743138
0.0779891
0.0800763
0.0809943
0.0811251
0.0807904
0.0803257
0.0800697
0.079959
0.0510073
0.0508735
0.0504393
0.0498041
0.0492842
0.0491105
0.0495672
0.0510152
0.0538366
0.0582656
0.0632875
0.0672642
0.0698414
0.0712491
0.0718081
0.071811
0.0714934
0.0711065
0.070901
0.0708151
0.0498841
0.049783
0.0494429
0.0489324
0.0484965
0.0483059
0.0485638
0.0495214
0.051458
0.0545645
0.0581092
0.0608887
0.0626491
0.0635709
0.0638912
0.0638205
0.0635308
0.0632098
0.0630443
0.0629775
0.0476881
0.0476114
0.0473449
0.046932
0.0465623
0.0463619
0.0464786
0.0470968
0.048417
0.0505682
0.0530309
0.0549503
0.0561425
0.0567356
0.0569013
0.0567935
0.0565372
0.0562731
0.0561407
0.0560889
0.0447035
0.0446447
0.0444396
0.0441129
0.0438081
0.0436175
0.0436463
0.0440263
0.0449048
0.0463774
0.0480741
0.0493826
0.0501719
0.0505366
0.0506018
0.0504778
0.050255
0.0500389
0.0499333
0.049893
0.041166
0.0411203
0.0409639
0.0407101
0.0404647
0.0402942
0.0402732
0.0404971
0.0410699
0.0420599
0.0432071
0.0440818
0.044591
0.0448023
0.0448056
0.0446799
0.0444905
0.0443157
0.0442318
0.0442004
0.0372532
0.0372172
0.0370978
0.0369024
0.036707
0.036559
0.0365113
0.0366307
0.0369928
0.0376454
0.0384089
0.0389811
0.039298
0.0394087
0.0393766
0.0392582
0.0390998
0.0389593
0.0388925
0.038868
0.0330882
0.0330598
0.0329681
0.0328174
0.0326626
0.0325371
0.0324771
0.0325305
0.0327499
0.033169
0.033664
0.0340275
0.0342158
0.0342618
0.0342115
0.0341045
0.0339739
0.0338616
0.0338085
0.0337893
0.0287524
0.0287299
0.028659
0.0285426
0.0284198
0.0283143
0.0282512
0.0282635
0.0283882
0.0286487
0.0289608
0.0291833
0.0292859
0.0292924
0.0292345
0.0291405
0.0290334
0.0289436
0.0289014
0.0288865
0.0243004
0.0242827
0.0242277
0.0241373
0.0240399
0.0239522
0.0238913
0.0238801
0.023944
0.0240987
0.024288
0.0244167
0.0244647
0.0244483
0.0243902
0.0243097
0.0242227
0.0241515
0.0241182
0.0241067
0.0197689
0.0197553
0.0197127
0.0196423
0.0195651
0.0194932
0.0194382
0.0194155
0.0194422
0.0195281
0.0196367
0.0197054
0.0197209
0.0196944
0.0196409
0.0195734
0.0195034
0.0194472
0.0194213
0.0194126
0.0151804
0.0151702
0.0151374
0.0150831
0.0150233
0.0149666
0.0149202
0.0148942
0.0149001
0.0149443
0.0150029
0.015036
0.0150345
0.0150056
0.0149594
0.0149046
0.0148489
0.0148048
0.014785
0.0147786
0.0105497
0.0105423
0.0105179
0.0104779
0.0104342
0.0103926
0.0103575
0.010335
0.0103317
0.0103514
0.0103798
0.0103926
0.0103844
0.0103595
0.010324
0.0102831
0.0102416
0.0102086
0.0101938
0.0101893
0.00588604
0.00588128
0.00586571
0.00584054
0.00581357
0.00578816
0.00576669
0.00575207
0.00574735
0.00575396
0.00576472
0.00576726
0.005759
0.00574239
0.00572027
0.0056949
0.00566887
0.00564785
0.00563836
0.00563531
0.00119559
0.00119566
0.00119638
0.00119063
0.00118209
0.00117433
0.00116746
0.00116146
0.00115655
0.00115285
0.00115033
0.00114791
0.00114437
0.0011395
0.00113348
0.00112647
0.00111851
0.00111082
0.00110826
0.00110913
-0.816429
-0.57156
-0.297694
-0.0754949
0.105332
0.251583
0.375833
0.480983
0.530193
0.507659
-0.378107
-0.2128
-0.0412221
0.106265
0.231608
0.337015
0.423179
0.485122
0.517565
0.528499
-0.0818893
0.0269994
0.141186
0.24278
0.330523
0.404274
0.462993
0.505905
0.535737
0.552557
0.123089
0.197531
0.277434
0.349441
0.412137
0.465206
0.508451
0.542349
0.56879
0.586351
0.276649
0.330202
0.386615
0.439979
0.486972
0.527656
0.562008
0.590051
0.612676
0.630073
0.39864
0.437792
0.482015
0.523842
0.561738
0.595315
0.624294
0.648268
0.667582
0.684722
0.501559
0.533845
0.572174
0.608073
0.641334
0.671245
0.697161
0.718461
0.734952
0.751969
0.596619
0.628049
0.66476
0.699158
0.730803
0.759107
0.783349
0.802847
0.816905
0.833966
0.695922
0.730501
0.768779
0.803797
0.835101
0.862365
0.885198
0.903138
0.915503
0.932963
0.813336
0.852012
0.891612
0.926739
0.956878
0.982309
1.00324
1.01957
1.03137
1.04951
0.959764
0.9988
1.03553
1.06675
1.09291
1.11543
1.13484
1.15064
1.1633
1.18136
1.13571
1.16766
1.19418
1.21697
1.23724
1.25621
1.27414
1.29079
1.30627
1.32439
1.32487
1.34224
1.3575
1.37395
1.39003
1.4047
1.41801
1.43204
1.44968
1.46987
1.50692
1.51654
1.52819
1.53906
1.54839
1.5581
1.56904
1.58049
1.5919
1.60728
1.71441
1.7181
1.70315
1.68835
1.68221
1.68797
1.70647
1.73684
1.76906
1.79573
2.02069
1.88583
1.80933
1.76713
1.74969
1.75367
1.78112
1.83752
1.94015
2.16453
0.313472
0.311385
0.306907
0.298333
0.286194
0.274167
0.26405
0.256266
0.250727
0.247464
0.246953
0.24938
0.254146
0.26105
0.270168
0.281492
0.29397
0.304875
0.310948
0.313936
0.237721
0.243586
0.250008
0.254634
0.257238
0.257061
0.254487
0.250821
0.247387
0.245089
0.244755
0.246662
0.249983
0.253923
0.257403
0.259009
0.257845
0.254167
0.24883
0.242146
0.229167
0.231477
0.234995
0.238166
0.240429
0.242105
0.243028
0.242853
0.241914
0.241001
0.240978
0.242072
0.243504
0.244428
0.244255
0.243045
0.241202
0.238595
0.235134
0.232118
0.22338
0.224444
0.226488
0.229209
0.231562
0.233264
0.234486
0.235387
0.235888
0.236118
0.236401
0.236784
0.236926
0.236559
0.235739
0.234473
0.232569
0.230041
0.22758
0.226089
0.218205
0.21882
0.220185
0.222379
0.224672
0.226783
0.228457
0.229665
0.230577
0.23125
0.231707
0.231875
0.231638
0.230999
0.229861
0.228152
0.226052
0.223864
0.222051
0.221164
0.213575
0.213884
0.214982
0.217005
0.219152
0.221192
0.223116
0.224781
0.226058
0.226982
0.227566
0.227687
0.227278
0.226298
0.224834
0.223091
0.221162
0.219135
0.217534
0.216975
0.210845
0.210973
0.211712
0.213232
0.214922
0.216514
0.217993
0.219414
0.220755
0.221898
0.222632
0.222756
0.222348
0.221578
0.220573
0.219335
0.217891
0.216368
0.215237
0.214926
0.209306
0.209375
0.209798
0.210706
0.211857
0.213128
0.214568
0.216005
0.217352
0.218547
0.21942
0.219731
0.219499
0.218855
0.217926
0.216916
0.215987
0.215112
0.214509
0.214338
0.207349
0.207394
0.207625
0.208105
0.208731
0.209602
0.210572
0.211748
0.213044
0.214326
0.215365
0.215868
0.215877
0.215588
0.215215
0.214806
0.214394
0.214003
0.213733
0.213639
0.204535
0.204559
0.204725
0.20512
0.205688
0.206335
0.207244
0.208365
0.209635
0.210993
0.212238
0.21304
0.213366
0.213379
0.213227
0.213053
0.212836
0.212602
0.212444
0.212397
0.201191
0.201194
0.201317
0.20167
0.202197
0.20286
0.2037
0.204788
0.206112
0.207634
0.209152
0.210288
0.210932
0.211218
0.211358
0.211417
0.211312
0.21115
0.211063
0.211048
0.197576
0.197574
0.197671
0.197985
0.198497
0.199175
0.200047
0.201166
0.202595
0.204334
0.206211
0.207759
0.20879
0.209444
0.209798
0.209947
0.209983
0.209943
0.209929
0.209933
0.193643
0.193637
0.193728
0.194026
0.194504
0.195186
0.196122
0.197383
0.199034
0.201114
0.203455
0.20548
0.206913
0.207867
0.208474
0.208827
0.209006
0.209088
0.209137
0.20915
0.189236
0.189226
0.18933
0.189611
0.190104
0.190839
0.191889
0.193349
0.195317
0.197856
0.200786
0.203409
0.205291
0.206612
0.207485
0.208044
0.208382
0.208578
0.20868
0.208701
0.184217
0.184205
0.184318
0.184636
0.185184
0.186027
0.187262
0.189017
0.19142
0.194564
0.198242
0.201568
0.204007
0.205744
0.206921
0.207695
0.208188
0.208487
0.208637
0.208666
0.178443
0.178427
0.178569
0.178952
0.179612
0.180616
0.182117
0.184277
0.187259
0.191187
0.195809
0.200015
0.203146
0.20535
0.206867
0.20788
0.208538
0.208941
0.209138
0.209177
0.171729
0.17171
0.171891
0.172368
0.173181
0.174434
0.176308
0.179015
0.182756
0.18769
0.193501
0.198794
0.202725
0.205516
0.207439
0.208731
0.209575
0.210095
0.210348
0.210395
0.163837
0.163812
0.164046
0.164649
0.16568
0.167279
0.169669
0.173093
0.177819
0.184039
0.191339
0.197971
0.202885
0.206378
0.208786
0.210407
0.211473
0.212133
0.212452
0.21251
0.154438
0.154407
0.154717
0.155505
0.156837
0.158901
0.161963
0.166336
0.172351
0.18021
0.189368
0.197641
0.203753
0.208094
0.211087
0.213103
0.214432
0.215259
0.215654
0.215729
0.143047
0.143007
0.143427
0.144477
0.146228
0.148918
0.152899
0.158561
0.166253
0.17619
0.18765
0.197924
0.205486
0.210853
0.214553
0.217045
0.21869
0.219714
0.220204
0.220298
0.128999
0.12895
0.129538
0.130964
0.133314
0.136896
0.142156
0.149524
0.159396
0.171972
0.186267
0.198957
0.208261
0.214864
0.219425
0.222502
0.224536
0.225815
0.226434
0.226545
0.111339
0.111289
0.112143
0.11412
0.117339
0.122204
0.129238
0.13893
0.151683
0.167588
0.185329
0.200895
0.212266
0.22035
0.225961
0.229767
0.232292
0.233881
0.23466
0.234798
0.0886149
0.0885881
0.0898832
0.0927214
0.0972809
0.104073
0.113688
0.12661
0.143124
0.163153
0.184995
0.20391
0.217689
0.227529
0.234419
0.239143
0.242307
0.244311
0.245292
0.245466
0.0583664
0.0584162
0.0605251
0.0649144
0.0717579
0.0816619
0.0951424
0.112517
0.133863
0.158889
0.185478
0.208182
0.224694
0.236575
0.245013
0.250902
0.254919
0.257501
0.258761
0.258981
0.0162264
0.0165495
0.0205176
0.0281015
0.0391724
0.0542291
0.0734405
0.0968278
0.124214
0.155099
0.186993
0.213833
0.233342
0.247535
0.257824
0.265205
0.270398
0.273848
0.275535
0.275804
-0.0458922
-0.0440006
-0.0346647
-0.0202647
-0.0013239
0.02193
0.049157
0.080199
0.114724
0.15214
0.189698
0.22086
0.243518
0.260209
0.272603
0.281834
0.288626
0.293314
0.295764
0.296086
-0.120099
-0.117
-0.0997522
-0.0742348
-0.0447097
-0.011962
0.0240185
0.0632091
0.105375
0.150028
0.194233
0.230882
0.257875
0.278243
0.293895
0.306087
0.315701
0.322492
0.325093
0.326196
-0.196368
-0.186961
-0.161361
-0.1258
-0.0867393
-0.0448517
-0.000268831
0.0469863
0.0967504
0.148624
0.199509
0.241638
0.272858
0.296731
0.315459
0.330423
0.34245
0.351409
0.356148
0.35802
-0.254173
-0.243549
-0.212959
-0.17086
-0.124471
-0.075055
-0.0229584
0.0316473
0.0884774
0.147073
0.204032
0.250902
0.285497
0.311853
0.332415
0.348707
0.36168
0.371535
0.377201
0.379239
-0.300692
-0.289604
-0.255649
-0.208915
-0.157116
-0.101842
-0.0435621
0.0173511
0.0804278
0.145067
0.207424
0.258243
0.295344
0.323264
0.344773
0.361633
0.374923
0.38496
0.390696
0.392801
-0.338928
-0.327863
-0.2919
-0.241556
-0.185519
-0.125563
-0.062201
0.00407726
0.0726354
0.142654
0.209806
0.264079
0.303269
0.332396
0.354543
0.371661
0.384977
0.394973
0.400726
0.402759
-0.371954
-0.360995
-0.323535
-0.270423
-0.210916
-0.14701
-0.0792843
-0.00833888
0.0650901
0.140032
0.211668
0.269117
0.310144
0.340254
0.362843
0.380088
0.393356
0.40328
0.409059
0.410971
-0.401276
-0.390438
-0.351935
-0.296558
-0.234147
-0.166882
-0.0953644
-0.0202597
0.0576062
0.137092
0.212894
0.273353
0.316167
0.347257
0.370321
0.387743
0.401032
0.410888
0.416686
0.418479
-0.428098
-0.41733
-0.377988
-0.320721
-0.25589
-0.185738
-0.110893
-0.032071
0.0498126
0.13354
0.213445
0.277002
0.321716
0.353891
0.377516
0.395178
0.408539
0.418373
0.424182
0.425864
-0.453243
-0.442509
-0.402433
-0.34349
-0.276556
-0.203887
-0.126133
-0.0440022
0.0416031
0.129407
0.213394
0.28017
0.326956
0.360383
0.384702
0.402705
0.416193
0.426016
0.431844
0.433413
-0.477105
-0.466374
-0.425624
-0.365273
-0.296504
-0.22162
-0.141273
-0.056123
0.0329216
0.124596
0.212634
0.282823
0.331938
0.366856
0.392056
0.410529
0.42423
0.434108
0.439901
0.441405
-0.500022
-0.489241
-0.447857
-0.386321
-0.315919
-0.23907
-0.156416
-0.0685727
0.023619
0.118973
0.211079
0.284896
0.336646
0.373338
0.399651
0.418761
0.432782
0.442761
0.448499
0.449985
-0.522226
-0.511302
-0.469286
-0.406778
-0.334902
-0.256362
-0.17168
-0.0814282
0.0136443
0.11248
0.208623
0.286258
0.340988
0.379799
0.407505
0.427461
0.441948
0.452114
0.457791
0.459258
-0.543729
-0.53265
-0.490128
-0.426702
-0.353536
-0.273521
-0.187065
-0.0946748
0.00299262
0.105057
0.205135
0.286759
0.344812
0.386154
0.415596
0.436642
0.451753
0.462197
0.467841
0.469245
-0.564655
-0.553362
-0.510417
-0.446072
-0.371828
-0.290528
-0.202533
-0.108289
-0.00832072
0.0966928
0.200533
0.286227
0.347905
0.392224
0.423808
0.446244
0.462163
0.47298
0.478613
0.479893
-0.584931
-0.573455
-0.530074
-0.464931
-0.389755
-0.307354
-0.218049
-0.122218
-0.0202537
0.0873917
0.194743
0.284479
0.349997
0.397693
0.431922
0.456155
0.473126
0.484395
0.490028
0.491116
-0.604607
-0.592908
-0.549074
-0.483258
-0.407279
-0.323951
-0.233547
-0.136382
-0.0327291
0.0771946
0.187721
0.281343
0.350816
0.402255
0.439727
0.466287
0.484592
0.496326
0.501837
0.502701
-0.623513
-0.611677
-0.567396
-0.501
-0.424338
-0.340233
-0.248947
-0.150691
-0.0456513
0.0661879
0.179483
0.276691
0.350099
0.405585
0.446901
0.476542
0.496628
0.508769
0.513875
0.514392
-0.641775
-0.629734
-0.585028
-0.518131
-0.440897
-0.356159
-0.264156
-0.165057
-0.0589138
0.0544783
0.170065
0.270456
0.347573
0.407179
0.452887
0.486648
0.509492
0.522008
0.525919
0.525737
-0.659262
-0.647005
-0.601951
-0.534608
-0.456881
-0.371652
-0.279095
-0.179355
-0.0723944
0.0421652
0.15957
0.262605
0.343042
0.406495
0.456835
0.495928
0.523447
0.537395
0.538681
0.536185
-0.676028
-0.663594
-0.618128
-0.550385
-0.47226
-0.386649
-0.293686
-0.193504
-0.0859711
0.0294127
0.148137
0.25316
0.336409
0.403126
0.457653
0.502861
0.537732
0.557135
0.557215
0.545779
-0.692007
-0.679429
-0.633659
-0.565594
-0.487218
-0.401414
-0.308244
-0.207894
-0.100097
0.0156964
0.13517
0.241465
0.326946
0.39633
0.453672
0.504562
0.548651
0.577951
0.581807
0.573765
-0.707184
-0.694379
-0.648559
-0.580204
-0.501754
-0.415952
-0.322749