/*--------------------------------*- C++ -*----------------------------------*\
  =========                 |
  \\      /  F ield         | OpenFOAM: The Open Source CFD Toolbox
   \\    /   O peration     | Website:  https://openfoam.org
    \\  /    A nd           | Version:  10
     \\/     M anipulation  |
\*---------------------------------------------------------------------------*/
FoamFile
{
    format      ascii;
    class       volScalarField;
    location    "58";
    object      p;
}
// * * * * * * * * * * * * * * * * * * * * * * * * * * * * * * * * * * * * * //

dimensions      [0 2 -2 0 0 0 0];

internalField   nonuniform List<scalar> 
8800
(
0.799581
0.751794
0.713105
0.684111
0.663248
0.64842
0.637829
0.630355
0.625545
0.623502
0.624787
0.62899
0.635645
0.644967
0.657751
0.675489
0.700268
0.73421
0.776761
0.835463
0.630829
0.638508
0.645984
0.649293
0.64779
0.642715
0.636231
0.630159
0.625445
0.622614
0.62235
0.624871
0.629372
0.635325
0.6421
0.648384
0.652027
0.651292
0.645874
0.637185
0.609232
0.615392
0.619519
0.622464
0.624515
0.625121
0.624019
0.621921
0.619916
0.619024
0.620004
0.622399
0.625209
0.627396
0.628008
0.626813
0.624473
0.621082
0.616524
0.612763
0.603422
0.606072
0.608824
0.611228
0.612864
0.614027
0.614773
0.614897
0.614614
0.614581
0.615352
0.616537
0.617388
0.61746
0.616855
0.615768
0.613954
0.611385
0.608983
0.607479
0.598041
0.599466
0.601245
0.603277
0.605062
0.606405
0.607398
0.608203
0.60883
0.609414
0.610086
0.610598
0.610709
0.610429
0.609737
0.608492
0.606799
0.604953
0.603646
0.602815
0.592965
0.593885
0.595126
0.596692
0.598325
0.599852
0.601141
0.602216
0.603194
0.604109
0.604821
0.605168
0.605138
0.604707
0.603832
0.602636
0.601312
0.600053
0.599232
0.59868
0.588059
0.588728
0.58969
0.590991
0.5924
0.59386
0.595303
0.596634
0.597847
0.598978
0.599826
0.600213
0.600143
0.599644
0.598844
0.5979
0.596891
0.595969
0.595385
0.594979
0.583276
0.583792
0.584574
0.585704
0.586981
0.588355
0.589804
0.591285
0.592728
0.59409
0.595126
0.595619
0.595609
0.595234
0.594638
0.593918
0.593147
0.592465
0.592032
0.591715
0.578545
0.578955
0.57961
0.580615
0.581819
0.583146
0.584594
0.586159
0.587796
0.589421
0.590698
0.59138
0.59156
0.591402
0.591026
0.590514
0.589947
0.589457
0.589135
0.588877
0.57378
0.574115
0.574681
0.575605
0.57676
0.578072
0.579555
0.581215
0.583038
0.584949
0.58654
0.587512
0.587966
0.588056
0.587907
0.587617
0.587241
0.58691
0.586672
0.586455
0.568895
0.569172
0.569676
0.570555
0.571691
0.573026
0.57458
0.576379
0.578428
0.580669
0.582656
0.584003
0.584783
0.585158
0.585257
0.585188
0.585003
0.584811
0.584641
0.584454
0.563799
0.564032
0.564497
0.565359
0.566517
0.567918
0.569587
0.571576
0.573916
0.576568
0.579041
0.580837
0.582
0.582701
0.583076
0.583235
0.58324
0.583176
0.583061
0.582895
0.558404
0.558602
0.559047
0.559923
0.561142
0.562655
0.564493
0.56674
0.569449
0.572618
0.575679
0.57801
0.57962
0.580692
0.581376
0.581777
0.58199
0.582044
0.581976
0.581824
0.552609
0.552778
0.553221
0.554138
0.555462
0.557136
0.55921
0.561795
0.564975
0.568783
0.572559
0.575527
0.577663
0.579161
0.580196
0.580889
0.581304
0.581473
0.581445
0.581302
0.546297
0.546442
0.546898
0.547887
0.54936
0.551256
0.553642
0.55666
0.560434
0.565029
0.569669
0.573399
0.576157
0.578156
0.57959
0.580598
0.581246
0.581535
0.581544
0.581405
0.539332
0.539453
0.539935
0.541028
0.542703
0.54489
0.547677
0.551243
0.555755
0.561313
0.566999
0.571642
0.575138
0.577728
0.579632
0.581002
0.581908
0.582321
0.582363
0.582225
0.531537
0.531635
0.53216
0.533393
0.535327
0.537884
0.541183
0.545442
0.55087
0.557605
0.564554
0.570285
0.574652
0.577936
0.580403
0.582197
0.58339
0.583932
0.584006
0.583865
0.522683
0.522784
0.523363
0.524753
0.527018
0.530056
0.534008
0.539135
0.545702
0.553878
0.562343
0.569365
0.57476
0.578861
0.581994
0.584282
0.585799
0.586479
0.586583
0.586435
0.512467
0.512549
0.513219
0.514834
0.517532
0.521187
0.525964
0.532187
0.540169
0.550105
0.560387
0.568933
0.575534
0.580596
0.584492
0.587363
0.589249
0.590075
0.590206
0.590048
0.50052
0.500587
0.501356
0.503282
0.506537
0.510986
0.51682
0.52443
0.534174
0.546256
0.558707
0.56904
0.577047
0.58323
0.588013
0.591564
0.593851
0.594825
0.594978
0.594806
0.486295
0.48635
0.487261
0.489603
0.493593
0.499087
0.506301
0.51569
0.527643
0.542333
0.557349
0.569762
0.57938
0.586848
0.592662
0.596974
0.599694
0.600812
0.600979
0.60079
0.469033
0.469076
0.470201
0.473124
0.478123
0.48503
0.494081
0.50579
0.520529
0.538386
0.556399
0.571183
0.582622
0.591544
0.598504
0.603667
0.606832
0.608078
0.608247
0.608038
0.447582
0.447624
0.449094
0.452897
0.45935
0.468248
0.479819
0.494591
0.512838
0.534497
0.555964
0.5734
0.586864
0.597392
0.605587
0.61167
0.615257
0.616596
0.61675
0.61652
0.420227
0.420289
0.422343
0.42756
0.436259
0.448081
0.463202
0.482043
0.504677
0.530832
0.556196
0.576529
0.592163
0.604414
0.613948
0.620938
0.624876
0.626246
0.626365
0.626112
0.383938
0.384097
0.387354
0.395181
0.407678
0.423961
0.44414
0.468324
0.496327
0.527666
0.557309
0.580704
0.5986
0.612629
0.623539
0.631336
0.635482
0.636794
0.636852
0.636581
0.332942
0.333912
0.340383
0.353567
0.37266
0.395841
0.422995
0.453936
0.488277
0.525384
0.559539
0.586059
0.606218
0.621996
0.634204
0.64261
0.64675
0.647898
0.647882
0.647598
0.258356
0.265578
0.280548
0.303753
0.332694
0.365115
0.400795
0.439514
0.480882
0.524252
0.563277
0.593181
0.61581
0.633501
0.647031
0.655903
0.659922
0.660892
0.660829
0.660582
0.178142
0.195251
0.219515
0.253403
0.292561
0.334358
0.378644
0.425356
0.474186
0.524544
0.569373
0.60352
0.629244
0.649287
0.664431
0.67362
0.677228
0.677932
0.677889
0.677737
0.111297
0.131456
0.163409
0.206366
0.25456
0.305197
0.357831
0.41238
0.468517
0.52566
0.576042
0.614172
0.642784
0.664878
0.681055
0.690175
0.693476
0.6941
0.694103
0.693999
0.0565465
0.0783571
0.115811
0.165185
0.220518
0.278606
0.338627
0.400377
0.463397
0.527021
0.58269
0.624557
0.655795
0.679652
0.696838
0.706138
0.709465
0.710119
0.710168
0.710096
0.0109493
0.0339413
0.0751774
0.12965
0.190725
0.254971
0.321347
0.389506
0.458832
0.528514
0.589188
0.634596
0.668323
0.693927
0.712115
0.722051
0.725624
0.726222
0.726281
0.726239
-0.027754
-0.00409118
0.0400052
0.0985232
0.16443
0.233916
0.305809
0.379662
0.454732
0.530059
0.595466
0.64426
0.680398
0.707731
0.727034
0.737626
0.741456
0.742111
0.742191
0.742178
-0.0615803
-0.0374745
0.00889011
0.0707372
0.140724
0.214766
0.291553
0.37055
0.450908
0.531519
0.601415
0.653437
0.691877
0.72087
0.741196
0.752438
0.756615
0.757393
0.75751
0.757517
-0.092019
-0.0675216
-0.0193093
0.0453851
0.11889
0.196928
0.278105
0.361794
0.447056
0.532655
0.606829
0.661935
0.702544
0.733041
0.754374
0.766191
0.7707
0.771661
0.771778
0.771785
-0.120029
-0.0951766
-0.0453836
0.0217625
0.0983646
0.179943
0.265066
0.353053
0.442906
0.533254
0.611558
0.669619
0.712269
0.74413
0.766337
0.778668
0.78346
0.78456
0.784674
0.784671
-0.146409
-0.121154
-0.0698825
-0.00064452
0.0787216
0.163455
0.252146
0.344092
0.438253
0.53316
0.615499
0.676451
0.721053
0.7542
0.777094
0.789805
0.794783
0.795974
0.796083
0.796062
-0.17153
-0.145859
-0.0933744
-0.0221589
0.0596558
0.147221
0.239147
0.334739
0.43295
0.53226
0.618597
0.682442
0.728951
0.763284
0.786761
0.799707
0.804764
0.805994
0.806078
0.806038
-0.195808
-0.169595
-0.116081
-0.0430272
0.0409633
0.131068
0.225931
0.324877
0.426893
0.530468
0.620812
0.687613
0.736064
0.771518
0.79547
0.80849
0.813574
0.814798
0.814863
0.814802
-0.219373
-0.192752
-0.138086
-0.0634245
0.0225171
0.114901
0.212417
0.314444
0.420022
0.527725
0.622112
0.692
0.742498
0.779079
0.803408
0.816411
0.821419
0.822594
0.822645
0.822566
-0.242358
-0.215223
-0.159533
-0.0834294
0.00425888
0.0986769
0.198577
0.303407
0.412302
0.523977
0.622453
0.695632
0.748364
0.786142
0.810779
0.823632
0.828469
0.829553
0.829551
0.82946
-0.26489
-0.237186
-0.180501
-0.103077
-0.0138398
0.0823913
0.184422
0.291782
0.403728
0.51919
0.621786
0.698505
0.753759
0.792863
0.817727
0.830272
0.834792
0.835713
0.835647
0.835507
-0.286991
-0.258632
-0.201021
-0.12237
-0.0317525
0.0660695
0.169992
0.279606
0.394324
0.513337
0.620052
0.700579
0.758735
0.799418
0.824452
0.836444
0.840458
0.841148
0.841027
0.840876
-0.308506
-0.279527
-0.221032
-0.141287
-0.0494501
0.0497728
0.155341
0.266948
0.384143
0.506437
0.617186
0.701782
0.76329
0.805976
0.831252
0.842416
0.845602
0.845925
0.84574
0.845592
-0.329417
-0.299847
-0.240518
-0.159785
-0.0668781
0.0335568
0.140557
0.253883
0.373259
0.498515
0.613138
0.70199
0.767346
0.812636
0.838527
0.848706
0.850547
0.850139
0.84984
0.849745
-0.349791
-0.319559
-0.25946
-0.177834
-0.0839772
0.0175016
0.125724
0.240511
0.361759
0.489631
0.607857
0.701054
0.770726
0.819318
0.846637
0.85619
0.856194
0.854199
0.853475
0.853678
-0.369458
-0.33864
-0.2778
-0.195375
-0.10069
0.00168812
0.110936
0.22694
0.349759
0.479878
0.601328
0.698798
0.773151
0.825667
0.85556
0.865865
0.8645
0.860072
0.857428
0.856996
-0.388513
-0.357082
-0.295558
-0.212438
-0.11705
-0.0139261
0.0961362
0.213115
0.337191
0.469182
0.593417
0.694949
0.774312
0.831156
0.864653
0.877997
0.877885
0.871472
0.863272
0.849246
-0.406883
-0.37487
-0.312851
-0.229223
-0.133339
-0.0296679
0.0809171
0.198562
0.32353
0.456921
0.58349
0.688743
0.773654
0.835065
0.87221
0.890406
0.892219
0.879673
0.859874
0.848245
-0.424393
-0.39214
-0.329485
-0.245528
-0.149208
-0.0451972
0.0655021
0.183602
0.309077
0.443347
0.571602
0.679692
0.770327
0.836228
0.874025
0.892046
0.89655
0.873222
0.805561
0.775209
-0.440377
-0.410138
-0.345131
-0.260858
-0.163874
-0.0600144
0.0502045
0.168462
0.294047
0.428577
0.557676
0.667469
0.762883
0.833965
0.865092
0.877708
0.866769
0.812462
0.743382
0.700889
-0.495932
-0.426019
-0.359333
-0.276335
-0.178953
-0.0755794
0.0349568
0.152858
0.278065
0.412144
0.541095
0.651407
0.747424
0.825016
0.829506
0.831875
0.781856
0.711275
0.634532
0.591822
-0.457377
-0.441339
-0.380553
-0.296608
-0.201241
-0.0979309
0.0115781
0.128816
0.253014
0.385648
0.512648
0.621259
0.70936
0.791708
0.778079
0.664187
0.558572
0.48508
0.411512
0.441862
-0.488311
-0.458959
-0.397247
-0.314117
-0.218759
-0.115586
-0.00581844
0.110773
0.233889
0.364708
0.488882
0.59328
0.671911
0.715898
0.667073
0.517602
0.389356
0.297673
0.198776
0.24867
-0.512149
-0.479859
-0.416908
-0.333615
-0.238149
-0.135079
-0.0253998
0.0903494
0.212052
0.340454
0.460881
0.559088
0.628931
0.638425
0.531521
0.358302
0.205308
0.0862467
-0.0450188
-0.0123259
-0.535485
-0.501653
-0.43751
-0.353291
-0.257733
-0.154812
-0.0456584
0.0691194
0.189216
0.314822
0.430572
0.520938
0.575548
0.55364
0.394896
0.198437
0.00803034
-0.159949
-0.348543
-0.367116
-0.558234
-0.523943
-0.458897
-0.373895
-0.278181
-0.175477
-0.0669734
0.0467096
0.164942
0.287355
0.397729
0.480225
0.515426
0.457435
0.264958
0.0544819
-0.162701
-0.351877
-0.593757
-0.891751
-0.581285
-0.546981
-0.481382
-0.39588
-0.299968
-0.197426
-0.0895003
0.0230539
0.139314
0.258272
0.362961
0.437202
0.451384
0.342374
0.151962
-0.0578003
-0.261936
-0.434084
-0.503225
-0.582276
-0.605598
-0.571219
-0.505309
-0.419564
-0.323589
-0.221301
-0.114045
-0.00279317
0.111176
0.226153
0.324794
0.388056
0.377421
0.234805
0.0516151
-0.139114
-0.301744
-0.394489
-0.418522
-0.434436
-0.631479
-0.596965
-0.530853
-0.445027
-0.349175
-0.247312
-0.140966
-0.0313185
0.0799402
0.190294
0.282428
0.331643
0.303505
0.135007
-0.0392793
-0.204942
-0.331251
-0.370185
-0.383063
-0.384395
-0.659131
-0.624395
-0.558077
-0.472266
-0.376675
-0.275462
-0.170279
-0.0625699
0.0455408
0.150697
0.235393
0.270628
0.222913
0.0428947
-0.122344
-0.270711
-0.346636
-0.363676
-0.364991
-0.3648
-0.688618
-0.653576
-0.587005
-0.501276
-0.406104
-0.305739
-0.201987
-0.0965605
0.00798585
0.107427
0.183762
0.207334
0.123954
-0.0411794
-0.198183
-0.320478
-0.357023
-0.355246
-0.354237
-0.353606
-0.719654
-0.684321
-0.617534
-0.531969
-0.437372
-0.338085
-0.236056
-0.133262
-0.0326874
0.060581
0.128405
0.135341
0.0337134
-0.119444
-0.258178
-0.33355
-0.343967
-0.346682
-0.347396
-0.347092
-0.751688
-0.716195
-0.649407
-0.564114
-0.470291
-0.37234
-0.272326
-0.172537
-0.0762955
0.0104887
0.069649
0.0616774
-0.0473238
-0.185628
-0.301357
-0.332806
-0.341261
-0.342819
-0.34269
-0.342437
-0.784251
-0.748638
-0.682179
-0.597312
-0.504513
-0.408177
-0.310513
-0.214093
-0.12255
-0.0421805
0.00652556
-0.00870322
-0.122152
-0.23895
-0.331483
-0.347083
-0.339736
-0.339064
-0.339113
-0.338947
-0.816445
-0.780916
-0.714953
-0.630977
-0.539489
-0.445118
-0.350157
-0.25744
-0.170972
-0.0968376
-0.0581688
-0.0746164
-0.188345
-0.279429
-0.332662
-0.343528
-0.340074
-0.338422
-0.337746
-0.337491
-0.846692
-0.811851
-0.746765
-0.664175
-0.574448
-0.482455
-0.390596
-0.301871
-0.220743
-0.152909
-0.117792
-0.149127
-0.244773
-0.313524
-0.319293
-0.336506
-0.340791
-0.339085
-0.338442
-0.338016
-0.873384
-0.839638
-0.776475
-0.695707
-0.608344
-0.519249
-0.430948
-0.346497
-0.2707
-0.209428
-0.174955
-0.223078
-0.301897
-0.33261
-0.347997
-0.348925
-0.348749
-0.348325
-0.348303
-0.347886
-0.894396
-0.862365
-0.802079
-0.724152
-0.639896
-0.554333
-0.470106
-0.390252
-0.319603
-0.264922
-0.234326
-0.286311
-0.364829
-0.404593
-0.402532
-0.396024
-0.385476
-0.382026
-0.379696
-0.378019
-0.907471
-0.878145
-0.821576
-0.747662
-0.667599
-0.586384
-0.506822
-0.431873
-0.366215
-0.317388
-0.291583
-0.339259
-0.433365
-0.536175
-0.493537
-0.453162
-0.435413
-0.425405
-0.418574
-0.416866
-0.909977
-0.884715
-0.833063
-0.7644
-0.689758
-0.614006
-0.539757
-0.470011
-0.409216
-0.364561
-0.336588
-0.369415
-0.449072
-0.637037
-0.548601
-0.460253
-0.419161
-0.402685
-0.397026
-0.39549
-0.899759
-0.879396
-0.834375
-0.772768
-0.704909
-0.635721
-0.567604
-0.503363
-0.447086
-0.404537
-0.366244
-0.337932
-0.295462
-0.373964
-0.351449
-0.318727
-0.314276
-0.318308
-0.32172
-0.321517
-0.874731
-0.859369
-0.823691
-0.771565
-0.712099
-0.650556
-0.589225
-0.530737
-0.478716
-0.438412
-0.38822
-0.262771
0.00225505
0.339079
0.174918
-0.109449
-0.237249
-0.283163
-0.30104
-0.304887
-0.837417
-0.827485
-0.801775
-0.760955
-0.71134
-0.658304
-0.60414
-0.551224
-0.503739
-0.465834
-0.415359
-0.317757
-0.128846
0.02725
-0.149459
-0.325893
-0.424822
-0.469289
-0.487687
-0.495065
-0.794526
-0.788888
-0.773523
-0.743748
-0.704559
-0.659742
-0.61252
-0.565032
-0.521224
-0.488811
-0.468174
-0.584631
-0.958521
-1.40257
-1.46013
-1.22798
-1.0285
-0.914865
-0.876425
-0.873184
-0.755953
-0.752565
-0.745216
-0.725441
-0.694657
-0.656878
-0.615185
-0.571534
-0.529313
-0.497716
-0.487553
-0.692732
-1.06462
-1.46715
-1.58406
-1.4696
-1.36076
-1.20165
-1.07641
-1.04995
-0.728678
-0.726579
-0.722958
-0.710622
-0.686011
-0.652541
-0.613893
-0.570695
-0.526077
-0.481223
-0.462891
-0.461147
-0.560833
-0.685813
-0.786144
-0.802415
-0.800797
-0.718875
-0.612732
-0.569294
-0.708488
-0.70772
-0.70661
-0.70047
-0.681236
-0.65002
-0.610728
-0.565682
-0.514131
-0.45988
-0.41889
-0.390819
-0.293887
-0.0651483
0.179687
0.371103
0.458738
0.507394
0.54003
0.558305
-0.697213
-0.696839
-0.696218
-0.693548
-0.67972
-0.649566
-0.607877
-0.558123
-0.501237
-0.437064
-0.367993
-0.300177
-0.0796841
0.30255
0.679957
1.0082
1.17676
1.24688
1.26508
1.26485
-0.690739
-0.690392
-0.689591
-0.688966
-0.680922
-0.651789
-0.606244
-0.550696
-0.486294
-0.406663
-0.318151
-0.22192
0.0286325
0.410926
0.791359
1.11064
1.29204
1.3711
1.39485
1.40007
-0.68858
-0.688616
-0.688769
-0.689915
-0.685304
-0.656793
-0.606623
-0.545702
-0.471937
-0.386191
-0.288004
-0.189011
0.0472869
0.378099
0.682239
0.935994
1.09532
1.18638
1.23632
1.25495
-0.685208
-0.686235
-0.688793
-0.692413
-0.689176
-0.660423
-0.609157
-0.543906
-0.463869
-0.369821
-0.268144
-0.179676
0.0135045
0.316312
0.593358
0.823761
0.984949
1.08617
1.14482
1.16586
-0.679737
-0.679737
-0.677133
-0.672009
-0.66838
-0.653553
-0.614517
-0.54782
-0.461827
-0.362206
-0.263857
-0.175022
-0.0100485
0.25172
0.511907
0.72956
0.903243
1.01027
1.06173
1.07678
-0.701422
-0.697495
-0.678888
-0.650581
-0.641601
-0.655935
-0.632515
-0.55996
-0.464584
-0.359055
-0.262108
-0.176475
-0.0588161
0.183222
0.404237
0.593317
0.743264
0.834121
0.87501
0.885538
-0.775933
-0.772974
-0.770971
-0.774127
-0.770218
-0.761405
-0.687142
-0.581415
-0.467363
-0.356064
-0.259766
-0.174505
-0.0789979
0.0959477
0.281665
0.433238
0.551288
0.621058
0.65163
0.658584
-0.900072
-0.916045
-0.954598
-0.984507
-0.973652
-0.910284
-0.759148
-0.601943
-0.4666
-0.34982
-0.254717
-0.175283
-0.0978847
0.0281551
0.171494
0.287303
0.378219
0.430103
0.451586
0.454725
-0.953714
-0.976986
-1.01357
-1.03835
-1.02544
-0.942301
-0.76231
-0.588438
-0.448511
-0.335539
-0.248092
-0.180776
-0.120524
-0.0329921
0.0756128
0.164931
0.234401
0.272008
0.287535
0.287355
-0.808946
-0.830901
-0.866208
-0.894803
-0.88522
-0.796935
-0.650693
-0.514061
-0.400115
-0.306738
-0.23454
-0.181524
-0.143041
-0.0837192
-0.0045956
0.0625385
0.115043
0.140774
0.149153
0.149261
-0.49278
-0.507399
-0.533304
-0.559189
-0.564206
-0.528155
-0.462399
-0.391653
-0.326428
-0.26538
-0.214109
-0.175909
-0.150456
-0.113673
-0.0641246
-0.0201471
0.012038
0.0277486
0.0328713
0.0313651
-0.178039
-0.184814
-0.200915
-0.226598
-0.254585
-0.270578
-0.274903
-0.266034
-0.246734
-0.218909
-0.189671
-0.165159
-0.148129
-0.12807
-0.102082
-0.0818943
-0.0697344
-0.0667931
-0.0662954
-0.0673563
0.0137272
0.0102723
-0.00102708
-0.0256876
-0.0640403
-0.107641
-0.143841
-0.16829
-0.178909
-0.176778
-0.165895
-0.151688
-0.138471
-0.133262
-0.129859
-0.127934
-0.130148
-0.133928
-0.135718
-0.136246
0.084817
0.0829107
0.0743875
0.0533182
0.0175974
-0.0264294
-0.0693514
-0.105081
-0.130332
-0.144332
-0.147434
-0.141808
-0.132689
-0.13698
-0.145696
-0.1548
-0.164363
-0.170788
-0.1728
-0.173098
0.0935884
0.0920983
0.0857498
0.0699866
0.0427321
0.0073834
-0.0309992
-0.067297
-0.0983092
-0.122785
-0.139698
-0.147985
-0.148901
-0.157011
-0.164695
-0.171557
-0.178846
-0.18309
-0.184262
-0.184707
0.0789025
0.0778227
0.0733975
0.0624185
0.0430718
0.0167286
-0.0142467
-0.046382
-0.0780059
-0.109301
-0.141345
-0.17451
-0.197968
-0.192546
-0.185843
-0.184946
-0.184174
-0.184602
-0.184803
-0.185238
0.0595081
0.0587772
0.0558151
0.0484247
0.035085
0.0161114
-0.00765958
-0.0344217
-0.0636051
-0.0976244
-0.140679
-0.194366
-0.235004
-0.215503
-0.194815
-0.183494
-0.180464
-0.180264
-0.180243
-0.180456
0.0422443
0.0417789
0.0398737
0.035037
0.0260486
0.0127399
-0.00477201
-0.0257694
-0.0502834
-0.0816192
-0.124923
-0.182417
-0.210476
-0.188826
-0.170351
-0.164212
-0.164174
-0.165349
-0.165553
-0.165422
0.0289421
0.0286529
0.0274914
0.024438
0.0185744
0.00954901
-0.00274543
-0.0180219
-0.0363588
-0.0594689
-0.0901656
-0.12751
-0.138876
-0.124888
-0.118908
-0.122293
-0.128309
-0.131769
-0.132338
-0.1321
0.0194918
0.0193311
0.0186693
0.0168595
0.0132361
0.00748186
-0.00051561
-0.0104437
-0.0217655
-0.0339552
-0.0451814
-0.0541171
-0.0490541
-0.0455144
-0.0553356
-0.067608
-0.0769332
-0.0810668
-0.0819185
-0.0818731
0.012901
0.0128502
0.012526
0.0115846
0.00959578
0.00627387
0.00165596
-0.00372916
-0.00858225
-0.010023
-0.00225459
0.015951
0.0404271
0.026916
0.00549202
-0.0126412
-0.0225414
-0.0254683
-0.0270134
-0.0274395
0.00828385
0.0082899
0.00818691
0.00783239
0.00692501
0.00532969
0.00314933
0.00110889
0.0010119
0.00729513
0.0275816
0.0610383
0.0914744
0.0741584
0.0489721
0.0301901
0.0211039
0.0178927
0.0166603
0.0160597
0.00489484
0.00493351
0.00495279
0.00492455
0.00468148
0.00414464
0.00345029
0.00334845
0.0055799
0.0148303
0.0387779
0.0746423
0.101709
0.0871665
0.0639123
0.0509435
0.0467282
0.0455269
0.043556
0.0423251
0.00222204
0.00225156
0.0023063
0.00245388
0.00255633
0.0025487
0.00252224
0.00301905
0.00528129
0.0127117
0.0311689
0.0571337
0.0781789
0.0655876
0.0513526
0.0455636
0.0445276
0.044445
0.0427136
0.0414701
0.000143702
0.00016919
0.000156137
0.000245864
0.000406106
0.000477512
0.000499733
0.000619468
0.00100794
0.00231566
0.00570941
0.0124035
0.0182393
0.0174949
0.0149316
0.0184329
0.0184203
0.0147175
0.0108003
0.010023
-0.120466
0.0461546
0.240659
0.41042
0.546001
0.652697
0.740886
0.815978
0.850213
0.826943
0.181553
0.302046
0.431676
0.543678
0.638038
0.716085
0.779275
0.824151
0.846614
0.858732
0.399942
0.482594
0.571199
0.649429
0.716691
0.772966
0.817731
0.850452
0.874127
0.892138
0.560448
0.619619
0.681112
0.738092
0.787657
0.829753
0.864343
0.891952
0.914716
0.933034
0.685686
0.728723
0.774618
0.818349
0.856993
0.890757
0.919668
0.943742
0.964111
0.981957
0.789883
0.822716
0.860785
0.896287
0.928883
0.95811
0.983659
1.00514
1.02298
1.04033
0.882356
0.911026
0.94497
0.977082
1.00701
1.03418
1.05791
1.07763
1.09313
1.11021
0.970902
1.00009
1.03409
1.06612
1.09571
1.12229
1.14515
1.16364
1.177
1.19404
1.06619
1.09939
1.13603
1.1696
1.19964
1.22582
1.24777
1.26505
1.27691
1.29431
1.18117
1.219
1.25763
1.29188
1.32122
1.34596
1.36633
1.38222
1.39369
1.41176
1.32611
1.36465
1.40079
1.43147
1.45715
1.47924
1.49829
1.51382
1.52625
1.54424
1.50118
1.5328
1.55898
1.58142
1.6014
1.62012
1.63783
1.65431
1.66966
1.68773
1.68979
1.70699
1.72203
1.73825
1.75416
1.76869
1.7819
1.79582
1.81336
1.83352
1.87151
1.88104
1.89259
1.90339
1.91268
1.92226
1.93304
1.94441
1.95577
1.97113
2.07874
2.0824
2.06746
2.05265
2.04637
2.05205
2.07053
2.10084
2.13301
2.15967
2.38506
2.2502
2.17356
2.13118
2.11375
2.11772
2.14511
2.20153
2.30415
2.52851
0.690179
0.688051
0.683567
0.674943
0.662719
0.650591
0.640364
0.632472
0.626858
0.62361
0.623263
0.626008
0.631117
0.638343
0.647733
0.659273
0.671925
0.68296
0.689072
0.692126
0.614631
0.620478
0.626811
0.631304
0.633774
0.633451
0.630715
0.626907
0.623402
0.621149
0.621009
0.623214
0.626881
0.631173
0.634982
0.636866
0.63593
0.632449
0.627286
0.620665
0.606202
0.608499
0.611903
0.614899
0.616974
0.618471
0.619228
0.618914
0.617893
0.617017
0.6172
0.618634
0.620454
0.621762
0.621944
0.621054
0.619505
0.617169
0.613906
0.610986
0.600687
0.601774
0.603606
0.605984
0.608008
0.609436
0.610458
0.611213
0.61162
0.611849
0.612349
0.613163
0.613765
0.613834
0.613422
0.612574
0.611105
0.609021
0.606935
0.605552
0.595479
0.596141
0.597249
0.598954
0.600735
0.602367
0.603664
0.604683
0.605571
0.606369
0.607107
0.607666
0.607863
0.607698
0.607132
0.606078
0.60465
0.603106
0.601788
0.601008
0.590495
0.590956
0.591741
0.593039
0.594525
0.596042
0.597508
0.598809
0.59995
0.601014
0.601939
0.602514
0.602663
0.602391
0.601694
0.600704
0.599579
0.598446
0.597531
0.597014
0.585658
0.586002
0.586613
0.58768
0.588973
0.590346
0.591785
0.593233
0.594611
0.5959
0.597021
0.59772
0.5979
0.597626
0.597027
0.59625
0.595399
0.594532
0.59386
0.593481
0.580912
0.581179
0.581672
0.582579
0.583747
0.585043
0.586437
0.587927
0.589472
0.591
0.592359
0.593236
0.59354
0.593421
0.593028
0.592467
0.591818
0.591179
0.590687
0.590399
0.576175
0.576388
0.576797
0.577594
0.578681
0.579928
0.581312
0.582848
0.584524
0.586287
0.58793
0.589065
0.589606
0.589725
0.589559
0.589217
0.588773
0.588324
0.587972
0.587746
0.571361
0.571533
0.571883
0.572607
0.573647
0.574871
0.576282
0.5779
0.579731
0.581746
0.583729
0.585216
0.586076
0.586477
0.58656
0.586445
0.586212
0.585934
0.585697
0.585517
0.566382
0.566521
0.56683
0.567508
0.568531
0.569779
0.571255
0.572998
0.575036
0.577359
0.579755
0.581682
0.582924
0.583654
0.584019
0.584143
0.584118
0.584005
0.583866
0.583722
0.561149
0.56126
0.561542
0.5622
0.563241
0.564557
0.566143
0.568063
0.570375
0.573088
0.575996
0.57845
0.580143
0.581253
0.581937
0.582324
0.582509
0.582564
0.582511
0.582394
0.555567
0.555655
0.55592
0.556584
0.557678
0.559104
0.560854
0.56302
0.565685
0.568891
0.572429
0.575516
0.577742
0.57929
0.580332
0.581025
0.58145
0.581659
0.581681
0.581585
0.549528
0.549596
0.549855
0.550546
0.551731
0.553315
0.555292
0.557784
0.560899
0.564724
0.569029
0.572877
0.575737
0.577799
0.579253
0.580286
0.580971
0.58135
0.581443
0.581364
0.542907
0.542955
0.543215
0.543956
0.545273
0.547071
0.549349
0.552257
0.555943
0.560531
0.565771
0.570536
0.574149
0.576821
0.578756
0.580168
0.581156
0.581716
0.58188
0.581815
0.535549
0.535579
0.535844
0.536659
0.538152
0.540228
0.542892
0.546329
0.55073
0.556259
0.562637
0.568503
0.573011
0.576399
0.578906
0.580769
0.5821
0.582856
0.583089
0.583035
0.527264
0.527281
0.527548
0.52846
0.530186
0.532606
0.535767
0.539876
0.54517
0.551857
0.559615
0.566799
0.572368
0.576598
0.57978
0.582188
0.583907
0.584874
0.585178
0.585132
0.517742
0.517729
0.518057
0.519108
0.52112
0.523994
0.527789
0.532746
0.539158
0.547275
0.556705
0.565456
0.572277
0.577499
0.581471
0.584512
0.586678
0.587882
0.588259
0.588217
0.506701
0.506663
0.507035
0.508281
0.510664
0.514125
0.518727
0.524759
0.532571
0.54245
0.553898
0.564509
0.572796
0.579183
0.584082
0.587853
0.590536
0.591993
0.59244
0.5924
0.493661
0.493596
0.494047
0.495545
0.498412
0.50264
0.508288
0.515701
0.525282
0.537337
0.551212
0.56401
0.573999
0.581728
0.587713
0.592321
0.595583
0.597306
0.597819
0.597775
0.47798
0.477886
0.478461
0.480309
0.483827
0.489078
0.496114
0.50533
0.517168
0.531911
0.548685
0.564029
0.575969
0.585221
0.592446
0.598004
0.601898
0.60389
0.604455
0.604401
0.458721
0.4586
0.459375
0.461739
0.466173
0.472847
0.48178
0.493404
0.508152
0.526216
0.546418
0.564671
0.5788
0.589761
0.598342
0.604962
0.609521
0.611761
0.612358
0.612286
0.434483
0.434345
0.435452
0.438611
0.444428
0.453185
0.464806
0.479702
0.498202
0.520329
0.544525
0.566041
0.582575
0.595402
0.605446
0.613215
0.618421
0.620857
0.621451
0.621354
0.402967
0.402849
0.404565
0.409103
0.417215
0.429209
0.444771
0.46416
0.487466
0.514476
0.543225
0.568305
0.587395
0.602192
0.613789
0.622716
0.628468
0.631002
0.63155
0.631421
0.360035
0.360078
0.363132
0.370542
0.382903
0.400177
0.421572
0.447011
0.476305
0.509021
0.542798
0.571641
0.593357
0.61016
0.623309
0.633317
0.639416
0.641889
0.642339
0.642175
0.297958
0.299149
0.306614
0.320429
0.34055
0.366223
0.395829
0.428978
0.465357
0.504432
0.543524
0.576199
0.600518
0.619256
0.633838
0.644673
0.650856
0.65303
0.653312
0.653124
0.224307
0.226047
0.240334
0.264056
0.29506
0.33065
0.369219
0.410587
0.454565
0.500665
0.54594
0.583369
0.611081
0.632296
0.648661
0.660381
0.66653
0.668494
0.66874
0.668647
0.148284
0.154426
0.175528
0.209446
0.25082
0.296035
0.343537
0.393191
0.444874
0.498128
0.54977
0.59212
0.623332
0.647185
0.665504
0.677927
0.683659
0.68518
0.685354
0.685321
0.0860927
0.0945291
0.120189
0.161098
0.210593
0.264027
0.319582
0.376981
0.436006
0.496144
0.553902
0.600903
0.635367
0.661534
0.681241
0.694122
0.699806
0.701159
0.701387
0.701415
0.0354986
0.0445303
0.0737291
0.119862
0.175493
0.23555
0.297919
0.362172
0.427917
0.494514
0.558066
0.609476
0.646968
0.675285
0.696471
0.709897
0.715537
0.717199
0.717511
0.717585
-0.00687076
0.00244416
0.0340908
0.0842168
0.144887
0.210446
0.2786
0.348845
0.420627
0.493171
0.562167
0.617761
0.658151
0.688556
0.71112
0.72538
0.731502
0.733446
0.733788
0.733873
-0.0433675
-0.0339383
-0.000448123
0.052879
0.117713
0.187964
0.261155
0.336705
0.413957
0.492005
0.566126
0.625702
0.668875
0.701295
0.725253
0.740432
0.747129
0.74924
0.74963
0.749711
-0.0756562
-0.066186
-0.0312798
0.02475
0.0930722
0.167366
0.245018
0.325348
0.407617
0.490791
0.569759
0.633127
0.678949
0.713257
0.738539
0.754565
0.761842
0.764135
0.764545
0.7646
-0.105014
-0.0954978
-0.0594278
-0.0010613
0.0702509
0.148086
0.229704
0.314368
0.401262
0.48926
0.572855
0.639861
0.6882
0.724254
0.750736
0.767487
0.775327
0.77779
0.778219
0.778262
-0.132308
-0.12274
-0.085639
-0.0252727
0.0487089
0.129679
0.214839
0.303446
0.394637
0.487203
0.575264
0.645804
0.696547
0.73425
0.761771
0.779122
0.787351
0.789959
0.790405
0.790427
-0.158101
-0.148469
-0.1104
-0.048347
0.028047
0.111808
0.200161
0.292368
0.387551
0.484461
0.576874
0.650913
0.704018
0.743274
0.771725
0.789547
0.797968
0.800676
0.801128
0.801125
-0.182893
-0.173097
-0.134178
-0.0705285
0.00799771
0.0942464
0.185484
0.280977
0.379875
0.480921
0.577612
0.655176
0.710663
0.751429
0.780715
0.798851
0.807342
0.810053
0.810506
0.810468
-0.206922
-0.196902
-0.157232
-0.0920396
-0.0116224
0.0768493
0.170686
0.269178
0.37152
0.47651
0.577425
0.658585
0.716548
0.758848
0.788865
0.807198
0.815676
0.818347
0.818764
0.8187
-0.230295
-0.220063
-0.179595
-0.11303
-0.0309244
0.0595443
0.155709
0.256923
0.362443
0.471165
0.576253
0.661139
0.721744
0.765679
0.796412
0.814835
0.823181
0.825748
0.826112
0.826029
-0.253171
-0.242637
-0.201413
-0.133571
-0.0499525
0.0422932
0.140537
0.244203
0.352633
0.464866
0.574044
0.662816
0.726314
0.772063
0.803515
0.82189
0.829999
0.83238
0.832656
0.832541
-0.275513
-0.264702
-0.222742
-0.153699
-0.0687154
0.0251057
0.125198
0.231049
0.34211
0.457598
0.570757
0.663567
0.730285
0.778126
0.810352
0.828513
0.83617
0.838268
0.838431
0.838292
-0.29738
-0.286261
-0.243517
-0.173402
-0.0871961
0.00801238
0.109731
0.217517
0.330925
0.449383
0.566352
0.663322
0.733632
0.783973
0.817151
0.834926
0.841839
0.843476
0.843501
0.843343
-0.318599
-0.307243
-0.263734
-0.19264
-0.105349
-0.00891743
0.0941991
0.203676
0.319146
0.440274
0.560807
0.661996
0.736273
0.789647
0.824174
0.841527
0.847308
0.848137
0.847924
0.84776
-0.339312
-0.327609
-0.28338
-0.211395
-0.123143
-0.0256465
0.0786932
0.189605
0.306861
0.430348
0.55413
0.659484
0.73806
0.795069
0.83162
0.848898
0.853242
0.852593
0.85178
0.851608
-0.359353
-0.347334
-0.302426
-0.229621
-0.140502
-0.0420912
0.0632929
0.175422
0.294177
0.419668
0.54636
0.655681
0.738793
0.800001
0.839423
0.857663
0.860956
0.858042
0.85557
0.854611
-0.378785
-0.366461
-0.320819
-0.247268
-0.157388
-0.0581826
0.0480816
0.161208
0.281205
0.408371
0.537563
0.650484
0.738235
0.804035
0.847057
0.867878
0.871993
0.867677
0.861176
0.852743
-0.397524
-0.384949
-0.33865
-0.264491
-0.174009
-0.0741912
0.0327295
0.146569
0.267504
0.395964
0.527215
0.643345
0.735898
0.806807
0.853843
0.878812
0.886632
0.882617
0.872314
0.866918
-0.415523
-0.40272
-0.355908
-0.281261
-0.19037
-0.0901114
0.0172497
0.131486
0.253027
0.382327
0.515117
0.633873
0.730991
0.807512
0.857775
0.886122
0.896318
0.896319
0.858529
0.806686
-0.432487
-0.418995
-0.372446
-0.297506
-0.206572