/*--------------------------------*- C++ -*----------------------------------*\
  =========                 |
  \\      /  F ield         | OpenFOAM: The Open Source CFD Toolbox
   \\    /   O peration     | Website:  https://openfoam.org
    \\  /    A nd           | Version:  10
     \\/     M anipulation  |
\*---------------------------------------------------------------------------*/
FoamFile
{
    format      ascii;
    class       surfaceScalarField;
    location    "58";
    object      phi;
}
// * * * * * * * * * * * * * * * * * * * * * * * * * * * * * * * * * * * * * //

dimensions      [0 3 -1 0 0 0 0];

internalField   nonuniform List<scalar> 
17370
(
-0.0916067
0.0960095
0.284608
-0.077595
0.0594205
0.36495
-0.0430432
0.0316241
0.427587
-0.0223213
0.0162696
0.505303
-0.0116772
0.00880354
0.602276
-0.00659217
0.00510689
0.720543
-0.00386964
0.00298912
0.863787
-0.0022161
0.001638
1.03603
-0.00110666
0.00068569
1.24292
-0.00027436
-0.000119537
1.49158
0.000507859
-0.000921415
1.4916
0.00132569
-0.00183049
1.2432
0.00238129
-0.00312456
1.03638
0.0039819
-0.00520069
0.864125
0.00667491
-0.00887683
0.721259
0.0117404
-0.0163183
0.603793
0.0223551
-0.0316418
0.508726
0.0430431
-0.0594098
0.432535
0.0775883
-0.0960034
0.365191
0.0916209
0.19739
-0.127091
0.0880224
0.0390686
-0.364355
0.35403
-0.0714757
0.0818016
-0.446654
0.454254
-0.0791708
0.0715708
-0.521011
0.529109
-0.0637186
0.0556208
-0.612991
0.62076
-0.0482342
0.040465
-0.727164
0.733685
-0.0338532
0.0273323
-0.867581
0.872434
-0.022128
0.017275
-1.03857
1.04191
-0.0135756
0.010235
-1.24472
1.24713
-0.00768305
0.00527583
-1.49284
1.49486
-0.00331018
0.00129376
-1.49269
1.49452
0.00052728
-0.0023489
-1.24411
1.24602
0.00432336
-0.00623558
-1.03761
1.04009
0.0085722
-0.0110522
-0.866187
0.869814
0.0143108
-0.0179384
-0.724594
0.729746
0.0227228
-0.0278754
-0.609064
0.615633
0.0343475
-0.0409162
-0.515123
0.522458
0.0486356
-0.0559709
-0.43988
0.447657
0.0639927
-0.0717703
-0.374706
0.377355
0.0792646
-0.0819131
-0.256896
0.224434
0.071563
-0.0391009
-0.068811
0.0591995
0.00961154
-0.0521063
0.0589326
-0.374838
0.368011
-0.0580851
0.054243
-0.453947
0.457789
-0.0487563
0.0441971
-0.527618
0.532177
-0.0396476
0.0357521
-0.620803
0.624699
-0.0315394
0.0275438
-0.734662
0.738658
-0.0231856
0.0192963
-0.873958
0.877847
-0.0152484
0.0117886
-1.04336
1.04682
-0.00826593
0.00523041
-1.24865
1.25169
-0.00201972
-0.00096411
-1.49695
1.49993
0.00392605
-0.00707586
-1.49742
1.50057
0.0100216
-0.013423
-1.25006
1.25346
0.0167602
-0.0206685
-1.04565
1.04955
0.0244344
-0.0286695
-0.877133
0.881368
0.0325656
-0.0366809
-0.738979
0.743094
0.0404962
-0.0449668
-0.625967
0.630437
0.04946
-0.0548822
-0.535013
0.540435
0.0586496
-0.0594087
-0.458072
0.458831
0.0524597
-0.0320682
-0.336759
0.316367
0.00967455
-0.0686593
0.0589848
-0.0534109
0.0493001
0.00411083
-0.0332389
0.0436605
-0.358567
0.348145
-0.0473347
0.0467468
-0.459583
0.460171
-0.0438176
0.0406047
-0.536136
0.539349
-0.0369279
0.0335736
-0.628401
0.631755
-0.02994
0.0266983
-0.74204
0.745282
-0.0232436
0.0200435
-0.881343
0.884543
-0.016447
0.0130916
-1.05025
1.05361
-0.00938819
0.00597971
-1.25495
1.25836
-0.00218528
-0.00143384
-1.50328
1.5069
0.00502153
-0.00872448
-1.50406
1.50777
0.0120078
-0.0155409
-1.25702
1.26056
0.0187228
-0.02212
-1.05326
1.05665
0.0251429
-0.0284204
-0.884975
0.888252
0.0315191
-0.0350129
-0.746775
0.750269
0.0382498
-0.0418046
-0.634554
0.638109
0.0449114
-0.0477212
-0.544575
0.547385
0.0481854
-0.0443392
-0.456944
0.453098
0.0337065
-0.0163857
-0.297044
0.279723
0.00418051
-0.0531332
0.0489527
-0.0461316
0.0435769
0.00255465
-0.0230408
0.0333868
-0.337557
0.327211
-0.0391173
0.0400639
-0.459923
0.458976
-0.0388108
0.0364817
-0.542007
0.544336
-0.0338391
0.0312926
-0.634726
0.637273
-0.0283152
0.0254659
-0.74837
0.75122
-0.0222254
0.0192083
-0.887601
0.890618
-0.0158532
0.012715
-1.05678
1.05992
-0.00915363
0.00574945
-1.26175
1.26516
-0.00183506
-0.00196525
-1.51063
1.51443
0.00572508
-0.00951655
-1.51155
1.51534
0.0127554
-0.0160935
-1.26401
1.26735
0.019004
-0.0220985
-1.05986
1.06295
0.0248817
-0.0278832
-0.891445
0.894447
0.0305359
-0.0333197
-0.753446
0.756229
0.0357052
-0.0381852
-0.641058
0.643538
0.0403749
-0.0414438
-0.549215
0.550284
0.0403054
-0.0342948
-0.447967
0.441956
0.023641
-0.010383
-0.264527
0.251269
0.00264098
-0.0457064
0.0430654
-0.0414598
0.0396606
0.00179918
-0.016936
0.0262161
-0.317347
0.308067
-0.0328068
0.034923
-0.457419
0.455303
-0.0344847
0.032783
-0.546369
0.548071
-0.0305525
0.0284221
-0.639589
0.641719
-0.0259813
0.0235991
-0.753824
0.756207
-0.0207794
0.018028
-0.893479
0.89623
-0.014838
0.0117981
-1.06297
1.06601
-0.00832746
0.00500729
-1.26848
1.2718
-0.00116379
-0.00258564
-1.5182
1.52195
0.00628308
-0.00997212
-1.51908
1.52277
0.0130836
-0.0162724
-1.27062
1.2738
0.0190239
-0.0218801
-1.06597
1.06883
0.0243284
-0.0268375
-0.897227
0.899736
0.0289652
-0.0311573
-0.758667
0.760859
0.0330824
-0.035103
-0.645759
0.64778
0.0366013
-0.0367886
-0.550859
0.551046
0.0343777
-0.0273772
-0.435355
0.428354
0.0176848
-0.00748504
-0.239682
0.229483
0.0019048
-0.0408531
0.0389483
-0.0381124
0.0367623
0.00135013
-0.0129351
0.0209273
-0.299433
0.291441
-0.0276875
0.0306038
-0.452754
0.449838
-0.0308058
0.0296771
-0.549514
0.550643
-0.0276738
0.0257432
-0.643783
0.645713
-0.0235261
0.0213793
-0.758455
0.760602
-0.0188646
0.0163899
-0.898784
0.901259
-0.0134629
0.0106015
-1.06891
1.07177
-0.00726567
0.00404427
-1.27504
1.27826
-0.00030727
-0.00332586
-1.52562
1.52925
0.00689428
-0.0104376
-1.52637
1.52992
0.013398
-0.0163807
-1.27691
1.2799
0.0188801
-0.0213876
-1.07154
1.07405
0.0234826
-0.0256082
-0.902044
0.904169
0.0274341
-0.0293349
-0.762896
0.764797
0.0310057
-0.0327578
-0.649641
0.651393
0.0335891
-0.0330375
-0.550864
0.550313
0.0297001
-0.022379
-0.421136
0.413815
0.0138577
-0.00578563
-0.220448
0.212376
0.00147895
-0.0372838
0.0358049
-0.0355831
0.0345436
0.00103948
-0.0101088
0.0168748
-0.284086
0.27732
-0.0233842
0.0267628
-0.446669
0.443291
-0.0275422
0.0268461
-0.551548
0.552244
-0.0250767
0.0232896
-0.647613
0.6494
-0.0212223
0.0192108
-0.762681
0.764693
-0.0168434
0.0145197
-0.903594
0.905917
-0.0117861
0.00910542
-1.07448
1.07716
-0.00595146
0.00287328
-1.28137
1.28445
0.000720742
-0.00421564
-1.53279
1.53628
0.00763029
-0.0109855
-1.53336
1.53671
0.0137415
-0.0164603
-1.28276
1.28548
0.0186963
-0.0209135
-1.07644
1.07866
0.0227668
-0.0246499
-0.906189
0.908073
0.0262618
-0.0279353
-0.76658
0.768254
0.0294
-0.0308238
-0.652996
0.65442
0.0311496
-0.0298732
-0.549412
0.548135
0.0259152
-0.0186685
-0.406505
0.399258
0.0112386
-0.00465969
-0.205121
0.198542
0.00119611
-0.0344844
0.0332883
-0.0336305
0.0328206
0.000809828
-0.00801497
0.0137071
-0.271119
0.265427
-0.0197403
0.0233248
-0.439799
0.436214
-0.0245878
0.0241409
-0.552848
0.553295
-0.0226452
0.0209693
-0.651183
0.652859
-0.0190005
0.0170808
-0.766657
0.768576
-0.0148169
0.0125908
-0.908127
0.910354
-0.00996768
0.00740281
-1.0797
1.08227
-0.00439709
0.00146219
-1.2874
1.29033
0.00196463
-0.00529203
-1.53966
1.54299
0.00852242
-0.0116573
-1.53994
1.54308
0.0141965
-0.0166711
-1.28808
1.29056
0.0186915
-0.0206801
-1.0808
1.08279
0.0223279
-0.023997
-0.909872
0.911541
0.0254261
-0.0269103
-0.769833
0.771318
0.0281845
-0.0292336
-0.655631
0.65668
0.0291904
-0.0272494
-0.546531
0.54459
0.0228912
-0.0159125
-0.392142
0.385163
0.00939608
-0.00388039
-0.192546
0.18703
0.00100029
-0.0322035
0.0312032
-0.0321085
0.0314759
0.000632591
-0.00640299
0.0111774
-0.260221
0.255446
-0.0166267
0.0202194
-0.432624
0.429031
-0.0218132
0.0215962
-0.553663
0.55388
-0.0203379
0.0187269
-0.654552
0.656163
-0.0168177
0.0149503
-0.770467
0.772334
-0.0127488
0.010586
-0.912473
0.914636
-0.00803978
0.0055537
-1.08471
1.0872
-0.00264862
-0.000166754
-1.29315
1.29597
0.00344541
-0.00660353
-1.5462
1.54936
0.00964076
-0.0125578
-1.54608
1.549
0.0148991
-0.017159
-1.29294
1.2952
0.0189821
-0.0207535
-1.08472
1.0865
0.0222076
-0.0236803
-0.913137
0.91461
0.0249467
-0.0262605
-0.772716
0.77403
0.0273899
-0.0280257
-0.657506
0.658142
0.0276154
-0.0251182
-0.542386
0.539889
0.0205187
-0.0138782
-0.378365
0.371725
0.00808756
-0.00333473
-0.181936
0.177183
0.000863916
-0.0302825
0.0294186
-0.0309226
0.0304332
0.000489457
-0.00510835
0.00909208
-0.251093
0.247109
-0.013912
0.017364
-0.425516
0.422064
-0.0191486
0.0191264
-0.554042
0.554064
-0.0180693
0.0164951
-0.657824
0.659398
-0.0146123
0.0127644
-0.774185
0.776033
-0.0105869
0.00845322
-0.916697
0.918831
-0.00595035
0.00351664
-1.08957
1.09201
-0.000684049
-0.00205021
-1.29868
1.30141
0.00519888
-0.00820177
-1.55239
1.5554
0.0110585
-0.0137722
-1.55179
1.5545
0.0159258
-0.0179779
-1.29736
1.29941
0.0196103
-0.0211729
-1.08823
1.08979
0.0224425
-0.0237322
-0.916022
0.917311
0.0248499
-0.0260084
-0.775264
0.776422
0.0269561
-0.0272161
-0.658576
0.658836
0.026413
-0.0234461
-0.537172
0.534205
0.0187058
-0.0123988
-0.365272
0.358965
0.00716491
-0.00295679
-0.172737
0.168529
0.000771003
-0.028612
0.027841
-0.0300109
0.0296422
0.000368723
-0.00402609
0.00731597
-0.243495
0.240205
-0.0114945
0.0146959
-0.41875
0.415549
-0.0165464
0.0166843
-0.554056
0.553918
-0.0157171
0.0142211
-0.66101
0.662506
-0.0123392
0.0104797
-0.777875
0.779735
-0.0082888
0.00614953
-0.920869
0.923008
-0.00365353
0.00123826
-1.09433
1.09675
0.00155034
-0.00422359
-1.30405
1.30672
0.00727585
-0.0101515
-1.55829
1.56117
0.0128498
-0.0153726
-1.5571
1.55962
0.0173413
-0.0191851
-1.30137
1.30321
0.0206272
-0.0219835
-1.09133
1.09269
0.0230742
-0.0241885
-0.918549
0.919663
0.0251615
-0.0261513
-0.777493
0.778482
0.026843
-0.0268066
-0.658965
0.658928
0.0255948
-0.0222151
-0.53105
0.52767
0.0173827
-0.0113591
-0.352828
0.346804
0.00653474
-0.0027052
-0.164542
0.160712
0.000711106
-0.0271108
0.0263997
-0.0293333
0.029072
0.000261329
-0.00307953
0.00574401
-0.237249
0.234584
-0.00928153
0.0121491
-0.412533
0.409665
-0.0139512
0.014177
-0.553791
0.553565
-0.0132569
0.0118086
-0.664062
0.66551
-0.00990356
0.00800307
-0.781596
0.783497
-0.00576539
0.00358955
-0.925055
0.927231
-0.00106497
-0.00136126
-1.09906
1.10148
0.00414467
-0.0067864
-1.3093
1.31195
0.00976651
-0.0125334
-1.56394
1.5667
0.0150863
-0.0174271
-1.56202
1.56436
0.0192176
-0.0208591
-1.30496
1.3066
0.0221133
-0.0232582
-1.09405
1.09519
0.0241613
-0.0250961
-0.920732
0.921667
0.0259252
-0.026743
-0.77938
0.780198
0.0271519
-0.0268566
-0.658757
0.658461
0.0251974
-0.0214275
-0.524116
0.520346
0.0165078
-0.0106871
-0.340918
0.335098
0.00614017
-0.00255482
-0.157036
0.153451
0.000677947
-0.0257168
0.0250389
-0.028867
0.0287074
0.000159611
-0.00220491
0.00428334
-0.232232
0.230154
-0.00717571
0.00964038
-0.407021
0.404556
-0.0112879
0.011525
-0.553399
0.553162
-0.0106213
0.00918525
-0.667053
0.668489
-0.00723382
0.00526542
-0.785403
0.787371
-0.0029464
0.000700445
-0.929315
0.93156
0.00189328
-0.00436751
-1.10382
1.10629
0.00718133
-0.009821
-1.3145
1.31714
0.0127568
-0.0154347
-1.56937
1.57204
0.0178536
-0.0200163
-1.56657
1.56874
0.0216282
-0.0230655
-1.30815
1.30958
0.0241284
-0.0250549
-1.09636
1.09728
0.0257587
-0.0264964
-0.922554
0.923292
0.0271708
-0.0278434
-0.780914
0.781586
0.0279453
-0.0272848
-0.65794
0.657279
0.0251969
-0.0210436
-0.516426
0.512273
0.0160171
-0.0103123
-0.329382
0.323677
0.00593085
-0.00248302
-0.149968
0.14652
0.000665269
-0.0243801
0.0237148
-0.0286036
0.0285467
5.68721e-05
-0.00135272
0.00286021
-0.228378
0.22687
-0.00509345
0.007091
-0.402349
0.400352
-0.00847951
0.00864616
-0.553038
0.552871
-0.00771462
0.00625739
-0.670054
0.671511
-0.00422301
0.002155
-0.789348
0.791416
0.000282136
-0.00263807
-0.933715
0.936071
0.00533912
-0.00789637
-1.10868
1.11123
0.0107755
-0.0134437
-1.3197
1.32237
0.0163638
-0.0189719
-1.57463
1.57723
0.0212674
-0.0232548
-1.57077
1.57276
0.0246858
-0.0259104
-1.31091
1.31213
0.0267689
-0.0274583
-1.09825
1.09894
0.0279494
-0.0284766
-0.92399
0.924517
0.0289881
-0.0294609
-0.782085
0.782558
0.0292743
-0.0281932
-0.656371
0.65529
0.025641
-0.0210791
-0.507984
0.503422
0.0158965
-0.0102067
-0.318038
0.312348
0.00588516
-0.00248067
-0.14313
0.139726
0.000671049
-0.023061
0.0223899
-0.0285458
0.028598
-5.22334e-05
-0.00047766
0.00140927
-0.225666
0.224734
-0.00295651
0.00442303
-0.398644
0.397178
-0.0054499
0.00546035
-0.552879
0.552868
-0.00444176
0.0029064
-0.673151
0.674686
-0.000753023
-0.00145563
-0.793497
0.795705
0.00405814
-0.00655762
-0.938334
0.940834
0.00940732
-0.0120846
-1.11371
1.11638
0.0150691
-0.0177969
-1.32496
1.32769
0.0207266
-0.0232773
-1.57975
1.5823
0.0254518
-0.0272587
-1.57461
1.57642
0.0284975
-0.0294939
-1.31323
1.31422
0.0301371
-0.0305851
-1.09968
1.10013
0.0308511
-0.0311492
-0.925008
0.925307
0.031473
-0.03168
-0.782743
0.78295
0.0312204
-0.0296228
-0.653951
0.652353
0.0265602
-0.0215438
-0.498736
0.49372
0.0161356
-0.0103515
-0.306681
0.300897
0.00598882
-0.00254117
-0.136341
0.132893
0.000693403
-0.0217234
0.02103
-0.0287054
0.0288728
-0.000167441
0.000443272
-0.000118488
-0.22412
0.223795
-0.000692814
0.00154778
-0.396031
0.395176
-0.0021074
0.00187749
-0.553097
0.553327
-0.000716923
-0.000959044
-0.676461
0.678137
0.00328138
-0.0056729
-0.797931
0.800322
0.00848775
-0.0111804
-0.943245
0.945937
0.0142328
-0.0170771
-1.11899
1.12183
0.0202124
-0.0230354
-1.33035
1.33317
0.0260066
-0.0285196
-1.58475
1.58727
0.0305795
-0.0321991
-1.57808
1.5797
0.0332346
-0.0339793
-1.31507
1.31582
0.0343841
-0.03457
-1.10062
1.10081
0.0345958
-0.0346438
-0.925565
0.925613
0.0347661
-0.034639
-0.782775
0.782648
0.033831
-0.0316304
-0.650541
0.648341
0.0280002
-0.0224571
-0.488577
0.483034
0.0167325
-0.0107352
-0.295087
0.289089
0.00623127
-0.00265899
-0.129428
0.125855
0.000730619
-0.0203351
0.0196045
-0.0291203
0.0294291
-0.000308713
0.00144018
-0.00176102
-0.223825
0.224146
0.00179144
-0.00165661
-0.394637
0.394502
0.00169652
-0.00227525
-0.553904
0.554482
0.00366035
-0.00552641
-0.680112
0.681978
0.00807504
-0.010702
-0.802728
0.805355
0.0137878
-0.0167259
-0.948546
0.951484
0.0200347
-0.0230905
-1.12461
1.12766
0.0264193
-0.029369
-1.33593
1.33888
0.0324037
-0.0348839
-1.58968
1.59216
0.0368187
-0.0382214
-1.58115
1.58255
0.0390275
-0.0394974
-1.31638
1.31685
0.0396459
-0.0395461
-1.10101
1.10091
0.0393076
-0.0390855
-0.925598
0.925376
0.0390017
-0.0384256
-0.782047
0.78147
0.037169
-0.0342923
-0.645983
0.643106
0.0300092
-0.0238376
-0.47735
0.471178
0.0176864
-0.0113488
-0.283015
0.276678
0.006604
-0.00282936
-0.122231
0.118456
0.000781081
-0.0188674
0.0180863
-0.0298087
0.0302936
-0.000484882
0.00272036
-0.00378693
-0.224852
0.225919
0.0046835
-0.00534339
-0.39469
0.395349
0.00610235
-0.0071378
-0.555537
0.556573
0.00883384
-0.0109651
-0.684215
0.686346
0.0138229
-0.0167547
-0.808002
0.810934
0.0201822
-0.0234266
-0.954342
0.957587
0.0270545
-0.0303735
-1.13065
1.13397
0.0339419
-0.0370457
-1.34176
1.34487
0.0401536
-0.0425907
-1.59453
1.59696
0.0443742
-0.0455304
-1.58376
1.58492
0.0460556
-0.046233
-1.3171
1.31728
0.0461002
-0.0456816
-1.10077
1.10035
0.0451492
-0.044634
-0.925039
0.924524
0.0442451
-0.0432179
-0.78041
0.779382
0.0413974
-0.0377209
-0.640099
0.636423
0.0326636
-0.025724
-0.464837
0.457897
0.0190115
-0.0121924
-0.270208
0.263389
0.00710324
-0.00304913
-0.114596
0.110542
0.00084352
-0.0172945
0.016451
-0.0308477
0.0315518
-0.000704119
0.004211
-0.00616686
-0.227401
0.229357
0.00812241
-0.00968545
-0.396395
0.397958
0.0112664
-0.0128774
-0.55825
0.559861
0.0150173
-0.0175032
-0.688932
0.691418
0.020764
-0.0240777
-0.813892
0.817206
0.0279323
-0.0315597
-0.960762
0.964389
0.0355835
-0.039224
-1.13724
1.14088
0.043078
-0.0463601
-1.3479
1.35118
0.0495473
-0.0519266
-1.59928
1.60165
0.0535265
-0.0543899
-1.58587
1.58673
0.0545849
-0.0544154
-1.31715
1.31698
0.053955
-0.0531788
-1.09982
1.09904
0.0523202
-0.0514674
-0.923824
0.922971
0.0506785
-0.0491488
-0.777862
0.776333
0.0466191
-0.0419924
-0.632643
0.628016
0.0360088
-0.0281295
-0.450751
0.442871
0.0207011
-0.0132507
-0.25638
0.24893
0.00771445
-0.00330945
-0.106373
0.101968
0.000914658
-0.0155939
0.0146792
-0.0323191
0.0333102
-0.000991176
0.00608809
-0.00909668
-0.231728
0.234737
0.0123177
-0.0149391
-0.400023
0.402645
0.0174885
-0.0198048
-0.562317
0.564633
0.0225307
-0.0254949
-0.694452
0.697416
0.0292896
-0.0330916
-0.82056
0.824362
0.0374783
-0.0415705
-0.96796
0.972052
0.0460614
-0.0500688
-1.14447
1.14848
0.0542347
-0.0576938
-1.35438
1.35784
0.0609283
-0.0631925
-1.60387
1.60613
0.0645374
-0.0650273
-1.58734
1.58783
0.0648417
-0.0642471
-1.31641
1.31582
0.0634137
-0.0622268
-1.09807
1.09689
0.0610045
-0.0598114
-0.921855
0.920661
0.0584923
-0.0563598
-0.774288
0.772155
0.0529817
-0.0472029
-0.623292
0.617513
0.0400921
-0.0310581
-0.434741
0.425707
0.0227367
-0.0144974
-0.241232
0.232992
0.00841499
-0.00359739
-0.097422
0.0926044
0.00099005
-0.0137505
0.0127605
-0.0343511
0.0357367
-0.00138565
0.00853274
-0.012894
-0.23815
0.242512
0.0176034
-0.0214634
-0.405944
0.409804
0.0251538
-0.0283287
-0.568075
0.57125
0.0318214
-0.0354262
-0.701053
0.704657
0.0399202
-0.0443381
-0.828214
0.832632
0.0493652
-0.0539989
-0.976094
0.980728
0.0590164
-0.063417
-1.15243
1.15683
0.0678872
-0.0714808
-1.36118
1.36478
0.0746785
-0.0767228
-1.60817
1.61021
0.0776978
-0.0776969
-1.58799
1.58799
0.0770459
-0.0759166
-1.3147
1.31357
0.0746574
-0.0730178
-1.0954
1.09376
0.0713982
-0.0697852
-0.919104
0.917491
0.067888
-0.0650184
-0.769467
0.766598
0.0605846
-0.0533926
-0.61163
0.604438
0.0449075
-0.0344672
-0.416379
0.405938
0.02506
-0.0158764
-0.224456
0.215272
0.0091626
-0.00389063
-0.0876321
0.0823601
0.00106229
-0.0117594
0.0106971
-0.037139
0.039081
-0.00194201
0.0119443
-0.0180197
-0.247198
0.253274
0.0245305
-0.0298428
-0.41465
0.419962
0.0348824
-0.039099
-0.575919
0.580135
0.0435575
-0.0479933
-0.709072
0.713508
0.0533774
-0.0585511
-0.837099
0.842273
0.0643366
-0.0695834
-0.985322
0.990568
0.075158
-0.0799305
-1.16114
1.16591
0.0846288
-0.0882465
-1.36819
1.3718
0.0912496
-0.0929031
-1.61194
1.61359
0.093335
-0.092677
-1.58758
1.58692
0.0914242
-0.0896426
-1.31183
1.31005
0.0878576
-0.0857447
-1.09167
1.08956
0.0837228
-0.0815189
-0.915378
0.913175
0.0790778
-0.0752181
-0.76304
0.75918
0.0694713
-0.060548
-0.597118
0.588195
0.0503921
-0.0382573
-0.395171
0.383036
0.0275636
-0.0172963
-0.20576
0.195493
0.00989335
-0.0041577
-0.0769367
0.0712011
0.00112164
-0.00963129
0.00850964
-0.0410046
0.0438162
-0.00281164
0.0168864
-0.0252179
-0.259597
0.267928
0.0339727
-0.0410413
-0.426808
0.433877
0.0477306
-0.0532148
-0.586317
0.591801
0.0589159
-0.0644333
-0.718909
0.724427
0.0709188
-0.0769707
-0.847476
0.853528
0.0835699
-0.0894086
-0.995754
1.00159
0.0954459
-0.100448
-1.17052
1.17552
0.105165
-0.10858
-1.37511
1.37852
0.111111
-0.112109
-1.61479
1.61578
0.111753
-0.11022
-1.58575
1.58421
0.108204
-0.105652
-1.3076
1.30505
0.103234
-0.100557
-1.08679
1.08411
0.0980823
-0.0951989
-0.910286
0.907403
0.0921295
-0.087007
-0.754485
0.749363
0.0796073
-0.0685505
-0.579078
0.568021
0.0563764
-0.0422378
-0.370572
0.356433
0.0300675
-0.0186169
-0.184911
0.17346
0.010515
-0.00435584
-0.0653472
0.0591881
0.00115549
-0.00739764
0.00624215
-0.0465265
0.0508041
-0.00427761
0.0245537
-0.0359576
-0.276508
0.287911
0.0476229
-0.0570178
-0.443449
0.452844
0.0657266
-0.0726788
-0.599884
0.606836
0.0799121
-0.0869165
-0.73095
0.737955
0.0945649
-0.101408
-0.859549
0.866392
0.108646
-0.114851
-1.00726
1.01347
0.12103
-0.125919
-1.18017
1.18506
0.130241
-0.133056
-1.38142
1.38423
0.134671
-0.134618
-1.61611
1.61605
0.133132
-0.130448
-1.582
1.57932
0.127481
-0.124008
-1.30174
1.29827
0.120874
-0.117566
-1.08059
1.07729
0.114575
-0.110941
-0.903631
0.899997
0.106954
-0.10017
-0.743216
0.736432
0.0907075
-0.07706
-0.556649
0.543001
0.0625126
-0.046093
-0.342021
0.325602
0.0323063
-0.0196495
-0.161799
0.149143
0.0109092
-0.00443253
-0.0529937
0.046517
0.00114824
-0.00511482
0.00396658
-0.0547682
0.0621192
-0.00735101
0.0380201
-0.0538974
-0.300077
0.315954
0.0696341
-0.0822354
-0.466223
0.478824
0.0931177
-0.101418
-0.61707
0.625371
0.110147
-0.118402
-0.745583
0.753837
0.126929
-0.13415
-0.873016
0.880236
0.141456
-0.147439
-1.01923
1.02522
0.153097
-0.157245
-1.1893
1.19344
0.160506
-0.162106
-1.38621
1.38781
0.162218
-0.16064
-1.61505
1.61347
0.157648
-0.153503
-1.5758
1.57166
0.149343
-0.144747
-1.29393
1.28933
0.140785
-0.136808
-1.07288
1.06891
0.133163
-0.128694
-0.895241
0.890771
0.12337
-0.114371
-0.728302
0.719303
0.102266
-0.0854544
-0.528765
0.511953
0.0682275
-0.0494031
-0.309041
0.290217
0.0340017
-0.0202553
-0.136561
0.122814
0.0110125
-0.00437001
-0.0401799
0.0335374
0.00109283
-0.00287055
0.00177772
-0.0689744
0.0730965
-0.00412208
0.0291414
-0.0428965
-0.334306
0.348061
0.056828
-0.0683613
-0.496575
0.508109
0.078643
-0.0881891
-0.637418
0.646964
0.0987859
-0.108452
-0.761699
0.771366
0.119168
-0.128697
-0.886595
0.896124
0.138813
-0.147762
-1.03025
1.0392
0.157021
-0.164853
-1.19648
1.20432
0.172471
-0.178349
-1.38822
1.3941
0.18326
-0.186019
-1.61064
1.6134
0.18659
-0.185538
-1.56645
1.5654
0.183429
-0.180449
-1.28378
1.2808
0.17782
-0.174738
-1.06345
1.06036
0.171949
-0.167551
-0.884564
0.880166
0.160227
-0.146988
-0.708474
0.695235
0.128977
-0.104936
-0.494257
0.470216
0.081524
-0.0569934
-0.271337
0.246807
0.0380177
-0.021917
-0.109722
0.0936215
0.0115658
-0.00446128
-0.0274367
0.0203322
0.00109389
-0.000770468
-0.000323417
-0.0802387
0.0784109
0.00182775
0.0074827
-0.0165395
-0.364627
0.373683
0.0271116
-0.0352616
-0.524329
0.53248
0.0434906
-0.0515627
-0.659008
0.66708
0.0613252
-0.0703783
-0.780714
0.789767
0.0799783
-0.0887275
-0.9051
0.913849
0.0979744
-0.105808
-1.04785
1.05568
0.114083
-0.120703
-1.21193
1.21855
0.127053
-0.131617
-1.39962
1.40418
0.134774
-0.135941
-1.61525
1.61642
0.134911
-0.132225
-1.56351
1.56082
0.128481
-0.123734
-1.27707
1.27233
0.119366
-0.114574
-1.05514
1.05035
0.110085
-0.104259
-0.870927
0.865101
0.0965223
-0.084851
-0.678036
0.666365
0.0712388
-0.0548705
-0.444682
0.428314
0.0404643
-0.0269801
-0.222704
0.20922
0.0174429
-0.00985887
-0.0785961
0.0710121
0.00519331
-0.00203499
-0.0136914
0.0105331
0.00043844
0.00142851
-0.00186695
-0.0816903
0.0788071
0.00288325
-0.00169949
-0.0035556
-0.38509
0.390345
0.0107638
-0.0166418
-0.544814
0.550691
0.0227338
-0.0297971
-0.677247
0.68431
0.0382296
-0.0460859
-0.797966
0.805823
0.0546412
-0.0622677
-0.921854
0.92948
0.0700688
-0.0770226
-1.06332
1.07027
0.0841386
-0.0898863
-1.22469
1.23044
0.0949002
-0.0982131
-1.40801
1.41132
0.100292
-0.100232
-1.61677
1.61671
0.0979845
-0.0940768
-1.5574
1.55349
0.0893557
-0.08377
-1.26721
1.26163
0.0782223
-0.072288
-1.04392
1.03798
0.0666965
-0.0600518
-0.855424
0.848779
0.0529833
-0.0433899
-0.651355
0.641762
0.0336401
-0.0233141
-0.410186
0.39986
0.0157259
-0.00976722
-0.195227
0.189268
0.00616435
-0.0036278
-0.0634405
0.060904
0.00204724
-0.000839335
-0.00743783
0.00622992
0.000166038
0.0024775
-0.00264353
-0.0804368
0.0777066
0.00273021
-0.00533055
0.00280767
-0.398721
0.401244
0.00184791
-0.00628435
-0.559926
0.564363
0.0114217
-0.017337
-0.692298
0.698213
0.0245268
-0.031244
-0.81307
0.819787
0.0385448
-0.0450736
-0.936574
0.943103
0.0521239
-0.0579914
-1.07677
1.08264
0.064162
-0.0686572
-1.23574
1.24023
0.0728128
-0.07537
-1.41435
1.41691
0.0764713
-0.0753307
-1.61611
1.61497
0.0724437
-0.0679337
-1.54892
1.54441
0.0626831
-0.0561653
-1.25563
1.24911
0.0500504
-0.043374
-1.03081
1.02413
0.0369594
-0.0301472
-0.839045
0.832233
0.0236529
-0.0162959
-0.629116
0.621759
0.00982496
-0.00450621
-0.388411
0.383092
0.00173714
-0.000361111
-0.181925
0.180549
-2.528e-05
-7.28394e-05
-0.057393
0.0574911
0.000130778
-5.39803e-05
-0.00478198
0.00470518
-2.24627e-05
0.00309359
-0.00307113
-0.0789264
0.0765028
0.00242359
-0.00647809
0.00556428
-0.407791
0.408705
-0.00214735
-0.00105062
-0.572018
0.575216
0.00521569
-0.0105742
-0.704903
0.710262
0.0166013
-0.022486
-0.825825
0.83171
0.0287958
-0.0344496
-0.949174
0.954828
0.0404725
-0.0456648
-1.08836
1.09355
0.0508379
-0.0548983
-1.24456
1.24862
0.0583343
-0.0602832
-1.41905
1.421
0.0607761
-0.0591319
-1.61359
1.61195
0.055828
-0.050752
-1.53916
1.53408
0.0452092
-0.0385264
-1.24244
1.23576
0.0321118
-0.0249243
-1.01656
1.00937
0.018361
-0.0114244
-0.822959
0.816022
0.00559133
0.000243795
-0.611737
0.605902
-0.00434166
0.00655015
-0.375563
0.373354
-0.00667356
0.00563185
-0.177053
0.178094
-0.00422119
0.00262637
-0.0568009
0.0583957
-0.00143814
0.000594496
-0.00454777
0.00539142
-0.000185454
0.0033103
-0.00312485
-0.0775141
0.0754335
0.00208054
-0.00637615
0.00597899
-0.413985
0.414382
-0.0039538
0.00138934
-0.581297
0.583861
0.00265045
-0.00722268
-0.715564
0.720136
0.0123923
-0.0174957
-0.836821
0.841924
0.0230998
-0.0281412
-0.960128
0.965169
0.0336299
-0.0381477
-1.09845
1.10297
0.0427539
-0.0463452
-1.25237
1.25596
0.0492672
-0.0508038
-1.42265
1.42419
0.0508923
-0.0493173
-1.61016
1.60859
0.0457592
-0.0406654
-1.52853
1.52344
0.0350007
-0.0282138
-1.22884
1.22205
0.0219545
-0.0145852
-1.0017
0.994332
0.00793719
-0.00119352
-0.807332
0.800588
-0.00404024
0.00869721
-0.597565
0.592908
-0.0116115
0.0125383
-0.368264
0.367338
-0.0112678
0.00908124
-0.177049
0.179236
-0.00690695
0.0044467
-0.0592984
0.0617586
-0.00253126
0.00104375
-0.00618176
0.00766927
-0.000302283
0.00309836
-0.00279608
-0.0764299
0.0748044
0.00162547
-0.00551325
0.00545448
-0.418555
0.418614
-0.00384017
0.00192509
-0.589362
0.591277
0.00184647
-0.0059711
-0.724765
0.728889
0.0108681
-0.015255
-0.846637
0.851024
0.0201689
-0.0246261
-0.970172
0.974629
0.0298149
-0.0338954
-1.1075
1.11158
0.0379497
-0.0413077
-1.25935
1.2627
0.0443267
-0.0456499
-1.42571
1.42704
0.0457083
-0.0439835
-1.60658
1.60486
0.0407223
-0.0354507
-1.51811
1.51284
0.030073
-0.0236301
-1.21512
1.20868
0.0174377
-0.0105027
-0.98685
0.979915
0.00402448
0.00260109
-0.792384
0.785758
-0.0074318
0.0115021
-0.585422
0.581351
-0.0139498
0.0144186
-0.363525
0.363056
-0.0130859
0.0106677
-0.179381
0.181799
-0.00821106
0.00542023
-0.0635071
0.0662979
-0.00317215
0.00133137
-0.00896671
0.0108075
-0.000394653
0.00259409
-0.00219944
-0.0758447
0.0745657
0.00127897
-0.00445089
0.00452126
-0.422159
0.422089
-0.00311307
0.00128716
-0.596359
0.598185
0.00232835
-0.00600046
-0.733008
0.73668
0.0101887
-0.0144123
-0.855353
0.859577
0.0189384
-0.0235172
-0.978884
0.983462
0.0279594
-0.0318373
-1.11574
1.11962
0.0359955
-0.0390846
-1.26593
1.26902
0.041596
-0.0432975
-1.42825
1.42995
0.0434892
-0.042002
-1.60317
1.60169
0.0388736
-0.0341743
-1.50779
1.50309
0.0291373
-0.0230542
-1.20199
1.19591
0.0172693
-0.0106659
-0.972782
0.966179
0.0045355
0.00164471
-0.778207
0.772026
-0.00659106
0.0103562
-0.574409
0.570644
-0.0124972
0.0133247
-0.35994
0.359112
-0.0124676
0.010326
-0.182
0.184142
-0.00808855
0.00545918
-0.0681464
0.0707758
-0.00328683
0.00143915
-0.0122558
0.0141035
-0.00042193
0.00191109
-0.00148916
-0.0757843
0.0747198
0.00106454
-0.00318632
0.00302552
-0.425377
0.425538
-0.00187963
0.000109268
-0.602777
0.604547
0.0033618
-0.00690739
-0.740652
0.744198
0.0109176
-0.0147269
-0.863575
0.867385
0.0193553
-0.0231324
-0.987453
0.99123
0.0275262
-0.0312081
-1.12364
1.12732
0.0352357
-0.038505
-1.27208
1.27534
0.0412832
-0.0427506
-1.4314
1.43287
0.0432681
-0.0421817
-1.60013
1.59904
0.0397119
-0.0353593
-1.49834
1.49398
0.0307911
-0.0251378
-1.19
1.18435
0.0197726
-0.0135469
-0.959352
0.953126
0.00793777
-0.00198821
-0.764987
0.759038
-0.00281125
0.00669189
-0.56411
0.56023
-0.00890271
0.00989461
-0.356094
0.355102
-0.0097305
0.00833158
-0.183987
0.185386
-0.00669012
0.00461324
-0.0722943
0.0743711
-0.00283476
0.00128341
-0.0153944
0.0169457
-0.000378612
0.00117968
-0.000801068
-0.076005
0.0752647
0.000740287
-0.00203999
0.00143942
-0.428678
0.429279
-0.000464672
-0.00157721
-0.608356
0.610398
0.00462087
-0.00801084
-0.74777
0.75116
0.0118469
-0.015777
-0.871045
0.874975
0.0197785
-0.0237049
-0.995201
0.999127
0.028051
-0.0315185
-1.13142
1.13489
0.0356285
-0.0388456
-1.2784
1.28162
0.0416776
-0.0436717
-1.43474
1.43673
0.0446844
-0.0439022
-1.59801
1.59723
0.0417057
-0.0380868
-1.48985
1.48623
0.0340753
-0.0288281
-1.17865
1.1734
0.0238009
-0.0182822
-0.946887
0.941368
0.012763
-0.00733808
-0.752428
0.747004
0.00263131
0.0016382
-0.554368
0.550098
-0.00399578
0.00542452
-0.351582
0.350153
-0.00582314
0.00537586
-0.184813
0.185261
-0.00445488
0.00318006
-0.0752296
0.0765044
-0.002027
0.000947746
-0.0178465
0.0189257
-0.000281506
0.00054259
-0.000261084
-0.0766494
0.076067
0.000582362
-0.00106647
0.000566962
-0.432204
0.432704
0.0010493
-0.00295758
-0.61414
0.616048
0.00615087
-0.00940832
-0.754359
0.757617
0.0130908
-0.0166131
-0.878561
0.882084
0.0207305
-0.0243373
-1.00305
1.00665
0.0286302
-0.0325307
-1.1388
1.1427
0.0362809
-0.0398277
-1.28487
1.28842
0.0430826
-0.0451769
-1.43862
1.44072
0.0465791
-0.0465972
-1.59667
1.59669
0.0448557
-0.0418717
-1.48251
1.47953
0.0381098
-0.033425
-1.16828
1.16359
0.0289644
-0.0238109
-0.935531
0.930378
0.0188409
-0.0136243
-0.740746
0.735529
0.00900811
-0.00446172
-0.544344
0.539798
0.00145647
0.000559424
-0.346268
0.344252
-0.00171807
0.00210464
-0.184019
0.183633
-0.00197637
0.00152873
-0.0765621
0.0770097
-0.0010402
0.000520502
-0.0193224
0.0198421
-0.000156287
8.48852e-05
7.14018e-05
-0.0775689
0.0771709
0.000397982
-4.84782e-05
-0.000707652
-0.435843
0.436599
0.00222279
-0.00445076
-0.619518
0.621746
0.00755752
-0.0106477
-0.760717
0.763807
0.0144175
-0.0177864
-0.885573
0.888942
0.0217443
-0.0254735
-1.01073
1.01446
0.0296708
-0.0335395
-1.14644
1.15031
0.037515
-0.0410929
-1.29188
1.29545
0.0445429
-0.0473948
-1.4431
1.44595
0.0492552
-0.0495769
-1.59665
1.59697
0.0485301
-0.0458988
-1.47646
1.47383
0.0427697
-0.0387657
-1.15896
1.15496
0.0345308
-0.0297697
-0.925039
0.920278
0.0250893
-0.019881
-0.729634
0.724426
0.015331
-0.0104739
-0.534272
0.529415
0.00694487
-0.00403797
-0.339904
0.336997
0.00224098
-0.00101872
-0.181542
0.180319
0.000300178
6.9306e-05
-0.0762933
0.0759238
-0.00019558
0.000168905
-0.0197217
0.0197484
-6.80494e-05
-0.000135944
0.000203994
-0.0787219
0.0784587
0.000263269