/*--------------------------------*- C++ -*----------------------------------*\
  =========                 |
  \\      /  F ield         | OpenFOAM: The Open Source CFD Toolbox
   \\    /   O peration     | Website:  https://openfoam.org
    \\  /    A nd           | Version:  10
     \\/     M anipulation  |
\*---------------------------------------------------------------------------*/
FoamFile
{
    format      ascii;
    class       volScalarField;
    location    "53";
    object      p;
}
// * * * * * * * * * * * * * * * * * * * * * * * * * * * * * * * * * * * * * //

dimensions      [0 2 -2 0 0 0 0];

internalField   nonuniform List<scalar> 
918
(
0.558754
1.19223
0.00121192
0.558158
-0.00833906
1.15924
-0.50349
0.689721
0.538933
-0.102378
-0.0361123
0.537008
1.01998
0.787391
-1.12262
-0.0043832
0.655068
-0.382032
0.538009
-0.0473531
0.716179
0.54549
0.548518
0.539099
0.605347
0.762244
0.901265
0.021429
0.009915
0.00461441
-0.0138267
-0.0351167
-0.0294541
1.04288
1.09398
1.11667
0.506881
0.334582
-0.369666
-0.439013
-0.432068
-0.543143
0.684924
0.683355
-0.198105
0.692484
0.696336
0.526016
0.5383
0.539206
0.54025
0.539222
0.540608
0.409138
-0.105689
-0.138117
-0.0824285
-0.0736211
0.0618825
-0.0368089
-0.0396775
-0.0344637
-0.0343278
0.456491
0.531766
0.528747
0.542284
0.552107
1.13178
1.10369
1.12984
1.04356
1.06003
0.997947
0.970602
0.806937
0.828738
0.773982
0.760112
-1.55676
-2.51199
-0.530614
-0.278814
-0.0152198
-0.00274574
0.00376816
0.650839
0.651123
0.655386
0.660274
1.08333
-0.380542
-0.477299
0.538147
0.53695
0.545297
0.545995
0.542012
0.541104
-0.0373217
-0.0338973
-0.04352
-0.0452454
-0.0445414
0.705269
0.704629
0.539632
0.536641
0.558971
0.58002
0.572309
0.282239
0.610648
0.624726
0.59285
0.754454
0.748437
0.757142
0.874852
0.839235
0.938156
0.961249
0.0174964
-0.000267887
-0.010774
-0.0169266
-0.0150991
0.502745
0.495345
0.522345
0.510288
0.512773
0.250678
0.116459
0.420094
0.445384
-0.286839
-0.349843
-0.427226
-0.45663
-0.566904
0.612797
0.677185
0.674142
-0.211757
-0.138805
-0.270306
-0.0651933
-0.126808
0.516328
0.523305
0.518322
0.533827
0.528304
0.530263
0.542556
0.539631
0.54119
0.471579
0.595327
0.335395
0.300603
-0.243307
-0.155708
-0.244207
-0.0612779
-0.0570134
0.0756455
0.10094
0.0490214
0.0371814
-0.050417
-0.0431867
-0.0464162
-0.0323596
-0.0314824
0.449331
0.438253
0.469104
0.476599
0.520802
0.522118
0.525918
0.524175
0.921313
0.943699
0.951311
0.925034
-3.50585
-6.29546
0.0473386
0.184338
-0.00510022
-0.00967044
0.00517054
-0.00928216
-0.00235893
-0.00408915
0.00152724
-0.000235442
0.00418042
0.00595094
0.643868
0.644448
1.00379
1.0082
0.981733
0.933683
0.52631
0.528398
0.533919
0.52979
-0.0315268
-0.0321934
-0.0311725
0.698366
0.702825
0.701356
0.244285
0.155606
0.33271
0.361446
0.637171
0.62601
0.63585
0.653656
0.691225
0.968667
0.986929
0.985108
0.993489
1.03747
1.05383
1.01928
0.482366
0.492253
0.487252
0.525491
0.523237
0.524154
0.519864
0.521235
0.519138
-0.034659
-0.416227
0.494297
0.512317
0.495088
0.499386
0.692397
0.769992
0.661367
0.668674
0.666467
0.0032293
-0.05498
0.25657
0.223193
0.389425
0.425544
0.404654
0.892618
0.852904
0.903043
0.876251
0.837416
0.863314
-0.367935
-1.87253
-0.988954
0.535509
0.349061
0.436753
0.0191243
0.00203038
0.00668583
1.00163
1.0763
0.651135
0.823968
0.828232
0.724991
0.754409
0.813527
0.741773
0.774982
0.806776
0.784776
0.56948
0.507703
0.522429
0.83904
0.894701
0.126598
0.066956
0.0228468
0.119441
0.176262
0.150512
1.03746
0.949113
1.01982
0.536398
0.53711
-0.000815118
-0.0140456
0.541318
0.541368
-0.0134301
0.000328456
0.419445
-0.831364
0.108832
0.529863
0.51988
0.536949
-0.0854939
0.361478
-0.0374147
0.056821
0.00168627
0.534056
0.467457
0.427044
0.00478203
-0.0141604
-0.0401653
-0.213453
0.534068
0.532374
0.536415
0.53737
0.538043
-0.0131173
-0.0088965
-0.00645592
-0.0381133
-0.0338329
-0.0438616
0.501061
0.519657
-0.166233
0.536555
0.538684
0.538504
0.531738
0.537379
0.535623
-0.00484929
-0.0124236
-0.0130136
0.225983
0.354895
0.660399
0.748733
0.632026
0.406729
0.170536
0.562743
0.626293
0.531654
0.6857
0.673612
0.688475
0.174072
0.0239447
0.183164
0.124423
0.52772
0.526414
0.518136
0.515135
0.531808
0.529913
0.534479
0.531482
0.534434
0.535825
-0.043373
-0.0672209
-0.0808661
-0.148519
0.31628
0.578095
0.258549
0.289023
0.149331
-0.0319429
-0.0321289
-0.0364203
-0.0436385
0.0107727
-0.01318
0.0519374
0.0526439
0.0254929
-0.00127117
0.00289663
-0.00804567
-0.00483941
0.52706
0.525476
0.531808
0.541094
0.477021
0.48079
0.445992
0.466509
0.45188
0.391173
0.42628
0.401469
-0.00320429
0.008065
-0.00118302
-0.0105039
-0.00601333
-0.0248232
-0.0223443
-0.0180614
-0.0141402
-0.0214613
-0.0350245
-0.0335801
-0.171579
-0.287054
0.990462
0.915454
0.134031
0.523234
0.529674
0.526446
0.531325
0.534453
0.535268
0.532992
0.529546
0.520046
0.52162
0.518365
0.519166
-0.0985909
-0.239571
-0.0673166
-0.139397
0.145412
0.628696
0.366832
0.303738
0.298636
0.525712
0.925563
0.712059
0.687744
0.701072
-0.34012
0.0520594
-0.275028
0.34231
0.167168
0.659768
0.707638
0.728691
0.677585
0.630936
-0.103341
0.556951
-0.0645142
-0.0142446
0.185577
0.0657097
0.685115
0.658221
0.661343
0.67849
0.695098
0.664392
0.648237
0.642982
0.67489
0.678003
0.49387
0.257146
0.208795
0.170286
0.64527
0.529829
0.583598
0.499453
0.522854
0.5255
0.524121
0.505862
0.513399
0.508962
0.515349
0.518784
0.527518
0.527956
0.523273
0.525417
-0.0479068
-0.0512461
-0.0251898
-0.134818
-0.126232
-0.188159
-0.0606181
0.0777234
0.0393178
0.237592
0.343366
0.0547098
-0.0567651
-0.0294239
0.0108679
0.181516
0.207519
0.0806537
0.169089
0.157864
0.141131
0.24256
0.247047
-0.0170296
-0.0213757
-0.0243426
-0.026059
0.0280231
0.0978113
0.107706
0.00572654
-0.000315096
-0.0295326
-0.0293297
-0.0149201
-0.0191275
-0.015522
0.0184885
-0.0432725
-0.0113986
0.00390945
0.00885295
0.00574344
0.000470807
0.519298
0.521661
0.521256
0.528144
0.546677
0.56252
0.519202
0.499069
0.489926
0.492922
0.466026
0.476279
0.471963
0.485674
0.506767
0.516197
0.513494
0.516266
0.498915
0.500584
0.487084
0.490799
0.465796
0.446943
0.435093
-0.0337712
0.00368749
-0.00341765
-0.0311236
-0.00292159
-0.0150251
-0.000577651
0.0185261
0.00232121
-0.000237088
-0.0103416
-0.0168221
-0.0161357
-0.0728444
0.0127009
-0.181283
-0.218901
-0.289576
0.892118
1.01604
0.813357
0.586575
0.604724
0.847885
0.933026
0.548242
0.738488
0.76236
0.587876
0.85363
0.528056
0.527661
0.525263
0.524739
0.525959
-0.00531873
0.0992248
0.100088
0.161281
0.277435
0.389885
0.31848
0.193274
0.324168
0.327138
0.621034
0.633517
0.589082
0.613185
0.61328
0.429172
0.505118
0.557334
0.514661
0.566864
0.587772
0.543438
0.575707
0.525923
0.480477
0.476485
0.427358
0.446983
0.423493
0.40635
0.518009
0.495249
0.505837
0.496052
0.515463
0.540354
0.53649
0.567535
0.57893
0.499526
0.455592
0.464826
0.495231
0.456146
0.471131
0.48733
0.232562
0.133862
0.216279
-0.0716783
0.00272224
-0.011106
-0.0589932
-0.0096425
0.275348
-0.418352
-0.394309
-1.02361
0.502009
0.958722
0.631346
0.604289
0.692041
0.674034
0.678766
0.695483
0.699583
0.634912
0.649903
0.652441
0.615375
0.638238
0.657763
0.654951
0.527004
0.390744
0.387636
0.338359
0.208549
0.24697
0.446983
0.369533
0.294297
0.29525
0.462476
0.349708
0.418595
0.454229
0.385478
0.339544
0.542948
0.608036
0.600125
0.57453
0.490129
0.503616
0.527645
0.562534
0.588383
0.619234
0.514866
0.520748
0.521989
0.51948
0.516736
0.519753
0.519961
0.5225
0.523197
0.52617
0.525201
-0.0382108
-0.0260234
-0.0389888
-0.0470735
-0.0149832
-0.0185608
0.0246614
0.0109005
-0.00477726
0.00121775
-0.0250009
-0.0293567
-0.024369
-0.0153093
0.103498
0.115934
0.0994355
0.0600175
0.251156
0.381523
0.455111
0.330763
0.223512
0.246988
0.267759
-0.00563829
0.0219475
0.00888508
0.0476727
0.0391134
-0.0237574
-0.0280323
-0.0254516
-0.0188014
-0.00927547
-0.0250293
-0.0268921
-0.0193169
-0.0232427
-0.0247883
-0.0271866
0.50131
0.494821
0.496524
0.49038
0.489099
0.503364
0.507585
0.509557
0.515003
0.51728
0.507411
0.513152
0.516933
-0.000241719
-0.0237109
-0.027313
-0.0158065
-0.0189641
-0.0176063
-0.019849
0.123244
0.0516102
0.0561967
0.00984536
-0.120771
-0.0631111
0.491655
0.491396
0.482732
0.721108
0.570555
0.491209
0.58862
0.693939
0.275138
0.473138
0.307265
0.88906
0.784576
0.931002
0.542792
0.244632
0.404966
0.451634
0.262737
0.336248
0.329036
0.216994
0.248369
0.284186
0.384535
0.265846
0.241979
-0.000429498
0.189309
0.302303
0.284026
0.40983
0.471522
0.265465
0.186315
0.140545
0.606922
0.626034
0.641192
0.613429
0.634466
0.578604
0.567921
0.586008
0.59546
0.590379
-0.751293
-0.45784
-1.40387
-0.723184
-0.269949
0.532541
0.500687
0.768032
0.650099
0.697027
0.682255
0.641092
0.609204
0.629372
0.655452
0.351287
0.46268
0.437809
0.442879
0.344415
0.275702
0.574763
0.56982
0.603746
0.627408
0.597917
0.628462
0.512676
0.512367
0.511889
0.508168
0.506431
0.50875
0.0635284
0.0324816
0.0681322
0.0487651
0.0258169
0.0142666
0.00349142
-0.00587683
-0.013128
-0.0137768
-0.000595348
0.00301419
0.170245
0.10918
0.0290248
0.0589801
-0.00121691
-0.0703529
-0.0879477
0.0144162
0.109835
0.10037
0.405129
0.65576
0.475687
0.643048
0.48465
0.540484
0.471668
0.463346
0.489468
0.380811
0.460851
0.241248
-0.265591
-0.174418
0.789726
0.803188
0.583192
0.403927
0.172617
0.354827
0.5475
0.480052
0.516858
0.58579
0.574613
0.0225804
0.0837708
0.360679
0.587988
0.238999
0.229962
0.224015
0.404488
0.324893
)
;

boundaryField
{
    wall-4
    {
        type            zeroGradient;
    }
    velocity-inlet-5
    {
        type            zeroGradient;
    }
    velocity-inlet-6
    {
        type            zeroGradient;
    }
    pressure-outlet-7
    {
        type            fixedValue;
        value           uniform 0;
    }
    wall-8
    {
        type            zeroGradient;
    }
    frontAndBackPlanes
    {
        type            empty;
    }
}


// ************************************************************************* //
