/*--------------------------------*- C++ -*----------------------------------*\
  =========                 |
  \\      /  F ield         | OpenFOAM: The Open Source CFD Toolbox
   \\    /   O peration     | Website:  https://openfoam.org
    \\  /    A nd           | Version:  10
     \\/     M anipulation  |
\*---------------------------------------------------------------------------*/
FoamFile
{
    format      ascii;
    class       volVectorField;
    location    "53";
    object      U;
}
// * * * * * * * * * * * * * * * * * * * * * * * * * * * * * * * * * * * * * //

dimensions      [0 1 -1 0 0 0 0];

internalField   nonuniform List<vector> 
918
(
(0.985162 -0.000504751 0)
(0.00501352 2.96625 0)
(0.00810413 0.879083 0)
(0.979703 0.00214714 0)
(-0.0128176 2.06682 3.13115e-20)
(-0.00704515 2.94879 -2.48184e-18)
(0.812198 1.15316 4.43036e-19)
(0.192198 0.0976407 -1.53371e-20)
(0.999908 -0.000280038 0)
(0.0604616 0.766889 0)
(0.00997684 0.568205 0)
(0.734948 -0.0183605 0)
(0.0110948 2.93037 0)
(0.00274684 2.79473 0)
(-0.017627 3.15157 7.77921e-19)
(-0.0179019 1.91177 3.35509e-21)
(0.283348 0.0366094 1.02348e-18)
(0.185277 1.14477 3.17077e-19)
(0.962745 0.00502004 0)
(0.00591247 0.507973 0)
(0.0137362 0.129543 -7.20412e-19)
(1.00198 -0.00497768 0)
(1.00022 -0.00978817 0)
(0.975732 -0.00643931 0)
(0.588666 -0.0191996 0)
(0.0150923 2.6412 0)
(-0.0148492 2.90999 9.14237e-19)
(0.0115886 0.935259 0)
(-0.0106858 1.17843 0)
(0.012084 0.915577 0)
(-0.0133515 2.60067 0)
(-0.00145477 2.11596 -2.50076e-20)
(-0.00857414 1.89847 0)
(-0.0206128 2.9876 -8.92464e-23)
(-0.0166881 3.0053 1.92889e-18)
(0.00210186 3.00018 0)
(0.871096 -0.00959843 0)
(0.404214 0.936009 1.80786e-19)
(0.797385 1.16757 -5.0356e-19)
(0.94765 1.01444 5.44887e-19)
(0.666598 1.25856 -1.02736e-19)
(0.668076 1.23302 5.91714e-19)
(0.227989 0.160771 1.49626e-20)
(0.205171 0.071971 0)
(1.14884 0.557867 0)
(0.198265 0.151666 6.81943e-20)
(0.16531 0.0955836 -7.0762e-20)
(0.91985 -0.00745066 0)
(1.00027 0.000156728 0)
(0.999909 0.000335711 0)
(1.00363 -0.00776507 0)
(1.00096 -0.000921306 0)
(1.00017 3.40277e-05 0)
(0.0745798 1.82081 -7.82395e-19)
(0.0278122 0.969311 0)
(0.0945225 0.836487 0)
(0.0125753 0.923894 0)
(0.0355231 0.699272 0)
(0.00766804 2.00495 0)
(0.000409039 0.820949 0)
(0.0119169 0.582428 0)
(-0.000950053 0.81399 0)
(0.00779345 0.55503 0)
(0.840469 -0.0158365 0)
(0.842841 0.0307888 0)
(0.767575 -0.00717497 0)
(0.809477 0.0410291 0)
(0.705009 -0.0196009 0)
(0.0146889 3.0004 9.20174e-19)
(0.0115021 3.00801 0)
(0.00611832 3.00277 0)
(0.0135377 2.99734 1.04433e-23)
(0.00797489 2.95848 -1.3676e-18)
(0.0144866 2.98204 0)
(0.0108365 2.90361 0)
(0.0246978 2.93076 2.09608e-24)
(0.00461064 2.82473 0)
(0.0303397 2.91635 0)
(-0.00523407 2.74544 0)
(0.306431 3.54601 0)
(-0.131661 3.62701 0)
(0.138589 3.24171 -7.23933e-19)
(-0.0130983 2.97874 0)
(-0.0159111 1.98007 0)
(-0.00561192 2.16631 -3.30915e-21)
(-0.0116601 1.91836 -3.62931e-21)
(0.377278 0.144724 -3.55041e-19)
(0.306089 0.0229675 -3.44177e-19)
(0.342428 0.154626 -1.06441e-18)
(0.254705 0.0430459 -6.96003e-19)
(0.227034 0.974685 0)
(0.267671 1.29018 -3.67584e-19)
(0.360428 1.22063 6.12237e-19)
(0.987451 0.00856215 0)
(0.94189 0.00583237 0)
(1.0003 0.000579356 0)
(1.00286 0.00930741 0)
(1.00302 0.00846683 -2.7528e-18)
(0.99191 0.00969736 2.07882e-18)
(-0.00264714 0.805585 0)
(0.00704703 0.523936 0)
(-0.0367712 1.00392 0)
(-0.0217909 0.841045 0)
(0.00306861 0.503355 0)
(0.0291006 0.135855 2.22484e-19)
(0.100463 0.108213 0)
(0.993547 -0.00837607 0)
(0.954445 -0.00652523 0)
(0.753482 0.0472046 0)
(0.688487 0.0515877 0)
(0.664117 -0.0280051 0)
(0.967402 -0.00790696 0)
(0.59965 0.0708954 0)
(0.444082 -0.0126344 1.54237e-18)
(-0.0372259 2.86246 6.78592e-19)
(0.0415585 2.90971 0)
(0.0535901 2.88585 0)
(-0.00420372 2.7001 0)
(-0.0133733 2.98515 8.66077e-19)
(-0.017894 2.89505 0)
(-0.0153984 2.98809 -2.68462e-18)
(-0.0133371 2.92518 9.18797e-19)
(-0.015712 1.3455 0)
(0.0056536 1.37342 0)
(-0.0065324 2.13208 3.55179e-22)
(-0.00556326 2.09545 0)
(-0.0200588 1.90382 0)
(0.938362 -0.00748636 0)
(0.857071 -0.00991358 0)
(0.863328 0.0059265 0)
(0.949439 -0.00789139 0)
(0.883898 -0.00816402 0)
(0.51591 1.12919 -2.28322e-19)
(0.565036 1.18022 0)
(0.368745 0.881046 3.37681e-20)
(0.311108 0.739924 0)
(0.909099 1.05168 -1.50078e-19)
(1.026 0.862486 3.02739e-19)
(0.352413 1.34544 0)
(0.520441 1.31355 0)
(0.544299 1.25411 0)
(0.119536 0.185234 -3.0253e-19)
(0.255823 0.153628 0)
(0.227383 0.0747088 1.95918e-19)
(0.99709 0.916892 0)
(1.07011 0.771891 0)
(1.09519 0.713505 -2.37386e-19)
(1.12826 0.617214 0)
(1.17891 0.402175 5.64209e-20)
(0.957664 -0.00875398 0)
(0.962461 -0.0100658 0)
(0.901657 -0.00797394 0)
(0.984191 -0.00915949 0)
(0.974685 -0.00935575 0)
(0.937105 -0.00636749 0)
(1.00019 0.00233761 0)
(1.0009 0.00140933 0)
(0.99991 0.000853584 0)
(0.0350884 2.07193 4.33227e-19)
(0.119548 1.76389 0)
(0.0173522 2.18633 6.68189e-19)
(0.0471333 1.87436 -5.59428e-19)
(0.100561 1.15371 -2.59661e-19)
(0.0434954 1.04302 0)
(0.140313 0.990352 0)
(0.00721883 0.882122 0)
(0.0167196 0.647807 0)
(-0.00135904 2.23759 -9.42053e-22)
(0.0167785 2.00952 0)
(-0.00199339 2.23876 -3.75461e-20)
(0.00937637 2.01337 6.19171e-20)
(0.00331208 0.856359 0)
(0.000997827 0.837153 0)
(0.0105617 0.607465 0)
(-0.00465534 0.813896 0)
(0.00793637 0.538808 0)
(0.937354 0.0095477 0)
(0.848677 -0.0149213 0)
(0.926823 0.000216257 0)
(0.841704 -0.0129603 0)
(0.812087 -0.000587996 0)
(0.900041 0.0211114 0)
(0.874951 0.0258016 0)
(0.788784 -0.00335536 0)
(0.00578939 3.06495 -8.5868e-21)
(0.0166658 3.05768 0)
(0.0146953 2.96904 0)
(0.00871175 2.87623 0)
(0.922557 3.96001 0)
(1.23647 3.29326 9.29071e-19)
(0.069596 3.07088 0)
(-0.028868 2.90302 0)
(-0.00276273 1.39448 0)
(-0.0198034 1.68953 0)
(-0.00741701 1.52752 0)
(-0.0252116 2.55941 -9.99842e-21)
(-0.00763536 2.24354 0)
(-0.0142235 2.39427 0)
(0.00177491 1.94053 9.94039e-22)
(-0.00296932 2.23537 6.41938e-22)
(-0.00476496 2.19829 3.57286e-21)
(-0.00561599 1.92821 0)
(0.422373 0.127599 5.40395e-19)
(0.353148 0.0126752 -5.30376e-19)
(0.259502 1.58374 0)
(0.275061 0.748234 -3.15516e-19)
(0.176991 1.67014 -1.05228e-18)
(0.226387 1.21328 1.05467e-18)
(0.902104 0.00641215 0)
(0.96744 0.0110958 0)
(0.97457 0.0107949 0)
(0.923356 0.00642896 0)
(-0.00177192 0.812336 0)
(0.00215596 0.807655 0)
(-0.00157885 0.530166 0)
(0.170277 0.141903 6.29877e-19)
(0.141621 0.12937 -7.43141e-19)
(0.135973 0.0986261 0)
(1.09385 0.0848589 2.75598e-20)
(1.07603 0.0386662 0)
(1.00971 0.0393219 0)
(0.904603 -0.0061435 0)
(0.468661 0.107372 0)
(0.523341 0.0879361 -2.46488e-18)
(0.39603 0.00776529 9.22008e-19)
(0.00882291 2.98131 7.28861e-19)
(-0.0322441 2.86586 4.81203e-20)
(0.00358905 3.05028 -1.81745e-20)
(0.0201897 3.04333 6.45942e-19)
(-0.0149999 2.99657 3.01675e-20)
(-0.0129321 2.94945 -1.21386e-22)
(-0.0172627 3.01195 -5.58085e-19)
(0.0148532 3.02385 4.04135e-19)
(0.00737694 3.03684 -6.40079e-19)
(0.933481 -0.00138196 0)
(0.939126 -0.0033453 0)
(0.845395 -0.0094607 0)
(0.956605 0.0118478 0)
(0.942804 0.0131417 0)
(0.881657 0.00594526 0)
(0.917282 0.017054 0)
(0.926101 0.0149314 0)
(0.83856 0.00271504 0)
(0.718476 1.40667 4.07537e-20)
(0.751758 1.51542 0)
(0.184779 0.320466 7.11571e-20)
(0.225391 0.667021 5.73923e-19)
(0.262349 0.721843 -3.34579e-19)
(0.26521 0.528426 6.65179e-19)
(0.342793 0.806146 1.59129e-18)
(0.138517 0.228459 3.74815e-19)
(0.310268 0.158813 7.37915e-19)
(0.282865 0.158192 1.92223e-19)
(0.238027 0.0591082 3.6528e-19)
(1.16819 0.460042 5.38147e-20)
(1.1851 0.254188 4.91695e-20)
(0.00963027 2.23394 2.5898e-19)
(0.0411886 1.94108 0)
(0.968479 0.0289394 0)
(0.941731 0.0136565 0)
(0.867103 -0.0181501 0)
(0.0112805 3.07422 0)
(0.0197238 2.94418 1.18418e-18)
(0.0164222 2.95629 0)
(0.00641669 2.85052 -1.17446e-18)
(0.00640231 3.09176 2.87419e-19)
(0.00708931 3.08245 0)
(0.784666 1.81725 -1.59734e-19)
(1.24435 2.49354 4.06814e-19)
(0.766663 1.95665 -1.23443e-18)
(0.0196727 2.98071 -6.28189e-19)
(0.0353202 2.99965 0)
(-0.0345749 2.87675 0)
(-0.00358665 2.21821 -1.30928e-20)
(-0.00250924 2.23981 -5.34789e-21)
(0.00366509 1.97492 -7.37293e-21)
(0.277329 1.39188 1.02596e-18)
(0.234782 0.539756 -7.03677e-19)
(0.0635203 1.99676 7.68075e-19)
(0.135581 1.88368 -9.14957e-19)
(0.180228 1.50567 9.3921e-20)
(0.00543657 3.11797 -1.60427e-18)
(0.0141298 3.11847 1.73279e-18)
(-0.00928359 2.9805 7.99167e-19)
(-0.00374244 2.97717 -7.56882e-19)
(-0.0214371 2.881 -8.13935e-19)
(0.00852364 3.09865 -2.13511e-18)
(0.00176048 3.10667 2.1191e-18)
(0.279959 0.69368 0)
(0.246703 0.683134 -1.18956e-18)
(0.0963111 0.225772 5.28122e-19)
(0.355246 0.932158 1.11141e-18)
(0.1936 0.273537 -1.71358e-18)
(1.17849 0.173111 6.57354e-20)
(1.18561 0.308575 0)
(1.1668 0.121345 -1.01388e-20)
(0.00102301 2.25013 -1.58309e-21)
(0.00429549 2.24279 0)
(0.025494 1.97631 0)
(0.340092 1.30091 -3.68821e-19)
(0.372668 1.14349 -8.00052e-19)
(0.207916 0.373656 1.42565e-18)
(1.00588 -0.010842 0)
(1.00767 -0.00764199 5.07907e-19)
(-0.013664 1.32511 0)
(-0.0289278 1.32066 0)
(1.00222 0.00350638 1.80667e-21)
(1.00366 0.00945797 1.03688e-18)
(-0.0163408 2.54261 1.26722e-20)
(-0.0213412 2.58541 0)
(0.0347921 3.17741 4.1616e-19)
(0.392387 3.4866 0)
(1.16837 0.658131 -6.15551e-20)
(1.01288 0.0131121 -2.1435e-21)
(1.0213 -0.0103351 0)
(1.0017 0.000119093 7.4648e-23)
(0.10302 1.36058 0)
(0.143983 2.57528 0)
(0.0247287 1.30508 0)
(-0.00133528 2.6248 3.59272e-20)
(-0.0222611 2.5806 1.13744e-20)
(0.999841 0.0293767 2.48468e-21)
(1.06253 0.00424955 0)
(1.09637 0.0242731 0)
(-0.0222542 1.73257 0)
(-0.0165235 2.5826 0)
(-0.000126557 1.30781 0)
(0.302356 1.47469 -1.68561e-19)
(1.01129 -0.00963259 0)
(1.0094 -0.0149199 0)
(1.00236 0.000737181 6.48963e-19)
(1.00547 -0.00481303 -7.62878e-19)
(1.00118 -0.000980672 0)
(-0.00837669 1.45941 0)
(-0.00182573 1.37224 0)
(-0.000184393 1.41756 0)
(-0.00448502 1.29607 0)
(-0.0100486 1.28271 0)
(-0.000368227 1.26442 0)
(1.03485 -0.0061904 0)
(1.02003 0.0156302 -8.68593e-22)
(0.819076 1.26629 2.55743e-19)
(1.00224 0.000301038 -6.46874e-19)
(1.00407 0.0052506 7.56917e-19)
(1.00118 0.00206748 0)
(1.01276 0.0103311 6.43427e-19)
(1.008 0.00830205 -7.79578e-19)
(1.00857 0.014691 0)
(-0.0211461 2.61127 0)
(-0.0227934 2.59199 -1.43786e-20)
(-0.0205263 2.60557 1.01553e-20)
(1.2335 0.264416 5.93432e-19)
(1.15985 0.0856575 0)
(0.0412201 3.07791 -9.26082e-19)
(0.0647165 2.85571 -6.74229e-20)
(0.139797 3.19221 1.41918e-18)
(0.135143 3.22026 -2.02455e-19)
(0.134136 3.23172 0)
(0.01896 3.13724 2.39268e-19)
(0.0748455 3.16018 9.13379e-19)
(0.0677326 3.18535 -4.50997e-19)
(0.021668 3.12993 0)
(0.608814 0.27703 0)
(0.53268 0.312837 0)
(1.13892 0.694471 1.43425e-19)
(1.13399 0.815373 -1.31147e-19)
(1.19561 0.580657 0)
(1.22409 0.515279 0)
(1.01609 0.0133408 -1.1994e-18)
(1.01499 0.0142672 1.50552e-18)
(1.0253 -0.00986189 0)
(1.02337 -0.0118924 0)
(1.00642 0.00259478 0)
(1.01042 0.00371495 0)
(1.00459 0.00185116 0)
(1.0098 0.00621345 0)
(1.00783 0.00595914 0)
(1.00451 0.00469015 0)
(0.0919896 1.3581 0)
(0.086135 1.32672 0)
(0.123549 1.39528 0)
(0.138549 1.40334 0)
(0.145118 2.60023 0)
(0.185469 2.66935 -4.27699e-19)
(0.100686 2.65609 0)
(0.0845276 2.65833 2.01995e-19)
(0.0376121 2.67994 -1.58138e-19)
(0.0187782 1.31797 0)
(0.0192975 1.24419 0)
(0.018952 1.32634 0)
(0.035054 1.26978 0)
(0.00118801 1.98301 -4.81636e-21)
(-0.0210354 2.6086 -9.41746e-21)
(-0.00981716 2.6663 2.33994e-20)
(-0.019248 2.68427 0)
(-0.0233917 2.61409 -2.42543e-20)
(-0.0234211 2.60888 1.13556e-21)
(0.0100438 1.98161 6.14022e-21)
(-0.00837848 2.39688 1.26352e-20)
(-0.0145823 2.41897 -2.65376e-20)
(1.01013 0.0375027 1.22478e-18)
(1.0054 0.0160799 -1.5131e-18)
(1.00128 0.0450052 -1.22659e-18)
(0.977259 0.0228084 1.56444e-18)
(1.06377 0.00805905 0)
(1.04902 -0.00843968 0)
(1.09355 0.0342744 0)
(1.07374 0.0124785 0)
(1.07152 0.000213357 0)
(1.13936 0.0819772 0)
(1.11071 0.0437822 0)
(1.11411 0.0317662 0)
(-0.0203045 2.43179 5.20905e-22)
(-0.00838862 2.00553 0)
(-0.00959304 2.21262 0)
(-0.0183511 2.6033 -6.47634e-21)
(-0.0162029 2.61284 1.46839e-23)
(0.00573362 1.5685 -2.7057e-20)
(-0.00116117 1.49795 2.75564e-20)
(-0.0111667 1.38779 0)
(-0.0140012 1.39485 0)
(-0.017636 1.38983 0)
(-0.00141272 1.30871 0)
(0.00967331 1.23515 0)
(0.381983 1.4912 2.74096e-19)
(0.424123 1.49212 1.44796e-19)
(0.598146 2.44983 -2.40221e-19)
(0.400141 2.54616 7.0778e-19)
(0.35168 2.06165 7.11357e-20)
(1.02102 -0.00815663 0)
(1.01548 -0.00976893 0)
(1.01491 -0.0155094 0)
(1.00741 -0.00111844 0)
(1.00493 -0.000927651 0)
(1.00777 -0.00471564 0)
(1.00926 -0.00365605 0)
(1.0142 -0.0044234 0)
(1.02077 0.0162204 1.17463e-18)
(1.01782 0.0156127 -1.50352e-18)
(1.02113 0.0182032 -1.18357e-18)
(1.01889 0.016761 1.48009e-18)
(0.781707 1.31762 0)
(0.718951 1.36695 2.42636e-19)
(0.893139 1.21843 9.32071e-20)
(0.939362 1.16322 -1.24042e-19)
(1.15648 2.6032 2.79499e-19)
(0.781396 0.11864 6.00907e-19)
(1.16196 0.107177 0)
(1.20962 0.191888 -4.77153e-19)
(1.19633 0.153705 -2.02537e-20)
(1.00553 0.154456 0)
(0.131535 2.95905 5.41118e-19)
(0.108318 2.86515 -1.1764e-18)
(0.0175301 2.37558 7.88617e-19)
(0.0911055 -0.0993326 -3.45145e-19)
(0.337472 3.41635 -2.12628e-19)
(0.19263 3.31 0)
(0.235919 3.35113 2.76916e-19)
(0.241675 3.03199 -1.80052e-18)
(0.335462 3.19063 0)
(0.00578089 3.12101 4.66707e-20)
(0.0166543 3.12954 -5.48126e-19)
(0.014502 3.12566 8.06733e-19)
(0.0345126 3.13984 0)
(0.0327674 3.15031 0)
(1.21306 2.60133 0)
(0.543016 0.814551 -5.30518e-19)
(1.06135 0.988201 -2.87413e-21)
(0.995885 1.07319 0)
(0.849271 0.970721 -1.11977e-19)
(1.08531 0.890151 2.82569e-20)
(0.339757 0.357462 -8.89639e-19)
(0.66929 0.314948 -1.88019e-20)
(0.605064 0.218977 4.18029e-19)
(0.558258 0.348261 3.0821e-20)
(0.458455 0.302149 -1.23909e-18)
(0.633697 0.321814 0)
(0.700873 0.419792 7.10968e-19)
(0.709287 0.421323 0)
(0.593579 0.343073 0)
(0.540177 0.255446 0)
(0.812195 0.618036 4.19194e-19)
(1.2341 0.286501 -5.00717e-19)
(1.23384 0.424827 0)
(1.24217 0.365381 0)
(0.71534 0.191226 6.23307e-19)
(0.860642 0.545995 -3.85364e-19)
(0.759352 0.516242 6.83813e-19)
(0.955749 0.437285 -7.51105e-19)
(1.01942 0.0148583 8.06282e-19)
(1.01769 0.0142934 -8.11348e-19)
(1.01592 0.0154459 0)
(1.03631 -0.00573046 0)
(1.02979 -0.00845506 -7.60022e-19)
(1.02781 -0.0120314 7.52483e-19)
(1.02492 0.0102494 0)
(1.02347 0.0139457 0)
(1.01142 0.00411395 0)
(1.01423 0.00909075 0)
(1.01513 0.00408152 0)
(1.01425 0.00284465 0)
(0.0620658 1.34232 0)
(0.0670073 1.29669 0)
(0.14309 1.37346 7.16556e-21)
(0.274095 1.47159 8.86046e-20)
(0.166654 1.44248 1.85445e-19)
(0.199009 1.44879 -3.02938e-19)
(0.164941 1.39869 0)
(0.132815 1.59762 -7.36602e-20)
(0.116027 1.57277 0)
(0.349316 2.01329 -1.03424e-19)
(0.34434 2.34662 6.1806e-19)
(0.189874 1.45713 6.42159e-20)
(0.261893 1.38888 2.3103e-20)
(0.198136 1.37779 -1.87221e-20)
(0.274415 1.33314 -1.02129e-19)
(0.241684 1.58054 0)
(0.264894 1.61928 1.11569e-19)
(0.0299238 2.26533 -3.14665e-20)
(0.0425169 2.66982 0)
(0.0653124 2.4023 1.38775e-19)
(0.0616516 2.42305 0)
(0.0687843 2.67201 -2.238e-19)
(0.0482188 2.69974 0)
(0.0260101 1.42145 2.20085e-20)
(0.0329537 1.47281 0)
(0.028495 1.39001 0)
(0.0236092 1.39392 -2.48328e-20)
(-0.000865344 2.65274 -1.72059e-20)
(0.0284149 2.69853 1.78599e-19)
(0.00918886 2.72261 1.26227e-21)
(0.001547 1.83182 5.54986e-21)
(-0.00433993 1.68398 6.37099e-22)
(0.0129457 1.29757 0)
(0.0179029 1.22178 0)
(0.0458779 1.58081 -1.76229e-20)
(0.0288093 1.45556 -2.29215e-20)
(0.0355659 1.51993 2.89652e-20)
(0.0385716 1.60491 0)
(-0.0270109 2.26714 7.43633e-20)
(-0.0278578 2.54873 -3.04529e-20)
(-0.0154763 2.44476 1.30244e-21)
(-0.00412846 1.84852 -6.72541e-21)
(-0.0250615 2.49833 -1.61663e-21)
(-0.0206086 2.44199 1.51918e-20)
(1.019 0.0210823 -8.02855e-19)
(1.01489 0.0270157 8.06591e-19)
(1.01396 0.0164473 0)
(1.01212 0.0717549 1.13172e-18)
(0.989359 0.0602834 -1.27545e-18)
(0.946378 0.0463397 1.427e-18)
(1.01421 0.110686 -1.50794e-19)
(1.04266 -0.00574493 0)
(1.05095 -0.00144556 7.25008e-19)
(1.03896 -0.00987184 -7.26451e-19)
(1.07108 0.0420859 -4.31422e-20)
(1.06441 0.0235836 3.71943e-19)
(1.0632 0.056042 0)
(1.05336 0.0495322 -1.33762e-19)
(1.0325 0.0426281 0)
(1.02552 0.0388495 0)
(1.02782 0.0132651 0)
(1.02399 0.0159744 0)
(1.03968 0.0320788 2.75482e-19)
(1.03891 0.0270473 -6.08936e-19)
(1.05101 0.0339403 -2.9195e-19)
(1.0482 0.0339271 -3.21637e-19)
(1.07106 0.0644866 6.27518e-19)
(1.09611 0.0520846 0)
(1.10475 0.0956706 0)
(-0.0220366 2.27224 4.41194e-20)
(-0.019339 2.01374 -6.95598e-23)
(-0.0159453 2.02006 0)
(-0.0239319 2.44378 -4.39215e-20)
(-0.0181291 2.39999 -4.18745e-22)
(-0.0290026 2.47286 4.21532e-21)
(-0.0201989 2.62139 -1.59528e-21)
(-0.0214953 2.56269 -7.18714e-22)
(-0.0207187 2.51393 2.9255e-22)
(-0.0145249 2.61543 4.67715e-21)
(-0.0199869 2.61731 -4.14559e-21)
(-0.00331877 1.48805 -3.10125e-22)
(0.00659743 1.61703 -2.25315e-20)
(0.366433 1.44186 -1.15751e-19)
(0.367768 1.37883 3.46825e-20)
(0.658682 1.41732 -2.34898e-19)
(0.524759 1.48461 -1.42344e-19)
(0.583819 1.44982 0)
(0.593859 2.42667 2.0719e-19)
(0.661746 2.42096 3.38062e-19)
(0.411514 2.517 8.69933e-20)
(0.402988 2.54189 -6.13044e-19)
(0.51124 2.48403 6.13113e-19)
(0.55365 2.46362 0)
(0.489139 2.52079 -5.60757e-19)
(0.248459 2.59348 1.15269e-18)
(0.354811 2.56604 -7.85208e-20)
(0.284362 2.65515 -1.59461e-18)
(0.94745 2.37848 7.285e-19)
(0.838204 2.38402 0)
(1.01105 0.000474429 2.63316e-20)
(1.01531 -0.00542819 -2.13633e-20)
(1.01764 -0.00355245 -3.90204e-19)
(1.015 -0.000904215 3.92264e-19)
(1.01243 0.00118296 0)
(0.645501 1.28689 0)
(0.669562 1.18323 0)
(0.781881 1.09766 0)
(0.662067 1.14547 0)
(1.18616 2.61695 5.97341e-20)
(1.07478 2.36411 0)
(0.836954 2.17198 3.83221e-21)
(0.82568 2.43788 0)
(0.923073 2.5302 -4.21944e-19)
(0.95853 2.48609 2.8072e-19)
(0.805967 0.176993 0)
(0.758263 0.15199 1.63038e-19)
(0.914681 0.148935 9.49454e-19)
(0.829278 0.150777 -3.55864e-19)
(0.789098 0.0858343 -1.09646e-18)
(1.0803 0.237162 -9.00343e-19)
(0.997701 0.296599 -1.63149e-20)
(0.929261 0.299425 8.67768e-19)
(1.00794 0.228558 7.25397e-19)
(0.950306 0.194085 -1.25776e-18)
(0.914346 0.198283 1.57206e-19)
(0.954036 0.261113 -3.34132e-19)
(0.929364 0.223474 0)
(0.99346 0.190324 6.20142e-19)
(1.04706 0.190964 0)
(1.04416 0.218329 0)
(1.10601 0.119093 2.91724e-19)
(1.07108 0.178017 -1.46989e-20)
(1.07445 0.237801 -1.58644e-19)
(1.1013 0.204208 0)
(1.02299 0.0467252 6.21589e-19)
(1.03982 0.0594767 7.74813e-19)
(1.03379 0.045003 -6.16452e-19)
(1.04261 0.0664015 -5.193e-19)
(1.01926 0.0741176 -7.9591e-19)
(0.987651 0.16116 0)
(0.997447 0.106181 0)
(0.964744 0.0684234 -5.07812e-19)
(0.909548 0.0931403 1.99547e-19)
(1.03939 0.105878 7.17641e-19)
(1.06896 0.122323 -8.41237e-19)
(1.07471 0.155412 7.50922e-19)
(1.02938 0.145967 0)
(1.07445 0.110529 0)
(1.05461 0.0911924 -3.44294e-19)
(1.04361 0.0961304 -5.86959e-19)
(0.581647 1.06573 1.40097e-19)
(0.608135 1.39267 -4.15841e-20)
(1.15604 2.73269 -2.26478e-19)
(1.22202 3.07467 1.43948e-21)
(1.24811 2.7158 -1.24064e-19)
(1.2771 2.69931 -3.2653e-20)
(1.205 2.34005 -1.0792e-20)
(1.20957 2.97862 -9.20251e-20)
(1.22948 2.94397 2.32569e-19)
(1.21246 3.22786 -1.44047e-19)
(1.37258 2.95927 1.99105e-19)
(1.36194 2.8775 0)
(0.555057 0.822151 -5.01524e-20)
(0.121592 1.237 5.72813e-19)
(0.545013 0.394986 5.77708e-19)
(0.384314 0.142446 6.33199e-19)
(0.49588 0.34046 7.00502e-19)
(0.541613 0.447457 -1.12834e-18)
(0.544067 0.446117 9.22517e-19)
(0.478524 0.351772 -3.51237e-19)
(0.375857 0.282785 7.97462e-19)
(0.726831 0.261884 -3.59033e-19)
(0.688209 0.284639 0)
(0.651457 0.204451 7.85261e-21)
(0.736517 0.506706 3.74107e-19)
(0.709281 0.476326 -1.36285e-18)
(0.614673 0.451885 1.31085e-20)
(0.619017 0.441941 0)
(0.683977 0.71935 3.99741e-19)
(0.845495 0.775493 4.01481e-19)
(0.770339 0.857494 -4.69626e-19)
(0.893096 0.813504 -1.5808e-19)
(0.924909 0.857791 -3.85113e-20)
(0.932071 0.857893 3.94342e-20)
(0.856398 0.653706 -6.9459e-19)
(0.93874 0.708447 1.46834e-19)
(0.999012 0.724638 0)
(0.989649 0.701241 -1.99358e-19)
(1.02702 0.33639 2.16102e-19)
(1.14475 0.301601 2.93941e-19)
(1.0675 0.274555 3.68235e-19)
(1.01429 0.368859 -4.36836e-19)
(1.06247 0.434016 0)
(1.11887 0.416731 0)
(0.921573 0.371013 3.58336e-21)
(0.842084 0.303115 0)
(0.88348 0.301479 4.08913e-19)
(0.911273 0.306659 -6.55509e-21)
(0.949303 0.440165 2.09287e-18)
(0.907934 0.497167 5.40035e-19)
(0.912764 0.46309 -5.74946e-19)
(0.833051 0.447598 6.16031e-19)
(0.815621 0.440803 3.69929e-19)
(0.784194 0.422921 -3.63755e-19)
(1.02734 -0.000323951 6.4998e-19)
(1.02 -8.37931e-06 0)
(1.01852 0.000917435 4.23774e-19)
(1.02168 -0.00165029 -9.59943e-19)
(1.02233 0.00438873 4.66338e-19)
(1.02035 0.0113622 -9.76618e-19)
(1.02128 0.01074 0)
(1.02055 0.010974 -2.03531e-19)
(1.01596 0.00776095 5.10607e-19)
(1.01665 0.0105338 -2.54765e-19)
(1.01735 0.0098825 1.87633e-19)
(0.0287619 1.31867 0)
(0.0343395 1.36276 0)
(0.0433257 1.31965 0)
(0.0479191 1.27566 0)
(0.0707639 1.38595 -3.99405e-20)
(0.0776901 1.35547 1.90943e-20)
(0.112714 1.52562 -1.47739e-20)
(0.0945583 1.37049 -4.73804e-21)
(0.0336234 1.46015 3.3978e-21)
(0.0376688 1.45301 -2.44881e-21)
(0.0624773 1.37049 -8.36298e-21)
(0.0546658 1.37181 3.62418e-20)
(0.0486552 1.34733 5.2185e-21)
(0.0392754 1.37065 1.85848e-21)
(0.106805 2.37245 -1.53197e-19)
(0.0956312 2.41965 0)
(0.170566 2.04715 1.08263e-19)
(0.11086 1.70954 4.01752e-20)
(0.232295 2.0424 -8.97218e-20)
(0.202794 2.43466 0)
(0.26419 2.38481 -6.03543e-19)
(0.303883 2.3825 4.27147e-19)
(0.230229 2.00317 -2.48912e-19)
(0.154405 2.16285 1.68855e-19)
(0.142383 2.27208 0)
(0.0165661 1.87821 -4.31448e-21)
(-0.00188372 2.39632 -4.91809e-20)
(0.0041131 2.1512 0)
(0.0100314 2.45858 -1.34921e-20)
(0.0265005 2.30297 1.37826e-20)
(0.0157019 1.4035 -4.70197e-21)
(0.013754 1.38876 8.094e-20)
(0.0134986 1.3936 -2.75585e-20)
(0.0202505 1.39419 -2.15669e-20)
(0.0248632 1.42527 0)
(0.00913282 1.37472 0)
(0.00114178 1.29082 -2.91023e-20)
(0.0107865 1.36669 8.01172e-21)
(0.0106799 1.36684 0)
(0.00860613 1.28484 -2.15324e-20)
(0.0150682 1.21146 4.41336e-20)
(1.04059 0.0117199 0)
(1.04672 0.00798848 -6.80252e-20)
(1.03854 0.0218031 -4.90753e-19)
(1.04823 0.0206105 0)
(1.05212 0.0204563 0)
(1.03626 0.0118899 -6.74157e-21)
(1.03096 0.0117308 7.88688e-19)
(1.0317 0.0166264 9.56147e-19)
(1.02558 0.020505 0)
(1.02254 0.0208808 0)
(1.03505 0.02546 4.89552e-19)
(1.02579 0.0267777 0)
(1.02386 0.0268459 0)
(-0.0173959 2.01969 0)
(0.00258851 1.64725 -3.86324e-21)
(-0.00356589 1.755 -2.53785e-20)
(0.00436841 1.37853 0)
(-0.00566441 1.54695 -1.08586e-20)
(-0.0055913 1.45627 7.47519e-21)
(0.000694973 1.39141 0)
(0.392744 1.65917 0)
(0.372 1.3076 -6.82086e-20)
(0.304218 1.3459 0)
(0.426438 1.3084 4.71862e-21)
(0.472596 1.46392 0)
(0.453923 1.41133 2.52567e-20)
(1.03685 2.67999 -1.54153e-20)
(0.968279 2.40741 -9.15731e-19)
(0.920939 2.19418 1.03219e-18)
(0.852066 2.37585 2.42329e-19)
(0.848429 2.49079 0)
(0.918398 2.48654 0)
(0.930761 2.3722 0)
(0.909565 2.36114 -9.44913e-19)
(0.689095 2.45642 -3.93906e-19)
(0.801577 2.44593 -9.75858e-20)
(0.812217 2.41985 7.42096e-20)
(0.696104 2.39417 0)
(0.800957 2.38931 0)
(0.759304 2.40265 -3.68633e-19)
(0.768898 2.48124 0)
(0.628032 1.09521 0)
(0.482789 0.909376 -5.06628e-19)
(0.562176 0.947879 -3.21247e-20)
(0.522415 1.0436 0)
(0.522546 0.988743 7.59839e-19)
(0.791832 0.880672 -1.31717e-19)
(0.804259 1.0171 0)
(0.778989 0.983178 1.88811e-19)
(0.662383 1.03215 0)
(0.663987 0.935847 0)
(1.16485 2.75529 -2.30445e-19)
(1.14236 2.81858 -9.73963e-20)
(0.931104 2.33513 1.00983e-19)
(0.898982 2.31474 -8.34989e-20)
(1.13032 2.72854 0)
(1.08406 2.69819 1.00473e-19)
(1.09041 2.48233 -3.15533e-19)
(0.985218 2.23446 -3.05945e-20)
(0.497485 1.3424 0)
(0.512139 1.06973 -1.23529e-19)
(0.576771 1.17041 0)
(0.856474 0.242267 0)
(0.773761 0.192157 0)
(0.702716 0.155682 0)
(0.84958 0.243021 -6.43626e-19)
(0.744596 0.232859 3.74388e-19)
(0.926114 0.0800375 -4.12005e-19)
(0.938819 0.126351 0)
(0.920508 0.137708 1.77337e-19)
(0.856907 0.113673 7.11102e-19)
(0.822692 0.0723827 -4.4512e-19)
(1.15823 3.35304 -7.21177e-19)
(1.20687 3.27241 0)
(1.15593 3.38172 -1.49057e-18)
(0.643934 3.5429 1.26548e-18)
(0.867001 3.1113 7.36166e-20)
(0.520071 0.818671 6.04513e-19)
(0.428083 0.815974 0)
(0.319857 0.429941 -1.5045e-19)
(0.461589 0.659024 8.60983e-19)
(0.547723 0.397245 -2.01896e-19)
(0.512173 0.476814 2.34613e-19)
(0.667958 0.516286 5.04558e-19)
(0.703182 0.549748 0)
(0.653703 0.586657 0)
(0.614565 0.533105 0)
(1.00037 0.611203 9.2848e-20)
(0.913169 0.547085 -5.25491e-19)
(0.939026 0.580083 3.97278e-19)
(0.971473 0.518453 -4.06325e-19)
(1.07957 0.490391 0)
(1.08785 0.580741 -9.99026e-20)
(0.855305 0.400795 -8.44542e-19)
(0.857209 0.389312 -1.04467e-18)
(0.795294 0.387168 6.58583e-19)
(0.799961 0.360517 -6.72e-19)
(0.84611 0.322404 -5.2814e-19)
(0.795134 0.321812 6.47042e-19)
(1.02666 0.00589823 -4.96082e-19)
(1.02638 0.00611767 1.00922e-18)
(1.02936 8.01449e-05 6.29961e-19)
(1.03356 0.000988139 -7.58733e-19)
(1.03369 0.00899256 0)
(1.03004 0.00966684 -1.23492e-18)
(0.0623351 1.64307 2.14625e-20)
(0.0453016 1.58073 0)
(0.0858555 1.69397 1.27538e-19)
(0.0962174 1.67606 -1.12029e-19)
(0.0884211 1.53656 2.77001e-20)
(0.0868002 1.52602 0)
(0.0100469 1.67948 0)
(-0.00348499 1.48388 3.06976e-21)
(-0.00288542 1.43053 -2.76114e-21)
(-0.00627504 1.54316 5.30749e-21)
(0.0016469 1.8806 4.23425e-21)
(-0.0100164 1.93455 1.30876e-21)
(0.499836 1.36657 -2.74728e-19)
(0.49339 1.36934 3.01749e-19)
(0.453728 1.303 -3.02716e-20)
(0.439312 1.29269 7.77682e-21)
(0.637648 1.3045 0)
(0.55265 1.39452 1.03755e-19)
(0.568487 1.3994 -1.01046e-19)
(0.466525 1.2907 2.94326e-20)
(0.522241 1.24316 0)
(0.574304 1.20702 0)
(0.656199 2.41607 5.78708e-19)
(0.670892 2.45698 1.2627e-18)
(0.715618 2.46765 -8.69763e-19)
(0.611957 2.44225 -2.02127e-19)
(0.561386 2.53278 2.83469e-19)
(0.510024 2.50701 -7.55877e-19)
(0.978554 2.37813 -5.77528e-19)
(1.01359 2.39045 0)
(0.926188 2.17195 -6.65933e-19)
(1.05474 2.67743 0)
(1.05704 2.66412 0)
(0.60434 2.26426 -1.19904e-19)
(1.03939 3.1572 1.34096e-19)
(0.910336 3.02762 -3.83764e-20)
(0.272114 0.873718 0)
(0.30296 0.723419 -3.17481e-19)
(0.469293 0.681049 -3.19433e-19)
(0.382952 2.00972 0)
(0.463996 2.78151 -5.12446e-20)
(0.418671 2.54452 0)
(0.703863 0.670467 -8.45819e-19)
(0.784988 0.679598 1.14188e-18)
(0.807289 0.623566 -1.12891e-18)
(0.68347 0.633447 -1.08953e-19)
(0.738398 0.590251 -4.48559e-19)
(1.00254 2.7581 -1.01977e-19)
(1.04204 2.8171 -1.6266e-19)
(0.635335 2.13244 6.80777e-19)
(0.589548 1.70093 -4.85443e-19)
(0.69668 1.89667 -4.04761e-19)
(0.988571 2.4416 -1.13499e-19)
(0.994895 2.43434 2.95228e-19)
(0.65484 1.83225 2.80683e-20)
(0.445724 1.32132 1.44379e-19)
)
;

boundaryField
{
    wall-4
    {
        type            noSlip;
    }
    velocity-inlet-5
    {
        type            fixedValue;
        value           uniform (1 0 0);
    }
    velocity-inlet-6
    {
        type            fixedValue;
        value           uniform (0 3 0);
    }
    pressure-outlet-7
    {
        type            zeroGradient;
    }
    wall-8
    {
        type            noSlip;
    }
    frontAndBackPlanes
    {
        type            empty;
    }
}


// ************************************************************************* //
