/*--------------------------------*- C++ -*----------------------------------*\
  =========                 |
  \\      /  F ield         | OpenFOAM: The Open Source CFD Toolbox
   \\    /   O peration     | Website:  https://openfoam.org
    \\  /    A nd           | Version:  10
     \\/     M anipulation  |
\*---------------------------------------------------------------------------*/
FoamFile
{
    format      ascii;
    class       volScalarField;
    location    "64";
    object      p;
}
// * * * * * * * * * * * * * * * * * * * * * * * * * * * * * * * * * * * * * //

dimensions      [0 2 -2 0 0 0 0];

internalField   nonuniform List<scalar> 
918
(
0.556876
1.1846
0.000827158
0.556319
-0.00949346
1.15162
-0.509306
0.667023
0.537073
-0.11089
-0.0473826
0.538436
1.01219
0.77797
-1.12413
-0.0107852
0.651574
-0.381526
0.53618
-0.0571575
0.694638
0.543615
0.54664
0.537218
0.598355
0.753746
0.893156
0.0225362
0.0114156
0.00491882
-0.014498
-0.0362558
-0.0308132
1.03527
1.08636
1.10905
0.504841
0.332834
-0.374792
-0.447392
-0.435551
-0.544781
0.663568
0.661874
-0.209378
0.6705
0.673247
0.524102
0.536442
0.537354
0.538376
0.537359
0.53874
0.403976
-0.111083
-0.142403
-0.0923487
-0.0848321
0.0530643
-0.0489672
-0.0509931
-0.0458734
-0.0456785
0.453987
0.532821
0.529381
0.54315
0.553666
1.12415
1.09607
1.12222
1.03586
1.05238
0.99018
0.962879
0.798796
0.820696
0.763462
0.751811
-1.55603
-2.50773
-0.534134
-0.283307
-0.0153744
-0.00884625
-0.00269901
0.648399
0.649532
0.651062
0.653767
1.08011
-0.378851
-0.479385
0.536321
0.53513
0.543455
0.544156
0.540175
0.539265
-0.0487413
-0.0458767
-0.0479585
-0.0538223
-0.0521699
0.68334
0.683886
0.537747
0.534751
0.561001
0.581035
0.571414
0.277897
0.608759
0.625402
0.584517
0.747588
0.740399
0.749667
0.866584
0.830424
0.930372
0.953436
0.0172295
-0.00111324
-0.0154498
-0.0193148
-0.0181604
0.500672
0.493212
0.520625
0.508277
0.510785
0.2495
0.116061
0.417819
0.442715
-0.293558
-0.35939
-0.429075
-0.459355
-0.567342
0.61165
0.659446
0.657499
-0.220079
-0.148143
-0.280966
-0.0750693
-0.137849
0.514364
0.52138
0.516377
0.531935
0.5264
0.528364
0.540712
0.537783
0.539343
0.466221
0.589914
0.330091
0.294704
-0.243445
-0.157036
-0.243669
-0.0734635
-0.0690437
0.0670952
0.0926242
0.0399764
0.028192
-0.0628742
-0.0548076
-0.058741
-0.0441018
-0.0447107
0.446745
0.435555
0.46668
0.474244
0.519412
0.520934
0.525609
0.523412
0.913631
0.935888
0.94359
0.917446
-3.49766
-6.28018
0.0414582
0.177889
-0.00647979
-0.0108433
0.00461546
-0.0104158
-0.00320817
-0.00442585
-0.0073597
-0.00848549
-0.00340003
-0.00214297
0.64246
0.643605
1.00217
1.00882
0.977979
0.930787
0.524532
0.526604
0.532104
0.527986
-0.0440232
-0.0445708
-0.043243
0.676515
0.681599
0.679421
0.239485
0.149943
0.328877
0.357953
0.636207
0.625452
0.634842
0.644215
0.680983
0.960827
0.979105
0.977309
0.985785
1.02985
1.04629
1.01161
0.480083
0.490084
0.485021
0.523724
0.521502
0.522401
0.518332
0.519563
0.517578
-0.0344468
-0.414539
0.490106
0.507095
0.492287
0.494854
0.691851
0.770514
0.653605
0.655888
0.655217
-0.00620158
-0.0646383
0.249978
0.21595
0.386345
0.422723
0.401708
0.884821
0.845379
0.895462
0.868656
0.830176
0.855477
-0.366085
-1.86618
-0.984996
0.527541
0.341658
0.428794
0.0100673
-0.0067836
-0.00228377
1.00156
1.074
0.64575
0.820639
0.823391
0.718891
0.74837
0.803834
0.730486
0.764262
0.798447
0.778826
0.567655
0.50321
0.519166
0.839727
0.89553
0.120048
0.0588974
0.0149267
0.111423
0.168733
0.142815
1.03413
0.949402
1.01968
0.534512
0.535232
-0.00432853
-0.018277
0.539474
0.539528
-0.0164516
-0.00378697
0.412012
-0.831919
0.100232
0.528048
0.517959
0.53509
-0.0948402
0.355437
-0.0479227
0.0483727
-0.00748306
0.530493
0.465124
0.424211
-4.99503e-05
-0.0195574
-0.0490612
-0.213567
0.532182
0.530485
0.534557
0.535501
0.53618
-0.0184105
-0.0134654
-0.00999671
-0.046041
-0.0400659
-0.0512531
0.499003
0.518173
-0.170028
0.534704
0.536838
0.536657
0.529914
0.535546
0.533797
-0.0108034
-0.0169056
-0.0181535
0.220078
0.351513
0.651655
0.739483
0.622539
0.398961
0.164139
0.555081
0.618391
0.524044
0.67797
0.655484
0.667702
0.165807
0.0156289
0.174368
0.115959
0.525908
0.524623
0.516212
0.513174
0.529956
0.528068
0.532629
0.529647
0.532598
0.533981
-0.0508885
-0.0788919
-0.0875844
-0.155281
0.310209
0.571561
0.253902
0.283812
0.141807
-0.0424658
-0.0426037
-0.0466058
-0.0543755
0.000876691
-0.0227799
0.0432742
0.0436411
0.0157904
-0.00993455
-0.00710269
-0.0179511
-0.0131913
0.524308
0.524092
0.527335
0.53623
0.474775
0.47856
0.443394
0.464151
0.449418
0.388179
0.423429
0.398674
-0.00794522
0.00188374
-0.00516303
-0.0171397
-0.0131063
-0.0328527
-0.0293836
-0.0252697
-0.0211408
-0.0277401
-0.0433017
-0.0452726
-0.171458
-0.287116
0.988577
0.909993
0.136849
0.521327
0.527785
0.524545
0.529467
0.532595
0.533398
0.531108
0.527656
0.518464
0.519947
0.516871
0.517871
-0.101731
-0.242787
-0.0708826
-0.144825
0.144484
0.627119
0.363406
0.299111
0.294306
0.522634
0.916072
0.699873
0.674379
0.680825
-0.342762
0.0464197
-0.279027
0.335829
0.163657
0.651051
0.700608
0.722537
0.670282
0.623192
-0.102028
0.555717
-0.0718024
-0.0199138
0.18131
0.0580759
0.666552
0.642478
0.648247
0.660167
0.675628
0.647154
0.633379
0.629174
0.654953
0.657009
0.485428
0.250859
0.201906
0.163401
0.641928
0.519661
0.571667
0.491191
0.521137
0.523719
0.522361
0.50384
0.511431
0.506948
0.513539
0.517078
0.525671
0.526136
0.521412
0.523545
-0.0579212
-0.063285
-0.0288854
-0.136216
-0.129632
-0.191674
-0.0616924
0.0762212
0.0372596
0.23741
0.341647
0.0528727
-0.0576216
-0.0304034
0.0120852
0.180402
0.208281
0.0742404
0.162017
0.152872
0.134579
0.237033
0.240617
-0.0270119
-0.0301009
-0.0340959
-0.035805
0.019191
0.0900309
0.0996673
-0.00522982
-0.0113542
-0.0405734
-0.0414386
-0.0213866
-0.0273792
-0.0226162
0.00757899
-0.052523
-0.0197955
-0.00571743
-0.00220782
-0.00420653
-0.00968583
0.518012
0.520334
0.520209
0.52653
0.540477
0.555454
0.519891
0.497001
0.487777
0.4908
0.463628
0.473965
0.46965
0.483332
0.504375
0.513893
0.511654
0.514517
0.496548
0.498382
0.484859
0.488531
0.463473
0.444246
0.43235
-0.0423847
-0.00415434
-0.0116561
-0.0381764
-0.0091422
-0.0209568
-0.00949431
0.00890803
-0.00722528
-0.00852487
-0.0183417
-0.025429
-0.0248972
-0.0733032
0.0133117
-0.184088
-0.219931
-0.292764
0.890657
1.01475
0.810291
0.583371
0.603437
0.846531
0.931204
0.543396
0.73573
0.758895
0.586453
0.854078
0.526174
0.525773
0.523371
0.522851
0.524072
-0.00714485
0.0987443
0.0979799
0.160571
0.276242
0.387991
0.318421
0.193838
0.324119
0.326608
0.620406
0.632474
0.587793
0.611698
0.612689
0.425137
0.500678
0.552594
0.512586
0.564936
0.5863
0.540356
0.573098
0.523164
0.478316
0.474312
0.424468
0.444076
0.419891
0.402967
0.514814
0.492894
0.503188
0.4939
0.513839
0.541578
0.538263
0.561624
0.576236
0.497651
0.452651
0.462016
0.492274
0.45343
0.468846
0.485127
0.231543
0.133282
0.216376
-0.0693674
0.00241336
-0.0103475
-0.0588944
-0.00818179
0.276177
-0.415393
-0.39172
-1.01932
0.502598
0.95284
0.602106
0.575514
0.674743
0.658059
0.663721
0.680248
0.681625
0.630287
0.640455
0.645174
0.60256
0.623861
0.642587
0.638979
0.524762
0.384145
0.382659
0.33135
0.201542
0.241066
0.437913
0.361764
0.286737
0.28698
0.456939
0.343767
0.413478
0.447382
0.378874
0.333395
0.535945
0.601749
0.595253
0.568689
0.480808
0.493547
0.517598
0.551578
0.576156
0.606674
0.512938
0.518875
0.520105
0.517577
0.51486
0.517934
0.518194
0.520745
0.521372
0.524373
0.523426
-0.0491747
-0.0359798
-0.0495851
-0.0590742
-0.0201278
-0.0223095
0.0229198
0.00744279
-0.0143151
-0.00890375
-0.032424
-0.037052
-0.0331099
-0.0245845
0.100576
0.113373
0.0972921
0.0575962
0.251191
0.380561
0.455043
0.330345
0.223994
0.247079
0.266547
-0.0118728
0.0133482
0.000386988
0.0400343
0.0322719
-0.0355645
-0.0392504
-0.036346
-0.0293726
-0.01994
-0.0362115
-0.0408956
-0.0317661
-0.0366199
-0.0395319
-0.0433825
0.499262
0.492704
0.494394
0.488188
0.486916
0.501389
0.50568
0.507648
0.513207
0.515663
0.505461
0.511205
0.515289
-0.0105537
-0.0336204
-0.0372889
-0.0272529
-0.0298062
-0.0275968
-0.0289782
0.123414
0.0540742
0.0582492
0.0103967
-0.121533
-0.0635292
0.491119
0.489838
0.479309
0.720689
0.569982
0.490507
0.58748
0.693261
0.275901
0.472719
0.307686
0.888325
0.784672
0.931068
0.542235
0.244862
0.407734
0.451295
0.264174
0.339557
0.325237
0.214417
0.245147
0.282458
0.381592
0.264897
0.241493
-0.00169413
0.188684
0.301022
0.282849
0.407598
0.468338
0.265679
0.185255
0.140467
0.605186
0.624714
0.63819
0.61081
0.631895
0.579321
0.571439
0.587345
0.595618
0.589085
-0.747513
-0.453977
-1.40051
-0.722145
-0.267374
0.533052
0.503942
0.769079
0.646562
0.684897
0.670103
0.628906
0.59835
0.621406
0.645068
0.342545
0.453339
0.428582
0.434006
0.336334
0.266886
0.564569
0.561211
0.593538
0.616838
0.589543
0.618715
0.510773
0.510499
0.509944
0.506181
0.504448
0.506826
0.0574229
0.0252166
0.0637758
0.0452235
0.021907
0.00877748
-0.00801311
-0.0179526
-0.0253099
-0.025113
-0.011032
-0.0070518
0.171072
0.108897
0.0293145
0.0585584
-0.00223627
-0.0709011
-0.0897124
0.0152991
0.111507
0.101677
0.405262
0.655036
0.475039
0.642525
0.484974
0.540779
0.467847
0.459246
0.484278
0.379085
0.459572
0.246895
-0.260809
-0.169833
0.793137
0.804676
0.58078
0.404578
0.172892
0.35234
0.542477
0.473137
0.508864
0.577933
0.565564
0.0268494
0.0854065
0.369544
0.596354
0.23932
0.230474
0.224053
0.407312
0.326178
)
;

boundaryField
{
    wall-4
    {
        type            zeroGradient;
    }
    velocity-inlet-5
    {
        type            zeroGradient;
    }
    velocity-inlet-6
    {
        type            zeroGradient;
    }
    pressure-outlet-7
    {
        type            fixedValue;
        value           uniform 0;
    }
    wall-8
    {
        type            zeroGradient;
    }
    frontAndBackPlanes
    {
        type            empty;
    }
}


// ************************************************************************* //
