/*--------------------------------*- C++ -*----------------------------------*\
  =========                 |
  \\      /  F ield         | OpenFOAM: The Open Source CFD Toolbox
   \\    /   O peration     | Website:  https://openfoam.org
    \\  /    A nd           | Version:  10
     \\/     M anipulation  |
\*---------------------------------------------------------------------------*/
FoamFile
{
    format      ascii;
    class       volScalarField;
    location    "16";
    object      p;
}
// * * * * * * * * * * * * * * * * * * * * * * * * * * * * * * * * * * * * * //

dimensions      [0 2 -2 0 0 0 0];

internalField   nonuniform List<scalar> 
8800
(
0.40853
0.360759
0.322098
0.293129
0.272296
0.257504
0.246946
0.239487
0.234653
0.232509
0.233569
0.237522
0.243941
0.253062
0.265686
0.283305
0.308003
0.341884
0.384372
0.443068
0.239715
0.247397
0.254934
0.258273
0.256811
0.251784
0.245348
0.239318
0.234615
0.231721
0.231283
0.233548
0.237782
0.243495
0.250076
0.256205
0.259731
0.258928
0.253404
0.244654
0.218078
0.224263
0.228439
0.231462
0.233588
0.234269
0.233236
0.231172
0.229129
0.228097
0.228844
0.230971
0.233511
0.235444
0.235837
0.234464
0.231968
0.22845
0.223835
0.220058
0.212157
0.214835
0.217686
0.2202
0.221946
0.223207
0.224029
0.2242
0.223902
0.223735
0.224237
0.225093
0.225618
0.225398
0.224535
0.223216
0.221198
0.218451
0.215935
0.214431
0.206696
0.208148
0.210104
0.212359
0.214352
0.215866
0.216965
0.217804
0.218394
0.218828
0.219188
0.219327
0.219086
0.218465
0.217424
0.215832
0.213802
0.211655
0.210189
0.209371
0.201644
0.20257
0.204047
0.205923
0.207864
0.209665
0.211158
0.212328
0.213267
0.213981
0.214345
0.214268
0.213785
0.212879
0.21151
0.209823
0.208033
0.206371
0.20536
0.20485
0.197002
0.197652
0.198921
0.200653
0.202464
0.204275
0.206033
0.20756
0.208745
0.209616
0.210064
0.209968
0.209303
0.208139
0.206691
0.20513
0.203501
0.202042
0.201242
0.200905
0.192905
0.193314
0.19443
0.196048
0.197701
0.199289
0.200812
0.202306
0.203699
0.20482
0.205346
0.205212
0.204613
0.203727
0.202619
0.201293
0.19983
0.198516
0.197886
0.197705
0.190089
0.190311
0.191172
0.192568
0.194077
0.19562
0.197183
0.198668
0.200046
0.201247
0.201978
0.202094
0.201722
0.200948
0.199933
0.198809
0.197583
0.196558
0.196136
0.196059
0.188149
0.188284
0.188779
0.189647
0.190686
0.19183
0.193071
0.194476
0.19595
0.197346
0.198295
0.198637
0.198529
0.198184
0.197673
0.197031
0.196376
0.195862
0.195648
0.195596
0.185787
0.185886
0.186173
0.186669
0.187423
0.188349
0.189509
0.190856
0.192363
0.193933
0.195186
0.195882
0.196149
0.196114
0.195818
0.19562
0.195433
0.195264
0.195164
0.195119
0.18259
0.182666
0.182913
0.183363
0.183896
0.184739
0.185894
0.18733
0.189031
0.190892
0.1925
0.193521
0.194051
0.194254
0.194447
0.194486
0.194457
0.194395
0.194341
0.194304
0.178729
0.178773
0.179012
0.179483
0.180131
0.180951
0.18214
0.183675
0.185572
0.187779
0.189843
0.191322
0.192265
0.192849
0.193204
0.193402
0.193456
0.193438
0.193427
0.193405
0.174444
0.17447
0.174701
0.175221
0.175988
0.176961
0.178298
0.180055
0.182282
0.184963
0.187581
0.189559
0.190907
0.191805
0.192383
0.192687
0.192792
0.192827
0.192855
0.19284
0.169785
0.169811
0.170042
0.170591
0.171428
0.172602
0.174132
0.176173
0.17883
0.18213
0.185445
0.188037
0.189882
0.191084
0.191879
0.192391
0.192639
0.19277
0.192834
0.19282
0.1646
0.164626
0.164879
0.165461
0.166392
0.167717
0.169539
0.172013
0.175274
0.17937
0.183546
0.186869
0.189254
0.190914
0.192006
0.192696
0.193103
0.193333
0.193426
0.193409
0.158613
0.158641
0.15895
0.159597
0.160667
0.162222
0.16443
0.167471
0.171512
0.176624
0.18187
0.186048
0.189109
0.191252
0.192701
0.193644
0.19423
0.194561
0.194683
0.19466
0.151554
0.151587
0.151957
0.152772
0.154036
0.155932
0.158664
0.162445
0.167491
0.173893
0.18047
0.185749
0.1896
0.192303
0.194149
0.195372
0.196148
0.196586
0.196738
0.196708
0.143139
0.143187
0.143653
0.144635
0.146252
0.148637
0.152053
0.156801
0.163147
0.171179
0.179409
0.186001
0.190799
0.194172
0.196489
0.198036
0.19902
0.199568
0.199759
0.19972
0.132982
0.133048
0.133648
0.134909
0.136968
0.140014
0.144365
0.150405
0.158424
0.168496
0.178748
0.186918
0.192852
0.197035
0.199915
0.201844
0.203074
0.203758
0.203993
0.203944
0.120535
0.120621
0.121407
0.123068
0.125765
0.129723
0.135359
0.143101
0.153261
0.16588
0.178592
0.18866
0.195957
0.201104
0.204653
0.207042
0.208568
0.209408
0.209698
0.209636
0.105017
0.105133
0.106196
0.108445
0.112058
0.117304
0.124688
0.134686
0.147607
0.163387
0.179063
0.191385
0.200302
0.206602
0.210962
0.21391
0.215803
0.216833
0.217183
0.217105
0.0853084
0.0854823
0.0869662
0.0901016
0.0950601
0.102159
0.111986
0.125024
0.141479
0.161123
0.180307
0.195265
0.206084
0.213759
0.219107
0.222752
0.225111
0.226394
0.226814
0.226712
0.0595763
0.0598479
0.0620557
0.0666757
0.0737714
0.0836783
0.0970023
0.114105
0.135005
0.159273
0.182511
0.200475
0.213483
0.222782
0.229336
0.233864
0.236826
0.238444
0.238959
0.238824
0.0247045
0.025213
0.0289144
0.0363005
0.0470209
0.061311
0.0796249
0.102076
0.128442
0.158087
0.185865
0.207157
0.22262
0.233801
0.241824
0.247491
0.251273
0.253343
0.253974
0.253791
-0.0252775
-0.0236157
-0.0160913
-0.00307138
0.0139464
0.0349646
0.0601591
0.0893791
0.122195
0.157844
0.190512
0.215351
0.233471
0.24677
0.25655
0.263687
0.268636
0.271432
0.272261
0.272005
-0.100141
-0.0908845
-0.0736875
-0.0504539
-0.0239698
0.00602347
0.0396241
0.0766369
0.116618
0.158844
0.196877
0.225709
0.246955
0.262882
0.275002
0.284333
0.291249
0.295508
0.29697
0.296968
-0.18012
-0.159352
-0.131791
-0.0982325
-0.0620611
-0.0229919
0.0190723
0.0640423
0.111596
0.161144
0.205592
0.239518
0.264911
0.284404
0.299721
0.311951
0.321593
0.328743
0.331612
0.331776
-0.243333
-0.220186
-0.184432
-0.142661
-0.0979707
-0.0505212
-0.000403653
0.0522313
0.107059
0.16353
0.21386
0.252226
0.281047
0.303314
0.320927
0.335069
0.3462
0.354492
0.357054
0.357499
-0.294658
-0.269373
-0.228869
-0.181157
-0.129915
-0.0756111
-0.0185404
0.0409633
0.102439
0.165239
0.220771
0.262822
0.294201
0.318261
0.337116
0.352157
0.363934
0.37228
0.375256
0.375732
-0.336393
-0.310374
-0.26641
-0.21431
-0.157931
-0.0981075
-0.0351919
0.0302929
0.0976885
0.166157
0.226242
0.271273
0.304488
0.329659
0.349163
0.364539
0.376445
0.384724
0.387907
0.388353
-0.37192
-0.345484
-0.299093
-0.243391
-0.182853
-0.118389
-0.0505
0.0201834
0.0928581
0.166429
0.230586
0.278238
0.312998
0.339012
0.358883
0.374305
0.386133
0.394302
0.397646
0.398082
-0.403142
-0.376528
-0.328253
-0.269642
-0.205608
-0.137167
-0.0649148
0.0104241
0.0879024
0.166242
0.234259
0.284338
0.320456
0.347142
0.36727
0.3827
0.394446
0.402453
0.405869
0.406297
-0.431538
-0.404765
-0.354947
-0.293903
-0.226848
-0.154934
-0.0788031
0.000745889
0.0826694
0.165503
0.237187
0.289636
0.32713
0.354544
0.374997
0.390511
0.402204
0.410059
0.413484
0.413936
-0.457939
-0.431006
-0.379938
-0.316715
-0.247067
-0.172114
-0.0925264
-0.00914806
0.0768949
0.164011
0.239424
0.294399
0.333418
0.36168
0.382545
0.39821
0.409911
0.417622
0.420978
0.421506
-0.483032
-0.455879
-0.403642
-0.338561
-0.266627
-0.188971
-0.106292
-0.0194323
0.0704904
0.161836
0.241064
0.29874
0.339478
0.368762
0.390175
0.406088
0.417844
0.425477
0.428723
0.429259
-0.507072
-0.479679
-0.426321
-0.359717
-0.285713
-0.205663
-0.120209
-0.0301474
0.0634329
0.158887
0.242007
0.302631
0.345354
0.375893
0.398036
0.414324
0.42622
0.433811
0.436915
0.437391
-0.530402
-0.502635
-0.44846
-0.38034
-0.304505
-0.222322
-0.134358
-0.0413783
0.0555864
0.155016
0.242164
0.306021
0.351041
0.383104
0.406191
0.423007
0.43513
0.442728
0.445674
0.446049
-0.553049
-0.524914
-0.470022
-0.400511
-0.323067
-0.23899
-0.1488
-0.0531973
0.0469064
0.150176
0.241416
0.308791
0.356486
0.390387
0.414654
0.432167
0.444617
0.452241
0.455057
0.45527
-0.575086
-0.546576
-0.491013
-0.420271
-0.341415
-0.255679
-0.163529
-0.0655796
0.0373958
0.144292
0.239625
0.310767
0.36152
0.39765
0.423379
0.441771
0.454645
0.462305
0.464993
0.465038
-0.596578
-0.567707
-0.511419
-0.439632
-0.359549
-0.272354
-0.178487
-0.0784735
0.0270621
0.13732
0.23667
0.311756
0.36592
0.404718
0.432279
0.451776
0.465173
0.472861
0.475376
0.475261
-0.617575
-0.58826
-0.531279
-0.458561
-0.377399
-0.288953
-0.193612
-0.0918291
0.0159521
0.129247
0.232437
0.311551
0.369454
0.411409
0.441262
0.462132
0.476104
0.48374
0.485978
0.485728
-0.637895
-0.608157
-0.550554
-0.47702
-0.394923
-0.305409
-0.208836
-0.105551
0.00414575
0.120109
0.226843
0.309936
0.371827
0.417448
0.450219
0.472861
0.487414
0.494788
0.496629
0.496231
-0.657505
-0.627383
-0.569208
-0.494952
-0.412061
-0.321657
-0.224056
-0.119545
-0.00826001
0.109963
0.219849
0.306729
0.372681
0.422419
0.458913
0.484103
0.499323
0.505904
0.506979
0.506444
-0.676467
-0.645886
-0.587212
-0.51232
-0.428747
-0.337609
-0.23918
-0.1337
-0.0211529
0.098904
0.211461
0.301803
0.371671
0.42575
0.466868
0.495981
0.512623
0.517557
0.516713
0.516001
-0.694626
-0.663662
-0.604515
-0.529061
-0.444924
-0.353187
-0.254114
-0.147897
-0.0343995
0.0870658
0.201744
0.295075
0.36853
0.426726
0.473107
0.508074
0.528624
0.532459
0.52725
0.525054
-0.712083
-0.680714
-0.621143
-0.545205
-0.460629
-0.368441
-0.268915
-0.162198
-0.048065
0.0743837
0.190594
0.286319
0.362957
0.424551
0.475991
0.518583
0.547146
0.556289
0.54764
0.525805
-0.728774
-0.697053
-0.637218
-0.560928
-0.476139
-0.383684
-0.283981
-0.177071
-0.0626871
0.0601991
0.177308
0.274656
0.354117
0.41805
0.472282
0.521983
0.557976
0.566858
0.551479
0.525855
-0.744561
-0.712866
-0.652574
-0.575978
-0.491177
-0.398584
-0.299088
-0.192188
-0.0779318
0.0448436
0.16211
0.259975
0.341617
0.406877
0.457673
0.507112
0.53932
0.537671
0.46835
0.425867
-0.758868
-0.729088
-0.666841
-0.589801
-0.505071
-0.412696
-0.31396
-0.207336
-0.0935823
0.0284814
0.145048
0.242252
0.324807
0.391776
0.433183
0.462448
0.480009
0.43737
0.361595
0.312068
-0.811827
-0.742587
-0.67978
-0.603857
-0.519193
-0.427344
-0.328666
-0.222759
-0.109946
0.0107654
0.125704
0.221205
0.301575
0.374114
0.385316
0.392878
0.364466
0.298363
0.21308
0.165207
-0.771588
-0.756998
-0.698065
-0.623815
-0.539415
-0.448161
-0.350747
-0.24606
-0.135066
-0.0170855
0.0938403
0.185052
0.257471
0.32024
0.325972
0.207317
0.0917561
0.0124376
-0.0705482
-0.026685
-0.799695
-0.772276
-0.713463
-0.639023
-0.555242
-0.464469
-0.367117
-0.263419
-0.153982
-0.0385388
0.0685876
0.15483
0.220043
0.253108
0.200629
0.0359585
-0.114998
-0.221798
-0.338608
-0.268776
-0.820971
-0.790195
-0.731023
-0.656197
-0.572654
-0.48218
-0.385222
-0.28269
-0.175097
-0.0626908
0.0399906
0.119961
0.17563
0.180622
0.0618132
-0.154308
-0.342202
-0.487001
-0.656105
-0.593653
-0.841242
-0.809114
-0.749045
-0.673618
-0.590078
-0.499896
-0.403693
-0.30243
-0.196833
-0.0877471
0.00979703
0.0829117
0.124823
0.0916509
-0.0959372
-0.347531
-0.5899
-0.809012
-1.05581
-1.04384
-0.860347
-0.828228
-0.767561
-0.691632
-0.608086
-0.51826
-0.422899
-0.322989
-0.219583
-0.114133
-0.022267
0.0435499
0.068743
-0.00727126
-0.248501
-0.525318
-0.815593
-1.07713
-1.40085
-1.77612
-0.879414
-0.847606
-0.786759
-0.710578
-0.627029
-0.537527
-0.442931
-0.344376
-0.243224
-0.141558
-0.0554659
0.00254137
0.0108558
-0.115403
-0.384267
-0.664634
-0.953854
-1.19884
-1.29894
-1.45629
-0.899027
-0.867635
-0.806874
-0.730698
-0.647267
-0.55817
-0.464421
-0.367356
-0.268722
-0.171232
-0.0913586
-0.0421381
-0.0558534
-0.238723
-0.503943
-0.766876
-1.00031
-1.1476
-1.17618
-1.20548
-0.919546
-0.888494
-0.827993
-0.751991
-0.668834
-0.580275
-0.487566
-0.392238
-0.296478
-0.203704
-0.130569
-0.0911573
-0.134607
-0.354213
-0.612889
-0.850741
-1.03422
-1.11299
-1.13282
-1.13618
-0.94112
-0.910242
-0.850135
-0.774375
-0.691586
-0.603744
-0.512258
-0.418923
-0.326386
-0.238892
-0.172919
-0.145286
-0.217646
-0.462423
-0.714088
-0.93893
-1.07943
-1.10638
-1.10863
-1.10906
-0.963633
-0.932938
-0.873127
-0.797754
-0.715426
-0.628433
-0.538349
-0.447241
-0.358231
-0.276547
-0.218143
-0.203036
-0.303437
-0.565297
-0.807193
-1.02975
-1.09641
-1.10432
-1.10249
-1.1015
-0.986807
-0.956377
-0.896808
-0.821898
-0.740163
-0.654138
-0.565616
-0.476948
-0.391721
-0.316186
-0.265893
-0.26119
-0.396698
-0.661824
-0.884519
-1.09533
-1.15102
-1.11274
-1.09524
-1.09034
-1.01009
-0.980211
-0.921005
-0.846537
-0.765469
-0.680537
-0.593691
-0.507649
-0.426376
-0.357181
-0.315587
-0.322878
-0.492669
-0.746927
-0.930564
-1.05334
-1.07489
-1.07477
-1.0721
-1.0695
-1.03288
-1.00341
-0.945257
-0.871254
-0.790879
-0.707147
-0.622076
-0.538738
-0.461549
-0.398694
-0.366241
-0.390323
-0.596048
-0.814609
-0.971378
-0.944925
-1.05121
-1.07975
-1.08776
-1.08958
-1.05472
-1.02594
-0.968711
-0.895415
-0.815866
-0.733297
-0.650088
-0.56939
-0.496245
-0.439468
-0.416442
-0.455271
-0.730794
-0.921363
-1.06417
-1.21659
-1.2542
-1.29899
-1.30359
-1.28815
-1.07449
-1.04678
-0.990623
-0.918177
-0.839574
-0.758288
-0.676792
-0.598494
-0.529015
-0.477847
-0.46496
-0.516152
-0.896827
-1.16114
-1.06816
-0.907975
-1.3558
-1.75666
-1.76282
-1.73206
-1.0911
-1.0649
-1.01018
-0.938649
-0.860977
-0.780977
-0.701145
-0.624923
-0.558098
-0.511887
-0.508711
-0.580497
-1.06223
-1.55266
-1.79378
-1.92934
-2.05747
-2.00122
-1.82753
-1.84463
-1.10343
-1.07913
-1.0262
-0.955694
-0.878973
-0.800241
-0.721881
-0.647153
-0.581533
-0.538082
-0.540333
-0.642302
-1.23466
-2.15175
-3.39625
-4.06475
-4.13341
-3.58379
-2.99423
-2.75171
-1.11011
-1.08822
-1.03747
-0.968028
-0.892342
-0.814803
-0.737661
-0.663786
-0.597594
-0.550496
-0.552681
-0.665963
-1.26365
-2.20771
-3.30606
-3.87131
-3.94679
-3.64719
-3.23736
-3.02221
-1.11023
-1.09114
-1.04272
-0.974497
-0.899687
-0.823396
-0.747571
-0.674041
-0.604607
-0.547272
-0.526295
-0.563146
-0.890027
-1.27056
-1.62513
-1.83184
-1.71617
-1.45875
-1.19913
-1.05996
-1.1013
-1.08487
-1.03973
-0.973138
-0.899582
-0.825058
-0.750967
-0.677452
-0.603521
-0.527301
-0.456067
-0.415898
-0.301082
-0.124918
0.198682
0.570528
0.906622
1.1837
1.35841
1.42429
-1.08179
-1.06821
-1.02652
-0.962144
-0.89063
-0.818801
-0.747587
-0.675555
-0.597386
-0.500788
-0.381479
-0.251972
0.0171451
0.577275
1.18744
1.77505
2.25056
2.54681
2.68935
2.72897
-1.04945
-1.03865
-1.00078
-0.939466
-0.871755
-0.804595
-0.739176
-0.673151
-0.598096
-0.488425
-0.32971
-0.135052
0.122896
0.633571
1.27293
1.83716
2.25642
2.50172
2.61608
2.6479
-1.001
-0.99272
-0.959642
-0.904363
-0.84281
-0.783445
-0.728365
-0.67657
-0.613382
-0.510784
-0.327979
-0.0891538
0.143808
0.497047
0.994408
1.42356
1.75071
1.94518
2.04344
2.07255
-0.935285
-0.929073
-0.902754
-0.856531
-0.804995
-0.757346
-0.717893
-0.689458
-0.670838
-0.62924
-0.487601
-0.212083
0.0673805
0.278849
0.612585
0.932848
1.1832
1.343
1.42931
1.45653
-0.858825
-0.853723
-0.834339
-0.800115
-0.761912
-0.729545
-0.711549
-0.721686
-0.786189
-0.942624
-1.02623
-0.730945
-0.332949
-0.0712743
0.195354
0.449997
0.647273
0.770352
0.827894
0.835822
-0.769907
-0.767496
-0.756323
-0.735777
-0.713492
-0.698719
-0.704725
-0.760808
-0.94365
-1.38108
-1.82789
-1.49724
-0.887802
-0.540258
-0.219658
0.0535929
0.24843
0.368306
0.423553
0.435819
-0.680495
-0.679996
-0.674549
-0.664323
-0.654654
-0.654289
-0.678475
-0.766495
-1.02599
-1.6502
-2.32373
-1.9979
-1.2769
-0.85122
-0.484563
-0.203249
-0.0244825
0.0640461
0.0977363
0.10131
-0.586503
-0.586891
-0.584567
-0.579773
-0.577328
-0.584249
-0.614563
-0.705451
-0.957415
-1.54479
-2.12847
-1.84622
-1.31584
-0.896428
-0.547927
-0.323325
-0.207899
-0.159727
-0.141283
-0.138901
-0.482882
-0.483561
-0.482315
-0.479975
-0.479824
-0.486706
-0.510679
-0.578048
-0.757868
-1.1605
-1.5141
-1.34478
-0.987537
-0.660973
-0.432554
-0.314249
-0.269579
-0.25508
-0.24954
-0.24793
-0.371356
-0.372191
-0.371896
-0.370703
-0.370483
-0.373681
-0.385584
-0.419657
-0.509078
-0.703194
-0.852925
-0.72293
-0.505816
-0.337629
-0.253707
-0.233764
-0.234748
-0.239081
-0.240388
-0.239986
-0.263881
-0.26454
-0.264872
-0.264359
-0.263554
-0.262909
-0.264092
-0.271282
-0.293422
-0.336419
-0.329567
-0.293163
-0.173024
-0.128932
-0.127715
-0.142967
-0.157429
-0.166776
-0.170515
-0.171162
-0.169993
-0.170467
-0.171302
-0.171471
-0.170558
-0.167887
-0.163071
-0.155774
-0.145329
-0.126339
-0.0829241
-0.0535755
-0.0209852
-0.0234243
-0.0446936
-0.0650003
-0.0798694
-0.088769
-0.0927612
-0.0938668
-0.0956871
-0.0960167
-0.0970494
-0.0976751
-0.0969831
-0.093956
-0.087464
-0.0757147
-0.056104
-0.0247839
0.0139197
0.0288212
0.0324574
0.0225233
0.00429655
-0.0115889
-0.0228995
-0.0296561
-0.0328877
-0.0339939
-0.0413593
-0.0415794
-0.0426065
-0.0435328
-0.043263
-0.0407444
-0.0348307
-0.0237481
-0.00535768
0.0216799
0.0483814
0.057313
0.0534913
0.0438204
0.031254
0.0203296
0.0124189
0.00760087
0.00523524
0.00438669
-0.00427985
-0.00443011
-0.00534298
-0.00641067
-0.0066092
-0.00496241
-0.000438115
0.00826039
0.0223963
0.0419759
0.0590496
0.0642873
0.0604639
0.0530876
0.0447287
0.0373653
0.0318195
0.028363
0.0266751
0.0260598
0.0194068
0.0192971
0.0185352
0.0174752
0.0169715
0.0177756
0.0207246
0.0268085
0.0367176
0.0499124
0.0605232
0.0634399
0.0607286
0.0556691
0.0500711
0.0449993
0.0410327
0.0384934
0.0372813
0.0368466
0.0334409
0.0333514
0.0327467
0.0317916
0.0311556
0.0314272
0.0331687
0.037008
0.0434055
0.0518647
0.0584126
0.0600557
0.0581883
0.054679
0.0507986
0.0472121
0.0442981
0.0423877
0.0415057
0.0412018
0.0409331
0.0408495
0.0403684
0.0395363
0.0388649
0.038772
0.0396924
0.0420327
0.0460034
0.0512048
0.0550884
0.0558095
0.0543486
0.0518504
0.0490911
0.0464814
0.0443016
0.0428513
0.0422045
0.0419917
0.0441596
0.0440776
0.0436753
0.0429398
0.0422668
0.0419328
0.0422307
0.0434515
0.0457525
0.0488038
0.0509736
0.0511707
0.0500097
0.0481672
0.0461403
0.0442112
0.0425752
0.0414806
0.0410076
0.0408569
0.0446048
0.0445271
0.0441803
0.0435314
0.0428809
0.0424248
0.0423628
0.0428679
0.0440363
0.0456761
0.0467775
0.0466316
0.0456187
0.0441871
0.0426542
0.0411983
0.0399574
0.0391294
0.0387818
0.0386735
0.0432096
0.0431391
0.0428365
0.042262
0.0416449
0.041125
0.0408396
0.0409088
0.0413882
0.0421268
0.0425093
0.0421379
0.0412485
0.040114
0.0389319
0.03782
0.036875
0.0362486
0.0359913
0.0359124
0.0405828
0.040522
0.0402629
0.0397624
0.039196
0.0386652
0.0382607
0.0380567
0.038094
0.0382806
0.0382488
0.0377672
0.036979
0.0360578
0.0351308
0.0342724
0.0335485
0.0330721
0.0328795
0.0328214
0.0371428
0.0370926
0.0368779
0.0364531
0.0359526
0.0354508
0.0350081
0.0346722
0.0344652
0.0343225
0.0340402
0.0335044
0.0328062
0.0320506
0.0313153
0.0306462
0.0300874
0.0297223
0.0295768
0.0295338
0.0331786
0.0331381
0.0329651
0.0326137
0.0321849
0.0317334
0.0312976
0.0309068
0.0305753
0.0302604
0.0298562
0.0293202
0.0287106
0.0280896
0.0275035
0.0269793
0.0265456
0.0262647
0.0261546
0.0261227
0.028889
0.0288567
0.0287209
0.0284386
0.0280836
0.0276963
0.0272993
0.0269101
0.0265366
0.0261497
0.0257045
0.0252009
0.0246777
0.024169
0.0237016
0.02329
0.0229529
0.0227369
0.0226536
0.0226299
0.0244109
0.0243854
0.0242808
0.0240603
0.0237757
0.0234562
0.0231139
0.022759
0.0223952
0.0220031
0.0215723
0.0211247
0.0206861
0.020275
0.0199057
0.0195851
0.0193251
0.0191603
0.0190976
0.01908
0.0198336
0.0198138
0.0197348
0.0195669
0.019346
0.0190922
0.0188119
0.0185105
0.0181893
0.0178344
0.0174532
0.0170763
0.0167216
0.0163979
0.0161121
0.0158669
0.0156698
0.0155459
0.0154991
0.0154861
0.0152073
0.0151926
0.0151348
0.0150112
0.0148463
0.0146543
0.0144384
0.0142008
0.0139412
0.0136502
0.0133415
0.0130455
0.0127742
0.0125309
0.0123182
0.0121367
0.0119917
0.0119009
0.0118669
0.0118574
0.010557
0.0105467
0.0105068
0.010421
0.0103063
0.010173
0.0100222
0.00985403
0.00966752
0.00945696
0.00923506
0.00902591
0.00883728
0.00866976
0.00852374
0.0083988
0.00829831
0.00823539
0.00821201
0.00820522
0.00588947
0.00588367
0.00586126
0.00581116
0.00574496
0.0056693
0.00558374
0.00548764
0.0053799
0.00525753
0.00512881
0.00500878
0.00490188
0.00480776
0.00472596
0.00465524
0.00459728
0.00456118
0.00454824
0.00454357
0.00121222
0.00121396
0.00122299
0.00122357
0.0012108
0.00119134
0.00116741
0.00114005
0.00110896
0.00107318
0.00103415
0.000996832
0.00096383
0.000934906
0.000910073
0.000889115
0.00087271
0.000865218
0.000870894
0.00087665
-0.759014
-0.529047
-0.270083
-0.0580881
0.113931
0.252649
0.369982
0.46905
0.514611
0.492119
-0.347217
-0.190305
-0.0269521
0.113717
0.233201
0.333396
0.415032
0.473475
0.503912
0.515124
-0.0662086
0.0376828
0.146902
0.244053
0.327917
0.398335
0.454344
0.495264
0.52395
0.541013
0.130034
0.201319
0.277808
0.347118
0.407373
0.458372
0.499968
0.532698
0.558469
0.576184
0.277997
0.329475
0.384089
0.435694
0.48113
0.520528
0.553869
0.581192
0.603416
0.620905
0.396552
0.434605
0.477797
0.518444
0.555362
0.588139
0.616493
0.640019
0.659074
0.676262
0.497692
0.529283
0.566844
0.602053
0.634699
0.664108
0.689626
0.710644
0.726968
0.744006
0.591545
0.622559
0.658792
0.692746
0.724012
0.75201
0.776009
0.795337
0.809283
0.826345
0.690134
0.724418
0.762407
0.797164
0.828251
0.855333
0.878017
0.895844
0.908126
0.925579
0.80719
0.845494
0.884998
0.920015
0.950013
0.975326
0.99616
1.01241
1.02416
1.04229
0.953427
0.992355
1.02884
1.05998
1.08606
1.1085
1.12784
1.14359
1.1562
1.17425
1.12893
1.16103
1.18747
1.21015
1.23037
1.2493
1.26718
1.28378
1.29925
1.31736
1.31802
1.3354
1.35066
1.36708
1.38312
1.39776
1.41107
1.42508
1.4427
1.46288
1.50015
1.50969
1.52131
1.53217
1.5415
1.55119
1.5621
1.57354
1.58495
1.60033
1.70749
1.71119
1.69626
1.68147
1.6753
1.68105
1.69955
1.7299
1.76212
1.78879
2.0138
1.87895
1.80241
1.76018
1.74277
1.74674
1.77419
1.83059
1.93322
2.1576
0.299119
0.297006
0.29252
0.283921
0.271738
0.259658
0.249481
0.241628
0.236015
0.232701
0.232186
0.234682
0.239539
0.246537
0.255734
0.267124
0.279657
0.290607
0.296688
0.299708
0.223506
0.229362
0.235731
0.240273
0.242791
0.242524
0.239849
0.236081
0.23258
0.230256
0.229938
0.23188
0.235278
0.239327
0.242927
0.244639
0.243573
0.239979
0.234728
0.228075
0.214983
0.217283
0.220746
0.223836
0.226012
0.2276
0.228432
0.228182
0.227184
0.226232
0.226214
0.227368
0.22888
0.229895
0.229825
0.228719
0.226975
0.224467
0.221076
0.218102
0.209385
0.210466
0.212388
0.214916
0.217095
0.21867
0.219806
0.220622
0.22103
0.221175
0.221456
0.221941
0.222207
0.221955
0.22124
0.2201
0.218355
0.216023
0.213743
0.2123
0.20411
0.204748
0.205985
0.207947
0.209994
0.211859
0.213338
0.214462
0.215375
0.216102
0.216593
0.216746
0.216522
0.215955
0.214984
0.213524
0.211692
0.209762
0.20816
0.207319
0.199286
0.199699
0.200637
0.202281
0.204146
0.206033
0.207835
0.209355
0.210522
0.211403
0.212005
0.212204
0.21191
0.211101
0.2098
0.208203
0.206507
0.204854
0.203578
0.203011
0.194833
0.195086
0.195853
0.197364
0.199099
0.200789
0.202449
0.204092
0.205592
0.206806
0.207576
0.207707
0.207235
0.206303
0.205125
0.203788
0.202302
0.20078
0.19967
0.199278
0.191323
0.191438
0.192028
0.193378
0.194993
0.196599
0.198164
0.199641
0.20103
0.202297
0.203217
0.203529
0.203302
0.20268
0.201736
0.200555
0.199225
0.197871
0.196961
0.196728
0.189095
0.189144
0.189519
0.19047
0.19173
0.193055
0.194467
0.195942
0.197435
0.198837
0.19994
0.200452
0.200377
0.199904
0.199165
0.198324
0.197381
0.19647
0.195915
0.195786
0.187076
0.187116
0.187335
0.187848
0.188603
0.189518
0.190581
0.191833
0.193235
0.194722
0.196049
0.196863
0.197164
0.197131
0.196892
0.196477
0.196095
0.195733
0.195505
0.195427
0.184285
0.184313
0.184472
0.18482
0.185328
0.186165
0.187165
0.188447
0.189962
0.191639
0.193256
0.194403
0.194979
0.19516
0.195169
0.195074
0.195006
0.19491
0.194817
0.194767
0.180722
0.180736
0.180874
0.181221
0.181747
0.182408
0.183398
0.184696
0.186324
0.188245
0.19023
0.191792
0.19276
0.193331
0.193644
0.193844
0.193933
0.19392
0.19388
0.193857
0.17663
0.176627
0.176748
0.177135
0.177762
0.178513
0.179562
0.181025
0.182871
0.185121
0.187578
0.189644
0.191049
0.191965
0.192564
0.192895
0.193051
0.193075
0.193079
0.193081
0.172165
0.172158
0.17226
0.172651
0.173309
0.174243
0.175547
0.17714
0.179284
0.18199
0.185048
0.187716
0.18961
0.190886
0.191758
0.192319
0.192581
0.192698
0.192764
0.192781
0.167283
0.167266
0.167392
0.167797
0.168515
0.169546
0.170975
0.17292
0.175502
0.178817
0.182633
0.186052
0.188572
0.190313
0.19148
0.192225
0.192668
0.192916
0.193046
0.193072
0.161737
0.161716
0.16187
0.162309
0.16309
0.164266
0.165957
0.168307
0.171478
0.175585
0.180364
0.184693
0.18782
0.190125
0.191692
0.192724
0.193379
0.193773
0.193965
0.193998
0.155259
0.155234
0.155418
0.155949
0.156849
0.158252
0.160299
0.163187
0.16712
0.172245
0.17823
0.18366
0.187706
0.190584
0.192577
0.193919
0.1948
0.19534
0.195595
0.195638
0.147563
0.14753
0.147761
0.148402
0.149539
0.151279
0.153811
0.157421
0.162351
0.168773
0.176266
0.183067
0.188137
0.191749
0.194252
0.195952
0.19708
0.197777
0.1981
0.198156
0.13831
0.138266
0.138571
0.139404
0.140837
0.143039
0.146267
0.150841
0.157057
0.165128
0.174504
0.182978
0.189268
0.193757
0.196877
0.198999
0.200414
0.20129
0.201693
0.201762
0.127056
0.127002
0.127413
0.128509
0.130368
0.13321
0.137367
0.14321
0.151109
0.161283
0.172989
0.183489
0.191251
0.196795
0.200653
0.203281
0.205037
0.206131
0.206632
0.206714
0.113159
0.113097
0.113671
0.115137
0.11759
0.121323
0.126742
0.134306
0.144416
0.157247
0.171806
0.184743
0.194264
0.201063
0.205806
0.209047
0.211218
0.212575
0.213197
0.213295
0.0956585
0.0955908
0.0964155
0.0984333
0.101766
0.106793
0.11401
0.123924
0.136913
0.153072
0.171084
0.186902
0.198494
0.206782
0.212585
0.216573
0.219256
0.220936
0.221713
0.221831
0.0730887
0.0730305
0.0742782
0.0771732
0.0818747
0.0888542
0.0986798
0.111823
0.128575
0.148866
0.170979
0.190139
0.204129
0.214163
0.221239
0.226145
0.229475
0.231569
0.232532
0.232675
0.0431253
0.0431359
0.0451639
0.0495594
0.0565348
0.0666129
0.0803
0.0979093
0.119518
0.144821
0.17168
0.194614
0.211313
0.223363
0.231966
0.23802
0.242188
0.244832
0.246038
0.24621
0.00144978
0.00169923
0.005465
0.0130125
0.0241705
0.0393948
0.0588115
0.0824402
0.110094
0.141258
0.173417
0.200463
0.220118
0.234429
0.24483
0.252325
0.25762
0.261036
0.262566
0.262763
-0.0598505
-0.0581562
-0.0492172
-0.0350085
-0.0160209
0.00737985
0.0348115
0.0660839
0.100872
0.138573
0.17639
0.207725
0.230474
0.247207
0.259619
0.268859
0.275618
0.280098
0.28215
0.282419
-0.133195
-0.130437
-0.113799
-0.0887815
-0.0592436
-0.026328
0.00987188
0.0493346
0.0918095
0.136786
0.181276
0.218093
0.245132
0.265455
0.280991
0.293006
0.302359
0.308464
0.310642
0.311386
-0.208701
-0.199999
-0.17539
-0.140304
-0.101146
-0.0590807
-0.0142381
0.0333463
0.0834815
0.135739
0.186965
0.22931
0.260604
0.284434
0.303029
0.31777
0.329419
0.337287
0.341174
0.342515
-0.266715
-0.25674
-0.227201
-0.185476
-0.138955
-0.0892661
-0.0368137
0.0182105
0.0755061
0.134585
0.191984
0.239154
0.273917
0.300356
0.320948
0.337231
0.350067
0.359267
0.364186
0.365684
-0.313684
-0.303172
-0.270232
-0.223793
-0.171763
-0.116106
-0.0573897
0.00404396
0.0677095
0.132955
0.195878
0.247162
0.284596
0.312762
0.334463
0.351471
0.364783
0.374455
0.379612
0.381235
-0.352478
-0.341918
-0.30695
-0.256867
-0.200452
-0.139979
-0.0760229
-0.00909641
0.0601523
0.130909
0.198752
0.253548
0.29312
0.322556
0.344972
0.36232
0.375743
0.385418
0.39057
0.392247
-0.386108
-0.375597
-0.339079
-0.286123
-0.22613
-0.161602
-0.0931785
-0.0214629
0.052774
0.128516
0.200896
0.25896
0.300461
0.330949
0.353848
0.371338
0.384734
0.394385
0.399543
0.401146
-0.416089
-0.405654
-0.368011
-0.312715
-0.249743
-0.181726
-0.109372
-0.0333752
0.0454037
0.1258
0.202479
0.263616
0.306908
0.338366
0.361723
0.379378
0.392783
0.402396
0.407591
0.409026
-0.443641
-0.433237
-0.394683
-0.337421
-0.271849
-0.200817
-0.125008
-0.0451644
0.0377785
0.122532
0.203311
0.26754
0.312727
0.345266
0.369179
0.387061
0.400521
0.410113
0.415308
0.416621
-0.469515
-0.459123
-0.419774
-0.360757
-0.292971
-0.219287
-0.140413
-0.0571039
0.0296609
0.118551
0.203471
0.270939
0.318188
0.351953
0.376542
0.394753
0.408332
0.417909
0.42311
0.424315
-0.494159
-0.483747
-0.44366
-0.383156
-0.313406
-0.237349
-0.155745
-0.0693088
0.0210088
0.113886
0.202931
0.273793
0.323341
0.358557
0.384001
0.402674
0.416464
0.42608
0.43125
0.432409
-0.517941
-0.507455
-0.466683
-0.404888
-0.33333
-0.255182
-0.171134
-0.0818493
0.0117631
0.10841
0.201549
0.276032
0.328187
0.36515
0.391666
0.410957
0.425067
0.434776
0.439856
0.441003
-0.541045
-0.530401
-0.488953
-0.426048
-0.352886
-0.272889
-0.18665
-0.094805
0.00180197
0.102021
0.199249
0.277551
0.332634
0.371675
0.399532
0.419627
0.434176
0.444049
0.449042
0.450164
-0.563484
-0.55266
-0.510696
-0.446684
-0.372115
-0.290484
-0.202322
-0.108205
-0.00887145
0.0946909
0.195925
0.278217
0.336544
0.378013
0.407538
0.428673
0.443802
0.453894
0.458818
0.459844
-0.585388
-0.574353
-0.531876
-0.46683
-0.391043
-0.307981
-0.21813
-0.122002
-0.0202261
0.0863998
0.191478
0.277868
0.339768
0.384064
0.415624
0.438056
0.45392
0.464284
0.469122
0.47001
-0.606689
-0.595446
-0.552443
-0.48649
-0.409638
-0.325324
-0.234003
-0.136139
-0.0322319
0.0771456
0.185841
0.276327
0.342067
0.389647
0.423676
0.447721
0.464462
0.475109
0.479833
0.480525
-0.627411
-0.615931
-0.572397
-0.505647
-0.427849
-0.34246
-0.249889
-0.150543
-0.0448092
0.0669768
0.178975
0.273439
0.343162
0.394444
0.431501
0.45761
0.475393
0.486222
0.490668
0.491142
-0.647394
-0.635753
-0.591696
-0.524244
-0.445625
-0.359315
-0.265713
-0.165128
-0.0578654
0.0559704
0.170876
0.269075
0.342797
0.398095
0.43883
0.467698
0.486828
0.497617
0.501462
0.501623
-0.666744
-0.654865
-0.610321
-0.542251
-0.462926
-0.375842
-0.281373
-0.179797
-0.0712952
0.0442315
0.161587
0.263152
0.34073
0.40018
0.445221
0.47789
0.499155
0.509597
0.511992
0.51157
-0.685334
-0.673216
-0.628244
-0.559617
-0.479673
-0.391955
-0.296786
-0.194427
-0.0849746
0.0318563
0.1512
0.255633
0.336755
0.400205
0.44993
0.487715
0.512923
0.523612
0.522916
0.520531
-0.703205
-0.690887
-0.645424
-0.576295
-0.495829
-0.407592
-0.311874
-0.208936
-0.098782
0.0190057
0.139842
0.246529
0.330769
0.397737
0.451884
0.495849
0.527794
0.542385
0.539205
0.527661
-0.720292
-0.707818
-0.661973
-0.592429
-0.511593
-0.423027
-0.326964
-0.223724
-0.113179
0.00514593
0.126916
0.235181