/*--------------------------------*- C++ -*----------------------------------*\
  =========                 |
  \\      /  F ield         | OpenFOAM: The Open Source CFD Toolbox
   \\    /   O peration     | Website:  https://openfoam.org
    \\  /    A nd           | Version:  10
     \\/     M anipulation  |
\*---------------------------------------------------------------------------*/
FoamFile
{
    format      ascii;
    class       volVectorField;
    location    "45";
    object      U;
}
// * * * * * * * * * * * * * * * * * * * * * * * * * * * * * * * * * * * * * //

dimensions      [0 1 -1 0 0 0 0];

internalField   nonuniform List<vector> 
8800
(
(0.980148 -0.0915211 0)
(1.00234 -0.0587262 0)
(0.999595 -0.0321267 0)
(0.999989 -0.0165185 0)
(1.00007 -0.00883488 0)
(1.00007 -0.00508774 0)
(1.00004 -0.00298999 0)
(1.00002 -0.00168641 0)
(0.999997 -0.000789721 0)
(1.00006 -9.52922e-05 0)
(0.999987 0.000608871 0)
(0.999995 0.00135922 0)
(1.00001 0.00238404 0)
(1.00002 0.00399371 0)
(1.00003 0.00674671 0)
(0.999987 0.0120498 0)
(0.999788 0.0230952 0)
(0.99903 0.0431585 0)
(1.00723 0.0790273 0)
(0.775023 0.0478395 0)
(0.358979 -0.014749 0)
(1.04649 -0.0724906 0)
(1.08848 -0.0660291 0)
(1.04945 -0.0509244 0)
(1.02554 -0.0377054 0)
(1.01272 -0.0258988 0)
(1.00655 -0.0167088 0)
(1.00362 -0.0102293 0)
(1.00218 -0.00560372 0)
(1.00151 -0.00201578 0)
(1.00138 0.00119235 0)
(1.00173 0.00449784 0)
(1.0027 0.00838639 0)
(1.00473 0.0137044 0)
(1.00896 0.0213941 0)
(1.01794 0.0318932 0)
(1.03578 0.0446667 0)
(1.0674 0.0581086 0)
(1.0947 0.0699645 0)
(0.845636 0.0555067 0)
(0.217771 -0.00138166 0)
(1.07566 -0.0506645 0)
(1.09941 -0.0489506 0)
(1.06438 -0.0400371 0)
(1.03988 -0.0325782 0)
(1.02377 -0.0253678 0)
(1.014 -0.0181613 0)
(1.0085 -0.0115473 0)
(1.00565 -0.00579496 0)
(1.00448 -0.000510876 0)
(1.00479 0.0045941 0)
(1.00664 0.00987848 0)
(1.01056 0.0158517 0)
(1.01787 0.0226197 0)
(1.03049 0.0297353 0)
(1.05048 0.0368273 0)
(1.08003 0.044604 0)
(1.10565 0.0519311 0)
(0.943278 0.0410075 0)
(0.217207 0.00140475 0)
(0.176616 -0.000629252 0)
(1.01936 -0.0354764 0)
(1.10569 -0.0414307 0)
(1.07795 -0.0364202 0)
(1.05241 -0.0303795 0)
(1.03518 -0.0245098 0)
(1.02333 -0.0187264 0)
(1.01553 -0.0127374 0)
(1.01093 -0.00665017 0)
(1.0089 -0.000419766 0)
(1.00944 0.00573168 0)
(1.01252 0.0116419 0)
(1.01847 0.0174154 0)
(1.02805 0.0230061 0)
(1.04226 0.0285667 0)
(1.06308 0.0343537 0)
(1.09385 0.0402407 0)
(1.09443 0.0417689 0)
(0.830233 0.0227715 0)
(0.175652 0.000647624 0)
(0.154695 -0.000463148 0)
(0.958106 -0.0257066 0)
(1.10436 -0.0351437 0)
(1.08804 -0.032703 0)
(1.0612 -0.0282031 0)
(1.04316 -0.0232519 0)
(1.03078 -0.0179656 0)
(1.0222 -0.0124344 0)
(1.01666 -0.00653598 0)
(1.01402 -9.54974e-05 0)
(1.01467 0.00635435 0)
(1.01846 0.0122203 0)
(1.02523 0.0175409 0)
(1.03537 0.0225617 0)
(1.05012 0.0274003 0)
(1.07205 0.0318513 0)
(1.10101 0.0357356 0)
(1.06971 0.0339518 0)
(0.742616 0.0144439 0)
(0.153253 0.000483763 0)
(0.139996 -0.000335272 0)
(0.901039 -0.0193467 0)
(1.09673 -0.0302622 0)
(1.09615 -0.0294005 0)
(1.06888 -0.0256324 0)
(1.05005 -0.0215639 0)
(1.0371 -0.0168817 0)
(1.02813 -0.0116466 0)
(1.02221 -0.00594131 0)
(1.01924 0.000397552 0)
(1.01987 0.00675928 0)
(1.02388 0.0124 0)
(1.0309 0.0173857 0)
(1.0414 0.0218761 0)
(1.05679 0.0258401 0)
(1.07959 0.0293693 0)
(1.10334 0.0320937 0)
(1.03798 0.028101 0)
(0.675872 0.0102933 0)
(0.137968 0.000359741 0)
(0.12924 -0.000253963 0)
(0.851093 -0.0149544 0)
(1.08432 -0.0261748 0)
(1.10179 -0.0265439 0)
(1.07567 -0.023242 0)
(1.05633 -0.019606 0)
(1.04296 -0.0154314 0)
(1.03363 -0.0105947 0)
(1.02743 -0.00512564 0)
(1.02425 0.00101812 0)
(1.02478 0.00715754 0)
(1.02881 0.0125141 0)
(1.03599 0.0170803 0)
(1.04678 0.0209637 0)
(1.06255 0.0243249 0)
(1.0858 0.0273861 0)
(1.10262 0.0292248 0)
(1.00339 0.0235404 0)
(0.623936 0.00788432 0)
(0.126499 0.000283689 0)
(0.121034 -0.000195265 0)
(0.80851 -0.0117726 0)
(1.06893 -0.022593 0)
(1.10526 -0.0239398 0)
(1.08187 -0.0210994 0)
(1.06207 -0.0177011 0)
(1.04843 -0.0138185 0)
(1.03885 -0.00931173 0)
(1.03239 -0.00412799 0)
(1.02899 0.00176734 0)
(1.02937 0.00762604 0)
(1.03338 0.0126245 0)
(1.04062 0.0167371 0)
(1.05152 0.0201597 0)
(1.06754 0.0231241 0)
(1.0912 0.0258715 0)
(1.09902 0.0268038 0)
(0.968447 0.0199387 0)
(0.582328 0.00630763 0)
(0.117425 0.000231444 0)
(0.114663 -0.000150748 0)
(0.772575 -0.00939141 0)
(1.05197 -0.0194372 0)
(1.10752 -0.02153 0)
(1.08765 -0.0190847 0)
(1.06745 -0.0158562 0)
(1.05357 -0.012152 0)
(1.0438 -0.0078684 0)
(1.03713 -0.00294763 0)
(1.03348 0.00267115 0)
(1.03368 0.0082108 0)
(1.03758 0.0128213 0)
(1.04477 0.0165283 0)
(1.0557 0.0195836 0)
(1.07197 0.0222159 0)
(1.09534 0.0246244 0)
(1.09267 0.0247705 0)
(0.934518 0.0171325 0)
(0.548055 0.0052196 0)
(0.109997 0.000194922 0)
(0.109679 -0.0001157 0)
(0.742368 -0.00754634 0)
(1.03452 -0.0166386 0)
(1.10881 -0.0192646 0)
(1.09313 -0.0171385 0)
(1.07263 -0.0140178 0)
(1.05847 -0.0104317 0)
(1.04852 -0.00629738 0)
(1.04165 -0.00157186 0)
(1.03775 0.00376375 0)
(1.0377 0.0089487 0)
(1.0414 0.0131819 0)
(1.04847 0.0165266 0)
(1.05943 0.0192419 0)
(1.07594 0.0215829 0)
(1.09826 0.0236405 0)
(1.08397 0.0230554 0)
(0.902235 0.0149651 0)
(0.519083 0.00444864 0)
(0.10373 0.000169254 0)
(0.105791 -8.68338e-05 0)
(0.717072 -0.00605993 0)
(1.01739 -0.0141223 0)
(1.10921 -0.0170808 0)
(1.09846 -0.0152706 0)
(1.07769 -0.0121947 0)
(1.06324 -0.00866287 0)
(1.05309 -0.00461072 0)
(1.04598 -2.72604e-05 0)
(1.04179 0.00507006 0)
(1.04144 0.00993357 0)
(1.04488 0.0138107 0)
(1.05179 0.0168104 0)
(1.06273 0.0192089 0)
(1.07944 0.0212756 0)
(1.09984 0.0229234 0)
(1.0733 0.0216469 0)
(0.871761 0.0133195 0)
(0.493973 0.00390309 0)
(0.0982791 0.000152085 0)
(0.102807 -6.17504e-05 0)
(0.696056 -0.00481164 0)
(1.00123 -0.0118175 0)
(1.10889 -0.0149126 0)
(1.10358 -0.0133195 0)
(1.08271 -0.010233 0)
(1.06796 -0.00671412 0)
(1.05754 -0.00271646 0)
(1.05016 0.0017597 0)
(1.04563 0.00665031 0)
(1.04488 0.0112039 0)
(1.04799 0.0147285 0)
(1.05471 0.017371 0)
(1.06564 0.0194338 0)
(1.08252 0.0212333 0)
(1.10047 0.0224771 0)
(1.06102 0.0205448 0)
(0.843009 0.0121027 0)
(0.47167 0.00352552 0)
(0.0933932 0.000141567 0)
(0.100605 -3.89631e-05 0)
(0.678844 -0.00371351 0)
(0.986478 -0.00965577 0)
(1.10807 -0.0127045 0)
(1.1085 -0.0112654 0)
(1.08777 -0.00816328 0)
(1.07265 -0.00460389 0)
(1.06193 -0.000584984 0)
(1.0542 0.00383728 0)
(1.04923 0.00855781 0)
(1.04802 0.0128144 0)
(1.05075 0.0159838 0)
(1.05723 0.0182691 0)
(1.06812 0.0199953 0)
(1.08512 0.0215188 0)
(1.10011 0.0224159 0)
(1.04734 0.0197559 0)
(0.815722 0.0112394 0)
(0.451364 0.00327679 0)
(0.0888764 0.000136322 0)
(0.0991213 -1.67958e-05 0)
(0.665136 -0.00269692 0)
(0.973505 -0.00756321 0)
(1.107 -0.01038 0)
(1.11328 -0.00902368 0)
(1.09292 -0.00588797 0)
(1.07742 -0.00222913 0)
(1.06634 0.00186513 0)
(1.05818 0.0062791 0)
(1.05266 0.0108754 0)
(1.05088 0.0148615 0)
(1.05316 0.0176755 0)
(1.05935 0.0195982 0)
(1.07019 0.0209691 0)
(1.08723 0.0221727 0)
(1.09863 0.0226172 0)
(1.03238 0.0192409 0)
(0.789569 0.0106632 0)
(0.432417 0.0031283 0)
(0.0845728 0.000135143 0)
(0.0983394 7.08259e-06 0)
(0.654793 -0.00170831 0)
(0.962656 -0.00546768 0)
(1.10605 -0.00786705 0)
(1.11806 -0.00647948 0)
(1.09824 -0.00324382 0)
(1.08233 0.000565156 0)
(1.0708 0.0047619 0)
(1.06211 0.00921147 0)
(1.05593 0.0137008 0)
(1.05345 0.0173893 0)
(1.05518 0.0198056 0)
(1.06103 0.0212929 0)
(1.07178 0.0222535 0)
(1.08881 0.0231641 0)
(1.09597 0.0231558 0)
(1.01624 0.0190433 0)
(0.7642 0.0103531 0)
(0.414311 0.0030694 0)
(0.0803613 0.000138037 0)
(0.0982889 2.91804e-05 0)
(0.647831 -0.00069825 0)
(0.954247 -0.00328927 0)
(1.10558 -0.0051101 0)
(1.12304 -0.00361209 0)
(1.10382 -0.000242951 0)
(1.08743 0.00377499 0)
(1.07539 0.00816023 0)
(1.06606 0.0127149 0)
(1.05908 0.0171345 0)
(1.05575 0.0205359 0)
(1.0568 0.0225517 0)
(1.06221 0.0236009 0)
(1.07286 0.0241073 0)
(1.08967 0.024602 0)
(1.09196 0.024071 0)
(0.998854 0.0191683 0)
(0.739209 0.0102787 0)
(0.396584 0.0030883 0)
(0.0761228 0.000144287 0)
(0.0989966 6.58813e-05 0)
(0.644341 0.000348169 0)
(0.948609 -0.000954827 0)
(1.10588 -0.00200903 0)
(1.12832 -0.000305513 0)
(1.10972 0.00325181 0)
(1.09283 0.00757404 0)
(1.08014 0.0122287 0)
(1.07 0.0169406 0)
(1.06201 0.0213263 0)
(1.05767 0.0244287 0)
(1.05792 0.0259761 0)
(1.06284 0.026514 0)
(1.07334 0.0265435 0)
(1.0896 0.0265838 0)
(1.08641 0.025382 0)
(0.98012 0.0196217 0)
(0.714184 0.0104346 0)
(0.378811 0.00318212 0)
(0.071753 0.000153747 0)
(0.100688 9.5189e-05 0)
(0.644709 0.00153267 0)
(0.946096 0.00160627 0)
(1.10743 0.00156214 0)
(1.13412 0.00361922 0)
(1.11609 0.00751491 0)
(1.09862 0.0122028 0)
(1.08517 0.0171657 0)
(1.07406 0.0220835 0)
(1.06484 0.0264391 0)
(1.05924 0.0292071 0)
(1.05851 0.0302161 0)
(1.06283 0.030166 0)
(1.07313 0.0296305 0)
(1.08842 0.0291486 0)
(1.07918 0.0271507 0)
(0.959874 0.0204606 0)
(0.688662 0.0108269 0)
(0.360576 0.00335004 0)
(0.0671517 0.000166387 0)
(0.103411 0.00014232 0)
(0.649346 0.00300047 0)
(0.947198 0.00454438 0)
(1.11073 0.00562792 0)
(1.1407 0.00818246 0)
(1.12306 0.0125485 0)
(1.10489 0.017717 0)
(1.09052 0.0231214 0)
(1.07821 0.0283367 0)
(1.06749 0.0326775 0)
(1.06037 0.0350454 0)
(1.05849 0.0354495 0)
(1.06204 0.0347374 0)
(1.0721 0.0335746 0)
(1.08599 0.0324504 0)
(1.07006 0.029482 0)
(0.937796 0.0217067 0)
(0.662148 0.0114609 0)
(0.341465 0.00359204 0)
(0.0622187 0.000181837 0)
(0.107447 0.000203457 0)
(0.658719 0.00469147 0)
(0.952367 0.00801445 0)
(1.11618 0.0104362 0)
(1.14821 0.0136313 0)
(1.13082 0.018614 0)
(1.11187 0.0244178 0)
(1.09635 0.0303864 0)
(1.08253 0.0359523 0)
(1.06999 0.0402879 0)
(1.06103 0.0421874 0)
(1.05776 0.0418618 0)
(1.06038 0.0403909 0)
(1.07009 0.0385251 0)
(1.08213 0.036639 0)
(1.0587 0.0324708 0)
(0.913529 0.0234472 0)
(0.634072 0.0123678 0)
(0.321028 0.00391211 0)
(0.0568583 0.000199908 0)
(0.113124 0.00028614 0)
(0.673505 0.00680397 0)
(0.962296 0.0121907 0)
(1.12441 0.0162021 0)
(1.15705 0.0203301 0)
(1.13961 0.0261883 0)
(1.11964 0.0327528 0)
(1.10264 0.0393664 0)
(1.08692 0.0453154 0)
(1.07213 0.049563 0)
(1.06103 0.0508282 0)
(1.05614 0.0496227 0)
(1.05766 0.047248 0)
(1.06692 0.0445724 0)
(1.07671 0.0418216 0)
(1.04474 0.0362777 0)
(0.886564 0.0257503 0)
(0.60377 0.0135557 0)
(0.298805 0.00430346 0)
(0.0509841 0.00021913 0)
(0.120947 0.000403267 0)
(0.694708 0.00956136 0)
(0.977801 0.0173726 0)
(1.1361 0.0232218 0)
(1.1678 0.0285363 0)
(1.14976 0.0355348 0)
(1.12844 0.043042 0)
(1.10958 0.0504231 0)
(1.09156 0.0567759 0)
(1.07406 0.0608351 0)
(1.0604 0.0613017 0)
(1.05356 0.0590098 0)
(1.0538 0.0555842 0)
(1.06247 0.0519618 0)
(1.06949 0.0482458 0)
(1.0277 0.0410332 0)
(0.856247 0.0286864 0)
(0.57049 0.0150411 0)
(0.274334 0.0047544 0)
(0.0445438 0.000236715 0)
(0.131693 0.000577958 0)
(0.723606 0.0132695 0)
(0.999929 0.0239852 0)
(1.15187 0.0319901 0)
(1.18094 0.0387678 0)
(1.16158 0.0472382 0)
(1.13839 0.0559431 0)
(1.11707 0.0642132 0)
(1.09605 0.0708753 0)
(1.07526 0.0744992 0)
(1.05868 0.0738663 0)
(1.04971 0.0702798 0)
(1.04858 0.0656417 0)
(1.05656 0.0608918 0)
(1.06011 0.0559467 0)
(1.00695 0.0469127 0)
(0.821801 0.032382 0)
(0.53334 0.0168494 0)
(0.247144 0.00525196 0)
(0.0375304 0.000250299 0)
(0.146581 0.000852436 0)
(0.762096 0.018567 0)
(1.03025 0.0328113 0)
(1.17264 0.0434784 0)
(1.19721 0.0522311 0)
(1.17548 0.0625327 0)
(1.1497 0.0725622 0)
(1.1251 0.0815692 0)
(1.10041 0.0881929 0)
(1.07579 0.0909213 0)
(1.05586 0.0887555 0)
(1.04452 0.0835539 0)
(1.0419 0.0775547 0)
(1.04889 0.0715202 0)
(1.048 0.0653047 0)
(0.981793 0.0540989 0)
(0.782268 0.0369141 0)
(0.491342 0.0189566 0)
(0.216851 0.00576391 0)
(0.0299873 0.000257888 0)
(0.167737 0.0013252 0)
(0.813245 0.0266134 0)
(1.07142 0.0454022 0)
(1.19962 0.0594921 0)
(1.2174 0.0709983 0)
(1.1916 0.0830218 0)
(1.16203 0.0941511 0)
(1.13316 0.103377 0)
(1.10401 0.109331 0)
(1.07501 0.11049 0)
(1.05151 0.106236 0)
(1.0377 0.0990107 0)
(1.03358 0.0913662 0)
(1.03921 0.0841899 0)
(1.03272 0.0764833 0)
(0.951307 0.0626512 0)
(0.736565 0.0422146 0)
(0.443693 0.0212364 0)
(0.183425 0.006226 0)
(0.0220573 0.00025626 0)
(0.198516 0.00237761 0)
(0.882638 0.0401649 0)
(1.12662 0.0656132 0)
(1.23324 0.0834888 0)
(1.24132 0.0976819 0)
(1.20932 0.110875 0)
(1.17459 0.122202 0)
(1.1405 0.130617 0)
(1.10627 0.13487 0)
(1.07254 0.133513 0)
(1.04533 0.126455 0)
(1.02907 0.116837 0)
(1.02345 0.107362 0)
(1.02744 0.0988302 0)
(1.01367 0.0892911 0)
(0.914274 0.0722348 0)
(0.683742 0.0479044 0)
(0.390558 0.0234761 0)
(0.147913 0.00658472 0)
(0.0141511 0.00023941 0)
(0.24043 0.00859 4.64283e-20)
(0.974258 0.0673563 4.05379e-20)
(1.19356 0.0996424 -1.41633e-20)
(1.27047 0.119101 0)
(1.26622 0.135871 -3.60332e-34)
(1.22666 0.148434 5.26462e-21)
(1.18599 0.158311 -9.46978e-21)
(1.14612 0.164602 0)
(1.10636 0.166123 1.9392e-34)
(1.06751 0.161499 -1.16686e-20)
(1.03627 0.151205 0)
(1.01725 0.139051 -1.38192e-20)
(1.00999 0.127778 -4.07344e-20)
(1.01206 0.118085 -1.92427e-20)
(0.988506 0.106878 -5.78695e-21)
(0.866336 0.0854236 -3.4386e-21)
(0.617749 0.0552521 0)
(0.329367 0.0262646 2.40906e-21)
(0.111002 0.00749163 2.84524e-21)
(0.00670623 0.000362116 5.11992e-20)
(0.269678 0.0239753 3.40428e-20)
(1.04968 0.109912 5.21732e-22)
(1.24832 0.148341 3.78679e-21)
(1.30395 0.16788 0)
(1.28804 0.184409 -1.83616e-20)
(1.24152 0.194903 -2.08408e-20)
(1.1949 0.202601 -9.57927e-21)
(1.14901 0.206496 -3.40703e-20)
(1.10332 0.205224 0)
(1.05865 0.197343 4.98241e-20)
(1.02245 0.183772 4.93703e-20)
(0.99998 0.168961 1.46779e-20)
(0.99027 0.155658 5.34336e-20)
(0.987378 0.14402 7.49975e-20)
(0.950439 0.129599 0)
(0.802811 0.102165 1.05833e-19)
(0.540795 0.0642761 1.51979e-19)
(0.265898 0.0296479 1.68884e-19)
(0.07632 0.00817278 -1.93183e-19)
(-0.000117233 9.35495e-05 -3.62686e-21)
(0.270648 0.0396712 0)
(1.09719 0.165193 6.0241e-21)
(1.28513 0.208337 0)
(1.32996 0.227457 -2.39829e-20)
(1.30511 0.240857 0)
(1.25275 0.24765 -4.10636e-20)
(1.20049 0.251754 1.96199e-20)
(1.14886 0.252152 -6.87352e-20)
(1.09747 0.247331 -1.5636e-21)
(1.04721 0.235818 2.58631e-20)
(1.00621 0.219041 1.08897e-19)
(0.980228 0.201814 -2.90076e-22)
(0.967974 0.186638 -3.89219e-20)
(0.960453 0.172793 -7.1003e-20)
(0.914761 0.15456 8.41368e-20)
(0.75755 0.120431 -1.49034e-19)
(0.499132 0.0748746 -1.97201e-20)
(0.240561 0.0346306 0)
(0.0661062 0.00932378 -7.42081e-25)
(-0.00204826 -0.000263105 0)
(0.264436 0.0533041 7.84099e-20)
(1.12278 0.223838 -3.83925e-20)
(1.308 0.273017 -2.96632e-20)
(1.34713 0.29226 1.1347e-20)
(1.31602 0.301733 -1.91155e-20)
(1.25922 0.304181 8.62567e-20)
(1.20228 0.303989 4.10619e-20)
(1.14568 0.300303 0)
(1.08923 0.291531 -1.29963e-19)
(1.03389 0.27615 0)
(0.988405 0.255994 -5.73224e-20)
(0.958956 0.236167 -7.07307e-20)
(0.943611 0.218942 -4.25325e-20)
(0.932009 0.202909 -5.17231e-20)
(0.882493 0.181362 0)
(0.726266 0.141494 0)
(0.480172 0.0894843 -1.29057e-19)
(0.238296 0.0432718 2.55441e-20)
(0.0691811 0.0123329 -1.49493e-20)
(-0.00138467 -0.000269889 -1.74803e-20)
(0.257198 0.0654222 -3.09303e-20)
(1.13411 0.28239 0)
(1.32074 0.338733 6.05319e-20)
(1.35645 0.358491 3.19743e-20)
(1.32088 0.364092 4.43171e-20)
(1.26076 0.36214 0)
(1.20014 0.357579 4.02518e-20)
(1.13948 0.34972 7.63585e-20)
(1.0787 0.336877 6.66808e-20)
(1.01879 0.317374 1.22396e-19)
(0.969119 0.293346 0)
(0.936374 0.270498 -1.52927e-19)
(0.918255 0.251269 -9.21551e-20)
(0.903795 0.234017 -5.44706e-20)
(0.852085 0.209998 3.35361e-19)
(0.702668 0.16539 3.99848e-20)
(0.473301 0.107679 1.88128e-19)
(0.246168 0.0549983 -8.89971e-19)
(0.0794581 0.0176646 5.2765e-19)
(0.00150686 0.000337143 -6.35928e-19)
(0.25037 0.076418 -1.41873e-20)
(1.13639 0.33901 5.62711e-21)
(1.32603 0.403529 -6.4659e-21)
(1.35947 0.424189 -3.21905e-20)
(1.32061 0.426172 -3.73318e-20)
(1.25798 0.419985 1.77671e-21)
(1.19447 0.411288 -4.36558e-20)
(1.1305 0.399421 7.90977e-20)
(1.06598 0.382565 -1.43697e-19)
(1.0019 0.358845 0)
(0.948317 0.330936 -6.93108e-20)
(0.912625 0.305417 -1.61518e-21)
(0.892377 0.284858 -1.00967e-19)
(0.875764 0.266675 0)
(0.82278 0.239416 -7.27668e-20)
(0.682146 0.190791 -1.73182e-19)
(0.47073 0.127938 4.63987e-19)
(0.256784 0.0690876 -4.56613e-19)
(0.0915981 0.0247629 6.48555e-19)
(0.00519005 0.00145797 -6.73913e-19)
(0.24474 0.0866424 -4.10774e-22)
(1.13308 0.393049 -1.662e-21)
(1.32592 0.466406 -1.727e-20)
(1.35754 0.48821 1.27513e-20)
(1.31624 0.486952 -1.87731e-20)
(1.25171 0.476845 0)
(1.1859 0.464348 -4.06123e-20)
(1.11918 0.448728 -8.28527e-20)
(1.05137 0.428006 -7.47177e-20)
(0.983531 0.400235 0)
(0.926451 0.368956 -7.1984e-20)
(0.888223 0.341533 -8.9204e-20)
(0.866095 0.319948 1.09622e-19)
(0.847002 0.299905 -6.66898e-20)
(0.792973 0.268877 -3.1805e-19)
(0.662337 0.216606 1.89835e-19)
(0.467608 0.149444 5.68867e-20)
(0.265637 0.0844026 0)
(0.102414 0.0328284 -6.27963e-19)
(0.00872355 0.00290624 -2.30324e-20)
(0.240379 0.0964053 1.17251e-21)
(1.12642 0.444311 -9.87544e-22)
(1.32187 0.526888 7.92852e-21)
(1.35184 0.549884 4.58197e-20)
(1.30867 0.545802 -6.88554e-20)
(1.24274 0.532198 8.18843e-20)
(1.17511 0.516262 8.74511e-20)
(1.10602 0.497151 -1.32366e-19)
(1.03529 0.472767 4.615e-20)
(0.964133 0.441269 -3.0138e-19)
(0.904055 0.407157 -8.1442e-20)
(0.86362 0.378062 0)
(0.839386 0.354853 1.18878e-19)
(0.817289 0.331817 1.42549e-19)
(0.762656 0.297039 1.71011e-19)
(0.641887 0.242029 -2.06331e-19)
(0.461705 0.171111 -6.11155e-20)
(0.270067 0.0998068 7.18397e-20)
(0.109831 0.0408728 0)
(0.0114346 0.00438814 -4.9975e-20)
(0.237161 0.10586 -3.52922e-20)
(1.11798 0.492899 1.5773e-20)
(1.3152 0.585261 -6.76424e-21)
(1.34336 0.608894 2.7356e-20)
(1.2987 0.602362 -3.07021e-20)
(1.23175 0.58567 -4.05352e-21)
(1.16263 0.566659 -9.55146e-20)
(1.09148 0.544317 -4.78778e-20)
(1.01817 0.516505 -1.29804e-19)
(0.944112 0.481629 2.53748e-22)
(0.881453 0.444875 -2.54763e-19)
(0.838919 0.413625 2.15113e-19)
(0.812192 0.387752 -1.30521e-19)
(0.786935 0.361029 1.57054e-19)
(0.732591 0.322941 0)
(0.620476 0.265616 -1.11739e-19)
(0.452454 0.191251 -3.72435e-22)
(0.269676 0.113735 -3.12603e-19)
(0.113014 0.047814 -4.60174e-20)
(0.0130125 0.00560635 0)
(0.234944 0.115123 0)
(1.1087 0.539014 2.04106e-20)
(1.30655 0.640718 -2.95921e-21)
(1.33287 0.665092 -2.44658e-20)
(1.28698 0.656425 -3.92891e-20)
(1.21928 0.637032 0)
(1.14894 0.615256 -4.32183e-20)
(1.07598 0.589932 -1.13625e-21)
(1.00039 0.558974 2.7791e-19)
(0.923769 0.520998 -4.13228e-20)
(0.858742 0.481443 -1.83874e-19)
(0.814045 0.447283 1.11785e-19)
(0.784601 0.417944 -2.1257e-21)
(0.756475 0.387556 1.66752e-19)
(0.702899 0.346806 1.03158e-19)
(0.597906 0.287423 -2.41193e-19)
(0.440062 0.209277 2.85948e-19)
(0.264679 0.125434 8.45952e-20)
(0.112106 0.0530376 3.48713e-19)
(0.0135273 0.0064262 -9.3304e-19)
(0.233659 0.124326 -1.60051e-20)
(1.09919 0.582835 1.89924e-20)
(1.29681 0.693279 -1.07203e-20)
(1.32099 0.718444 1.7907e-20)
(1.27407 0.707876 0)
(1.2058 0.686119 -3.70602e-20)
(1.13443 0.661852 1.45061e-19)
(1.05987 0.633802 1.04607e-19)
(0.982241 0.599994 0)
(0.903282 0.559123 -5.94463e-19)
(0.83592 0.516453 4.96555e-19)
(0.788956 0.478748 0)
(0.756862 0.445621 1.5213e-19)
(0.726444 0.411982 -2.09413e-21)
(0.673844 0.369079 -3.28729e-19)
(0.574221 0.307101 1.28863e-19)
(0.42434 0.224566 0)
(0.255349 0.134318 4.55868e-19)
(0.107832 0.0561502 0)
(0.0130068 0.00670841 -4.40798e-19)
(0.233115 0.133528 2.05026e-20)
(1.08993 0.624453 2.83128e-20)
(1.28614 0.743018 -9.71818e-21)
(1.30823 0.76893 0)
(1.2604 0.756682 -3.23459e-20)
(1.19169 0.732847 0)
(1.11944 0.706322 -1.42678e-19)
(1.04346 0.675813 -4.84083e-20)
(0.963994 0.639469 4.88342e-20)
(0.882796 0.59586 -2.93828e-19)
(0.812996 0.549803 5.12111e-20)
(0.763663 0.508191 0)
(0.729149 0.471271 -3.24417e-19)
(0.697028 0.434706 2.08833e-21)
(0.64529 0.389553 0)
(0.549513 0.324242 1.86648e-21)
(0.405503 0.236524 4.15649e-19)
(0.242165 0.139931 -3.93485e-19)
(0.100609 0.0572024 1.15884e-19)
(0.011726 0.0065389 0)
(0.232982 0.142585 0)
(1.08107 0.664 3.65426e-20)
(1.27495 0.790083 1.97707e-20)
(1.29498 0.816586 -2.42673e-21)
(1.24632 0.80285 -1.01542e-20)
(1.17727 0.777172 -8.25934e-20)
(1.10423 0.748613 5.34271e-20)
(1.027 0.71592 -5.71273e-20)
(0.94586 0.677352 2.17797e-19)
(0.86243 0.631169 -4.68584e-19)
(0.790019 0.581593 -3.53715e-21)
(0.738218 0.535962 -1.41961e-19)
(0.701527 0.495352 5.25786e-19)
(0.668112 0.455963 -2.43961e-21)
(0.616907 0.408093 -2.54239e-19)
(0.523632 0.338653 -4.54676e-19)
(0.38405 0.245149 0)
(0.22571 0.142272 0)
(0.0910992 0.0562124 1.25154e-19)
(0.0100126 0.00599397 -7.33358e-20)
(0.23339 0.151636 3.16346e-20)
(1.07264 0.701327 -8.58427e-20)
(1.26356 0.834534 -2.14532e-20)
(1.28154 0.861494 0)
(1.2321 0.84642 -1.5708e-21)
(1.16276 0.819091 -7.45764e-20)
(1.08906 0.788715 1.28321e-19)
(1.01072 0.754124 2.24225e-19)
(0.928017 0.713646 2.82446e-19)
(0.842312 0.665076 -3.82096e-19)
(0.767092 0.612025 -4.25028e-19)
(0.712685 0.562435 3.79331e-19)
(0.673977 0.518204 0)
(0.639491 0.475844 -1.15263e-19)
(0.588455 0.424687 -2.74908e-19)
(0.496601 0.350342 -3.26175e-19)
(0.36023 0.25029 -3.87135e-19)
(0.20661 0.141346 1.14448e-19)
(0.0797335 0.0531661 -6.73251e-20)
(0.00791849 0.00506534 2.52235e-22)
(0.233882 0.160568 0)
(1.06479 0.73694 0)
(1.25215 0.876478 2.5929e-21)
(1.26809 0.903757 0)
(1.21795 0.88747 1.9771e-20)
(1.14837 0.858651 4.96517e-20)
(1.07411 0.826659 0)
(0.994796 0.790452 2.64701e-20)
(0.910617 0.748367 4.70138e-19)
(0.822582 0.697648 -8.77568e-19)
(0.744345 0.641327 0)
(0.687144 0.587933 -2.4365e-19)
(0.646428 0.540043 -2.96144e-21)
(0.610938 0.494339 -2.37126e-21)
(0.5598 0.439159 2.93306e-19)
(0.468585 0.359021 -3.42279e-22)
(0.334052 0.2517 -8.32572e-19)
(0.185392 0.137068 2.46007e-19)
(0.0676034 0.0484888 7.26907e-20)
(0.00572067 0.00389787 0)
(0.234388 0.169317 -1.33687e-19)
(1.05724 0.770828 -6.21836e-20)
(1.24076 0.915976 -7.43651e-20)
(1.25478 0.943477 5.20374e-20)
(1.20402 0.926064 1.90265e-20)
(1.13426 0.895909 0)
(1.05952 0.862502 7.66452e-20)
(0.979361 0.824952 -5.8906e-20)
(0.893784 0.781552 3.84943e-21)
(0.803384 0.728967 6.45807e-20)
(0.72193 0.669701 5.48773e-19)
(0.661679 0.612725 -8.53859e-20)
(0.618792 0.561059 -3.23019e-19)
(0.582177 0.511411 -1.33952e-19)
(0.53072 0.451218 1.59463e-19)
(0.439715 0.364278 -1.55921e-22)
(0.306708 0.249231 2.24192e-19)
(0.16342 0.129896 -5.28777e-19)
(0.0554307 0.0426244 6.25039e-19)
(0.0035744 0.00260695 9.11354e-20)
(0.234747 0.177766 5.18942e-20)
(1.05003 0.803103 -3.58409e-20)
(1.22954 0.953138 6.25169e-21)
(1.24173 0.980778 3.99987e-20)
(1.19043 0.962306 2.76786e-21)
(1.12053 0.930938 -8.50224e-20)
(1.04542 0.896311 2.19011e-20)
(0.964522 0.857667 -2.4494e-19)
(0.877629 0.81322 -5.15936e-19)
(0.784845 0.759087 -5.21485e-19)
(0.700007 0.697309 0)
(0.636389 0.637036 -3.74211e-19)
(0.590984 0.581457 4.6479e-19)
(0.552875 0.527069 0)
(0.500874 0.460537 -3.41068e-19)
(0.410083 0.365593 2.03897e-19)
(0.27899 0.24265 -2.40696e-19)
(0.141991 0.120262 -2.84357e-19)
(0.0441146 0.0361376 -5.03125e-19)
(0.00165271 0.00132589 -3.92231e-19)
(0.235414 0.186055 -5.97702e-20)
(1.043 0.833743 3.83729e-20)
(1.21852 0.988034 8.59195e-20)
(1.22901 1.01574 6.2473e-20)
(1.17725 0.996288 -2.14736e-21)
(1.10727 0.963833 -4.40498e-20)
(1.03189 0.928156 7.31299e-20)
(0.950359 0.888655 -2.50729e-19)
(0.862224 0.84341 -3.04806e-19)
(0.767087 0.788065 5.44364e-19)
(0.678731 0.724266 1.20201e-18)
(0.611395 0.661055 0)
(0.562952 0.601475 0)
(0.522649 0.541466 -1.54092e-19)
(0.469681 0.466827 0)
(0.379544 0.362083 4.38523e-19)
(0.251974 0.231226 5.1763e-19)
(0.123007 0.108329 0)
(0.0349157 0.0296188 0)
(0.000110392 0.000232181 4.21255e-19)
(0.235711 0.193877 6.92095e-20)
(1.03619 0.862743 5.56096e-20)
(1.20777 1.02078 6.30723e-20)
(1.21666 1.0485 -6.52058e-20)
(1.16455 1.02812 -9.79463e-21)
(1.09454 0.99468 4.26864e-20)
(1.01898 0.958116 -9.96728e-20)
(0.936925 0.917957 -3.13182e-23)
(0.84764 0.87214 -4.99297e-21)
(0.750207 0.815928 -5.27617e-21)
(0.658267 0.750641 6.18325e-19)
(0.586855 0.684927 0)
(0.534725 0.621389 4.6893e-19)
(0.491148 0.554933 3.28142e-19)
(0.436236 0.470088 7.94823e-19)
(0.347322 0.352615 2.35838e-19)
(0.226601 0.212817 -2.78792e-19)
(0.110234 0.0920772 -1.63711e-19)
(0.0327226 0.0222658 0)
(0.0005045 -0.000111122 4.52374e-19)
(0.236299 0.201692 -1.58615e-19)
(1.02957 0.890197 0)
(1.19726 1.05144 7.69875e-20)
(1.20472 1.07912 -5.73135e-20)
(1.15237 1.05789 2.20523e-20)
(1.08237 1.02357 -4.08936e-20)
(1.00674 0.986261 1.90741e-19)
(0.924252 0.945619 -2.08098e-20)
(0.833915 0.899429 0)
(0.73429 0.842669 -5.98421e-19)
(0.63877 0.776455 -1.34109e-18)
(0.562961 0.708773 5.49216e-20)
(0.506458 0.641475 6.44752e-19)
(0.458174 0.567983 0)
(0.399403 0.470954 5.35676e-19)
(0.31115 0.336545 0)
(0.201073 0.182958 0)
(0.107109 0.0593567 -1.77187e-19)
(0.0574098 0.00305091 0)
(0.0277262 0.0114465 1.21189e-19)
(0.236502 0.208892 -1.79436e-19)
(1.02312 0.916456 0)
(1.18701 1.08021 1.30383e-19)
(1.19312 1.10785 0)
(1.14067 1.08586 -1.62244e-20)
(1.07072 1.05081 0)
(0.995114 1.01291 9.01825e-21)
(0.912247 0.971985 3.41389e-20)
(0.820936 0.925648 3.79984e-20)
(0.719191 0.868693 -6.55045e-19)
(0.620098 0.802145 4.01531e-20)
(0.539537 0.733181 4.41376e-19)
(0.477829 0.66242 6.28135e-19)
(0.422973 0.581426 8.47791e-20)
(0.357318 0.47104 4.193e-19)
(0.266421 0.31525 0)
(0.163986 0.139368 5.88418e-19)
(0.0855115 0.00412909 -3.44693e-19)
(0.0434876 0.0447365 3.99378e-19)
(-0.0690811 0.43314 -4.70882e-19)
(0.236682 0.215879 1.49883e-19)
(1.0166 0.941314 2.27987e-19)
(1.17692 1.10741 0)
(1.18175 1.13512 5.15278e-21)
(1.12926 1.11262 5.3146e-20)
(1.05933 1.07707 3.3117e-20)
(0.983793 1.03888 6.43616e-20)
(0.900515 0.997993 0)
(0.808196 0.951887 2.50867e-19)
(0.704267 0.89529 -3.4076e-20)
(0.601354 0.829144 0)
(0.515411 0.759845 0)
(0.447223 0.685906 5.60954e-19)
(0.383632 0.596451 -2.61737e-19)
(0.306936 0.472763 -4.2369e-19)
(0.208234 0.29342 0)
(0.0952833 0.133603 2.96361e-19)
(0.00578853 0.438704 -3.43166e-19)
(0.0346471 1.88343 -1.87888e-19)
(0.0642248 2.80798 -2.4022e-19)
(0.236694 0.222021 -1.14006e-19)
(1.01023 0.964946 -2.95388e-19)
(1.16701 1.13302 7.9142e-20)
(1.17059 1.16079 6.16066e-20)
(1.11818 1.13794 0)
(1.04827 1.10208 1.14416e-20)
(0.972971 1.06384 8.51508e-20)
(0.889237 1.02322 -1.63495e-20)
(0.79595 0.977633 3.73724e-20)
(0.689893 0.921865 6.22128e-19)
(0.58314 0.856811 6.74154e-19)
(0.491549 0.788377 4.91186e-19)
(0.415606 0.711826 5.62331e-19)
(0.341908 0.611876 -6.11877e-19)
(0.254162 0.479153 -6.37835e-19)
(0.13774 0.325319 0)
(0.0480677 0.829537 0)
(0.104357 2.54732 1.6347e-19)
(0.105274 3.1985 0)
(0.108273 3.38697 3.90904e-19)
(0.239254 0.227628 0)
(1.00459 0.987536 0)
(1.15706 1.15689 0)
(1.15941 1.18465 1.93663e-20)
(1.10713 1.16158 5.08711e-20)
(1.03731 1.12572 -5.44913e-21)
(0.962543 1.08772 5.35355e-20)
(0.878368 1.04756 -1.58486e-20)
(0.784164 1.00276 3.10929e-19)
(0.676102 0.948282 -9.59685e-21)
(0.565614 0.885049 1.3279e-18)
(0.468317 0.818635 -5.648e-20)
(0.383298 0.741117 6.78896e-20)
(0.300341 0.625212 8.82e-20)
(0.191802 0.495495 -3.30699e-21)
(0.106529 0.962482 1.82158e-21)
(0.144365 2.71104 -8.54114e-19)
(0.153677 3.29079 -3.21935e-19)
(0.141763 3.42619 1.66695e-19)
(0.128166 3.44865 -1.85242e-19)
(0.156915 0.184009 6.85775e-20)
(0.99358 1.01184 0)
(1.14675 1.17929 -1.64166e-19)
(1.14876 1.20715 -1.70599e-19)
(1.09692 1.18437 1.32345e-19)
(1.02737 1.14866 1.11842e-20)
(0.952488 1.11055 -5.34515e-20)
(0.868039 1.07111 1.72428e-19)
(0.773032 1.02739 -2.53373e-19)
(0.663196 0.974685 0)
(0.549177 0.914058 6.50699e-19)
(0.44632 0.850505 -3.99074e-19)
(0.350767 0.776799 0)
(0.255549 0.640259 8.17413e-20)
(0.156727 0.788686 1.95868e-19)
(0.159147 2.47898 -2.31402e-19)
(0.219527 3.32336 2.60275e-19)
(0.198239 3.44071 1.40145e-19)
(0.164483 3.46227 1.58389e-19)
(0.142055 3.47252 2.5083e-19)
(0.282377 0.26619 -1.24366e-19)
(0.978272 1.02164 0)
(1.12847 1.20448 1.80481e-19)
(1.1341 1.23952 1.94352e-19)
(1.0802 1.21744 -1.54571e-19)
(1.01014 1.18204 -3.56415e-20)
(0.934445 1.14558 4.30296e-20)
(0.849616 1.1075 1.35197e-20)
(0.753279 1.06579 2.39692e-19)
(0.64054 1.01642 5.32302e-19)
(0.521226 0.961379 3.65404e-20)
(0.408938 0.90406 3.52799e-19)
(0.293015 0.831046 6.29842e-20)
(0.217175 0.959644 -8.00175e-20)
(0.233359 2.3288 -1.8324e-19)
(0.295708 3.32711 1.754e-19)
(0.27876 3.47168 -1.93631e-19)
(0.242852 3.49322 -1.12123e-19)
(0.205123 3.52069 -9.30752e-20)
(0.153266 3.51427 -1.10168e-20)
(0.27023 0.262989 0)
(0.975857 1.0443 5.39255e-20)
(1.12039 1.22793 -3.77971e-20)
(1.12402 1.26304 -2.37786e-20)
(1.06986 1.24063 -1.10463e-19)
(0.999907 1.20539 4.01432e-20)
(0.92395 1.16915 -1.93095e-20)
(0.839003 1.13195 1.19858e-20)
(0.742174 1.0916 -2.48358e-19)
(0.628204 1.04475 -1.40993e-20)
(0.50639 0.994072 -1.16897e-18)
(0.390074 0.942066 5.01617e-20)
(0.281937 0.89924 -5.93355e-20)
(0.257978 1.48563 -7.38111e-20)
(0.33338 3.09473 1.78172e-20)
(0.354616 3.47003 7.53442e-22)
(0.313764 3.52679 2.74434e-19)
(0.276027 3.55254 1.32249e-19)
(0.22696 3.57591 -2.88846e-20)
(0.167537 3.57167 -4.96015e-20)
(0.253772 0.261298 1.3837e-19)
(0.971823 1.0696 3.70134e-19)
(1.11184 1.25353 -1.08825e-19)
(1.11336 1.28796 -8.99664e-20)
(1.05898 1.26518 0)
(0.989248 1.22992 8.85435e-20)
(0.913333 1.19399 -1.26851e-20)
(0.828529 1.15763 1.03436e-20)
(0.731514 1.11871 -2.76532e-20)
(0.616826 1.0746 -4.77162e-19)
(0.493305 1.0286 -5.37067e-19)
(0.37476 0.982375 -4.10593e-19)
(0.281922 1.02928 -4.46857e-19)
(0.326308 2.18624 4.61785e-19)
(0.419651 3.37762 3.84097e-19)
(0.398637 3.52884 0)
(0.352605 3.57328 0)
(0.314277 3.61407 -2.15618e-20)
(0.262595 3.67459 0)
(0.179548 3.65036 -1.83631e-20)
(0.242827 0.263054 -2.09291e-19)
(0.965799 1.09595 -3.1679e-19)
(1.10184 1.28031 0)
(1.10135 1.31369 6.13014e-21)
(1.04686 1.29032 -1.25816e-19)
(0.977474 1.25493 1.52908e-19)
(0.901943 1.21938 8.91736e-22)
(0.817477 1.18374 5.37634e-21)
(0.720508 1.14616 -1.72557e-19)
(0.605494 1.10476 2.3688e-20)
(0.481075 1.06356 0)
(0.361403 1.02618 0)
(0.3073 1.27948 -4.06552e-19)
(0.408954 2.86459 1.6501e-19)
(0.491545 3.48761 2.08502e-19)
(0.444569 3.56189 0)
(0.404105 3.62469 1.15326e-21)
(0.368698 3.68456 -6.05244e-20)