/*--------------------------------*- C++ -*----------------------------------*\
  =========                 |
  \\      /  F ield         | OpenFOAM: The Open Source CFD Toolbox
   \\    /   O peration     | Website:  https://openfoam.org
    \\  /    A nd           | Version:  10
     \\/     M anipulation  |
\*---------------------------------------------------------------------------*/
FoamFile
{
    format      ascii;
    class       volScalarField;
    location    "65";
    object      p;
}
// * * * * * * * * * * * * * * * * * * * * * * * * * * * * * * * * * * * * * //

dimensions      [0 2 -2 0 0 0 0];

internalField   nonuniform List<scalar> 
2200
(
0.770362
0.748863
0.732959
0.717295
0.70269
0.69018
0.679838
0.671751
0.666072
0.663149
0.663681
0.667518
0.673874
0.682446
0.693136
0.705916
0.720714
0.736651
0.752699
0.774196
0.702782
0.699525
0.696603
0.692489
0.687033
0.680567
0.67396
0.668024
0.663543
0.661194
0.661698
0.665057
0.670261
0.676742
0.683741
0.690502
0.696166
0.700259
0.703106
0.70647
0.662842
0.663064
0.665127
0.666477
0.666874
0.66603
0.664063
0.661403
0.658884
0.657429
0.658013
0.660501
0.663822
0.667072
0.669421
0.670429
0.670167
0.669173
0.667535
0.667287
0.640339
0.641791
0.644391
0.646848
0.649299
0.65133
0.652501
0.652756
0.652416
0.652164
0.652854
0.654267
0.655497
0.655912
0.655245
0.653581
0.65143
0.649255
0.64665
0.645245
0.625968
0.627941
0.630763
0.633605
0.636474
0.639318
0.641794
0.643678
0.644938
0.645787
0.646576
0.647095
0.646893
0.645819
0.643984
0.641627
0.639083
0.636356
0.633563
0.631641
0.618587
0.620186
0.622394
0.624933
0.627613
0.630299
0.632915
0.635365
0.637423
0.638991
0.639915
0.639991
0.639205
0.637722
0.635856
0.633741
0.63143
0.629093
0.626996
0.625421
0.615121
0.616143
0.617418
0.619294
0.621453
0.623638
0.625861
0.628193
0.630461
0.632363
0.633468
0.633552
0.632834
0.631675
0.630313
0.628779
0.627099
0.625534
0.624426
0.623409
0.612417
0.613086
0.613724
0.615037
0.616668
0.618379
0.620164
0.622132
0.62426
0.626311
0.627636
0.628026
0.627764
0.62719
0.626452
0.625537
0.624505
0.623594
0.623153
0.622476
0.609114
0.609559
0.609961
0.610969
0.612248
0.613657
0.615193
0.616912
0.618832
0.620897
0.622514
0.623384
0.623722
0.623731
0.623497
0.623064
0.622514
0.622002
0.621822
0.621357
0.604996
0.605293
0.605655
0.606534
0.607662
0.608958
0.610429
0.612091
0.613977
0.616106
0.618096
0.619532
0.620399
0.620848
0.620988
0.620898
0.620635
0.620332
0.620214
0.619889
0.600194
0.600394
0.600771
0.601613
0.602727
0.604066
0.605634
0.607434
0.609487
0.611853
0.614268
0.61622
0.61754
0.618347
0.618758
0.6189
0.618825
0.618677
0.618582
0.618342
0.594902
0.595047
0.595421
0.596242
0.597405
0.598866
0.600621
0.602673
0.605053
0.607849
0.610811
0.613284
0.615018
0.616137
0.616798
0.617131
0.617265
0.617264
0.617203
0.61701
0.589181
0.589291
0.589674
0.590504
0.591746
0.593366
0.595359
0.597754
0.600613
0.603982
0.607591
0.610646
0.612825
0.614283
0.615227
0.615811
0.616157
0.616295
0.616279
0.616107
0.583019
0.583086
0.583473
0.584336
0.585691
0.587502
0.589777
0.59257
0.596
0.600127
0.604532
0.608245
0.610936
0.612838
0.614168
0.61506
0.615653
0.61594
0.615965
0.615801
0.576315
0.576352
0.576779
0.5777
0.579217
0.581261
0.583853
0.587123
0.591221
0.596225
0.601554
0.606093
0.609453
0.611911
0.61371
0.614983
0.615837
0.616278
0.61635
0.616186
0.569017
0.56898
0.569413
0.57043
0.572146
0.574439
0.577392
0.581192
0.586042
0.592044
0.598544
0.604143
0.608368
0.611543
0.613919
0.615634
0.616788
0.617395
0.617518
0.617348
0.560753
0.560749
0.561188
0.562296
0.564272
0.566895
0.570334
0.574812
0.580593
0.587835
0.595689
0.602512
0.607803
0.611806
0.614836
0.617064
0.618561
0.619345
0.619525
0.619344
0.551389
0.551407
0.551866
0.553133
0.555406
0.558474
0.562548
0.567868
0.574748
0.583437
0.592966
0.601323
0.607806
0.612784
0.616589
0.619375
0.621274
0.622247
0.622478
0.622276
0.540514
0.540487
0.541051
0.542538
0.545172
0.548818
0.553709
0.560114
0.568401
0.578869
0.590411
0.600505
0.608411
0.614527
0.619171
0.622638
0.624974
0.626133
0.626413
0.626188
0.527587
0.527517
0.528196
0.530056
0.533272
0.537723
0.543699
0.551525
0.561638
0.574335
0.588173
0.600331
0.609801
0.617146
0.62277
0.626954
0.629767
0.631121
0.631431
0.631177
0.512371
0.51227
0.513041
0.515248
0.519182
0.524706
0.532133
0.541839
0.554287
0.569729
0.586304
0.600699
0.611904
0.620626
0.627318
0.632357
0.635677
0.637202
0.637531
0.637244
0.493748
0.493669
0.494693
0.497487
0.502432
0.509428
0.518846
0.53108
0.546534
0.565231
0.584942
0.601826
0.614968
0.625137
0.633014
0.638902
0.6427
0.644384
0.644701
0.644382
0.470819
0.470666
0.471986
0.475612
0.482077
0.491239
0.503397
0.518913
0.538029
0.560609
0.583892
0.603644
0.618846
0.630623
0.639738
0.646528
0.650797
0.652584
0.652846
0.652501
0.441302
0.441334
0.443435
0.448498
0.457248
0.469538
0.485535
0.505358
0.528981
0.556097
0.583388
0.606124
0.62353
0.637019
0.647467
0.655144
0.659762
0.661609
0.661786
0.661419
0.402262
0.402509
0.406068
0.414093
0.426925
0.444212
0.465542
0.490793
0.519773
0.552006
0.583654
0.609606
0.629321
0.644491
0.656172
0.664594
0.669427
0.67119
0.671253
0.670883
0.35042
0.350855
0.357908
0.371222
0.390575
0.415113
0.443496
0.475394
0.510567
0.548493
0.584733
0.61393
0.6359
0.652793
0.665694
0.674671
0.679345
0.680738
0.680649
0.680346
0.282488
0.285253
0.30045
0.322085
0.350356
0.3838
0.420354
0.459741
0.501826
0.546066
0.587443
0.6203
0.645104
0.664021
0.678209
0.68768
0.692042
0.692877
0.692786
0.692581
0.205185
0.214859
0.240273
0.271675
0.310145
0.352762
0.397583
0.444736
0.494118
0.545046
0.592003
0.629266
0.657079
0.678131
0.693854
0.703653
0.707585
0.707906
0.707933
0.70782
0.136362
0.151046
0.182836
0.223304
0.271473
0.322988
0.37594
0.430811
0.487405
0.545074
0.59767
0.638889
0.669395
0.692509
0.709225
0.719128
0.722784
0.722833
0.722966
0.722934
0.0839513
0.0973372
0.134047
0.180634
0.236257
0.29539
0.355765
0.417926
0.481484
0.545578
0.603439
0.648385
0.681776
0.706641
0.724503
0.734904
0.738272
0.738491
0.738825
0.73878
0.0405643
0.0531953
0.09381
0.144352
0.205429
0.270528
0.337372
0.406066
0.475891
0.545774
0.60865
0.657543
0.693561
0.720307
0.739472
0.750293
0.754307
0.754979
0.755007
0.755068
0.00370412
0.0164635
0.059746
0.113149
0.1786
0.248584
0.320887
0.395134
0.470529
0.546115
0.614223
0.666725
0.705028
0.733443
0.753961
0.765482
0.769718
0.770455
0.770493
0.770558
-0.0284916
-0.0155155
0.0299801
0.0859878
0.155073
0.229036
0.305937
0.385111
0.465803
0.546952
0.619721
0.675228
0.715876
0.745886
0.767583
0.779432
0.784041
0.784853
0.784925
0.784971
-0.0569008
-0.0440042
0.00317446
0.0616089
0.133882
0.211346
0.29235
0.376012
0.461534
0.547454
0.624247
0.682988
0.725865
0.757062
0.779533
0.792077
0.796899
0.797858
0.797928
0.797962
-0.0828453
-0.069926
-0.0214635
0.039331
0.114454
0.195026
0.279683
0.367272
0.456957
0.547168
0.62813
0.690073
0.734753
0.767273
0.790109
0.803111
0.808314
0.809377
0.809476
0.80949
-0.106774
-0.0937046
-0.0444968
0.0185608
0.0962026
0.17958
0.267444
0.358409
0.451843
0.546358
0.631538
0.696373
0.742779
0.776279
0.799508
0.81305
0.818337
0.819526
0.819622
0.819608
-0.129351
-0.115951
-0.0660683
-0.00100555
0.078785
0.164614
0.255258
0.34926
0.446249
0.544864
0.634024
0.701853
0.750101
0.784705
0.808164
0.821769
0.82721
0.828426
0.828518
0.828485
-0.150608
-0.137012
-0.086467
-0.019738
0.0618492
0.149855
0.243013
0.33983
0.440114
0.542507
0.63569
0.706768
0.757012
0.792421
0.816186
0.829647
0.834932
0.836187
0.836258
0.836189
-0.170756
-0.157151
-0.105906
-0.037809
0.0453002
0.135246
0.230683
0.330093
0.43341
0.53937
0.636585
0.711056
0.763488
0.800087
0.823804
0.836644
0.841842
0.842931
0.842983
0.842885
-0.190169
-0.176308
-0.12457
-0.0553501
0.0290719
0.120753
0.218256
0.320016
0.426057
0.535325
0.636567
0.714756
0.769915
0.807643
0.831206
0.843461
0.847932
0.84884
0.848818
0.848754
-0.20924
-0.19477
-0.142606
-0.0723899
0.0131902
0.106397
0.205707
0.309527
0.418008
0.530413
0.635725
0.717863
0.776241
0.815758
0.83912
0.850152
0.853634
0.853992
0.854021
0.854021
-0.227863
-0.212658
-0.160111
-0.0889725
-0.00237276
0.0921431
0.192999
0.298627
0.40934
0.524682
0.63386
0.720258
0.782468
0.824396
0.848057
0.857843
0.859163
0.858769
0.858574
0.858414
-0.246038
-0.230157
-0.177151
-0.105121
-0.0176251
0.0780012
0.18016
0.287377
0.400131
0.518145
0.63093
0.721838
0.788342
0.833834
0.858895
0.867064
0.865698
0.863937
0.863698
0.864693
-0.263573
-0.247197
-0.193716
-0.120854
-0.0325763
0.0639834
0.167243
0.275865
0.390472
0.510845
0.626841
0.722311
0.793796
0.843855
0.87188
0.879598
0.875535
0.86861
0.863834
0.862942
-0.280531
-0.263769
-0.209778
-0.136151
-0.0471921
0.0501572
0.154347
0.264187
0.380403
0.502791
0.621607
0.72146
0.798171
0.854223
0.887191
0.896583
0.892338
0.88165
0.881858
0.886011
-0.296838
-0.279738
-0.225267
-0.150968
-0.0614182
0.0365949
0.141558
0.252412
0.369974
0.494088
0.615253
0.718923
0.801147
0.863862
0.903757
0.918212
0.913797
0.884533
0.846825
0.814042
-0.312504
-0.295151
-0.240214
-0.165352
-0.0753271
0.0232034
0.128749
0.24037
0.35897
0.484496
0.607559
0.714376
0.801583
0.871892
0.920983
0.94354
0.952746
0.927072
0.9446
1.00649
-0.327445
-0.309984
-0.254684
-0.179435
-0.0890891
0.00976279
0.115643
0.227712
0.346955
0.473451
0.597884
0.706933
0.79843
0.87528
0.930628
0.958035
0.959114
0.930917
0.886702
0.903889
-0.341671
-0.324266
-0.268646
-0.193154
-0.102625
-0.00363506
0.10235
0.21457
0.334057
0.461008
0.586184
0.696441
0.789497
0.869404
0.926291
0.954239
0.933827
0.874727
0.808575
0.795542
-0.355141
-0.337932
-0.282081
-0.206518
-0.115943
-0.0169987
0.0888742
0.200963
0.320298
0.44713
0.572292
0.682353
0.774424
0.850761
0.902594
0.904087
0.864332
0.783166
0.706527
0.681123
-0.367913
-0.351035
-0.295028
-0.219547
-0.12907
-0.0303476
0.0752145
0.186908
0.305704
0.431847
0.556151
0.664491
0.751763
0.816552
0.843668
0.826609
0.762402
0.657836
0.568557
0.544333
-0.38041
-0.363906
-0.307845
-0.232608
-0.142357
-0.0439891
0.0611057
0.172177
0.290099
0.415002
0.537492
0.642159
0.722232
0.770789
0.764096
0.72599
0.609644
0.484337
0.374976
0.345978
-0.393501
-0.377403
-0.321248
-0.246296
-0.156347
-0.0583884
0.0461535
0.15645
0.273228
0.39638
0.516026
0.615025
0.687807
0.710979
0.676675
0.584637
0.425551
0.270533
0.139212
0.110001
-0.407679
-0.391792
-0.335493
-0.260852
-0.171223
-0.0736673
0.0302775
0.139679
0.25509
0.375993
0.491726
0.583976
0.645922
0.63992
0.587064
0.433868
0.232197
0.0180838
-0.163134
-0.213046
-0.423091
-0.40732
-0.350706
-0.276277
-0.186946
-0.0897948
0.0135067
0.121908
0.235741
0.353927
0.464552
0.55043
0.59704
0.559165
0.470702
0.281047
0.0492122
-0.240065
-0.560992
-0.710493
-0.439783
-0.42391
-0.366927
-0.292689
-0.203597
-0.106837
-0.00422748
0.103061
0.215127
0.330197
0.434857
0.513919
0.542231
0.473993
0.335931
0.129965
-0.103679
-0.447147
-1.03188
-1.60258
-0.457877
-0.441854
-0.384327
-0.310121
-0.221183
-0.124797
-0.0228994
0.0832271
0.193412
0.305213
0.403807
0.474507
0.483488
0.399153
0.206433
-0.0269183
-0.22903
-0.462702
-1.01412
-2.51678
-0.477364
-0.460997
-0.402899
-0.328743
-0.239893
-0.143872
-0.0427457
0.06211
0.170254
0.27858
0.371044
0.43181
0.419884
0.340377
0.113034
-0.124059
-0.271643
-0.308619
-0.297287
-0.681958
-0.498205
-0.481767
-0.422953
-0.348805
-0.260099
-0.16457
-0.0643969
0.0389615
0.144732
0.248998
0.335669
0.385698
0.357584
0.289974
0.0634583
-0.138058
-0.248574
-0.256576
-0.203592
-0.243578
-0.520266
-0.503709
-0.444325
-0.370429
-0.281928
-0.187013
-0.0880095
0.0135775
0.116614
0.216265
0.297753
0.337723
0.302926
0.235614
0.0311477
-0.128453
-0.210666
-0.21877
-0.266588
-0.270585
-0.543506
-0.527107
-0.467126
-0.393547
-0.305333
-0.211246
-0.113647
-0.0140811
0.0858976
0.180807
0.257263
0.287538
0.255402
0.174318
0.00297601
-0.119193
-0.189306
-0.166511
-0.18687
-0.188516
-0.567629
-0.550976
-0.49099
-0.418138
-0.330223
-0.237174
-0.141221
-0.0439307
0.0526915
0.142952
0.214397
0.233989
0.214321
0.106402
-0.0324875
-0.114488
-0.153185
-0.201606
-0.175694
-0.184354
-0.592588
-0.575538
-0.516004
-0.443935
-0.356309
-0.264678
-0.170579
-0.075742
0.0171659
0.103073
0.170194
0.179324
0.171279
0.0456321
-0.0692538
-0.132931
-0.110092
-0.169859
-0.150558
-0.155531
-0.617183
-0.599911
-0.541816
-0.470686
-0.383337
-0.293501
-0.20142
-0.109204
-0.0204922
0.0614761
0.125771
0.127338
0.119496
-0.00540617
-0.0961061
-0.147137
-0.135175
-0.150322
-0.155663
-0.153874
-0.641227
-0.624086
-0.567945
-0.497596
-0.410867
-0.323321
-0.233367
-0.14391
-0.0597322
0.0185399
0.081469
0.0793352
0.0620134
-0.0477886
-0.109271
-0.140647
-0.179641
-0.150883
-0.156666
-0.151028
-0.663478
-0.647081
-0.59298
-0.523867
-0.438716
-0.353596
-0.265905
-0.179359
-0.0997457
-0.0254494
0.0370617
0.0358246
0.00646152
-0.0827396
-0.122521
-0.115229
-0.188304
-0.131103
-0.146175
-0.138401
-0.683501
-0.668213
-0.616207
-0.548338
-0.466304
-0.383534
-0.298347
-0.214922
-0.139505
-0.0699095
-0.00786692
-0.00459593
-0.0387254
-0.101567
-0.129934
-0.0893129
-0.134923
-0.117681
-0.123828
-0.12067
-0.699506
-0.685844
-0.636495
-0.57079
-0.492675
-0.412228
-0.329985
-0.249888
-0.178154
-0.114155
-0.0532205
-0.0424526
-0.0701708
-0.10263
-0.119751
-0.0968945
-0.11114
-0.114984
-0.116021
-0.116235
-0.710822
-0.699311
-0.653294
-0.590136
-0.51599
-0.438643
-0.359719
-0.283266
-0.21483
-0.156837
-0.0975376
-0.0778734
-0.0935906
-0.0992126
-0.111471
-0.122819
-0.114773
-0.118245
-0.116599
-0.117591
-0.715912
-0.706822
-0.664993
-0.605431
-0.535392
-0.461766
-0.386734
-0.314191
-0.248847
-0.196447
-0.13854
-0.11171
-0.12236
-0.10008
-0.105332
-0.142555
-0.119563
-0.127067
-0.120172
-0.121407
-0.714944
-0.707987
-0.67053
-0.614867
-0.549181
-0.480059
-0.409476
-0.341151
-0.279276
-0.230862
-0.174933
-0.144411
-0.145983
-0.114892
-0.0975823
-0.121112
-0.107758
-0.128929
-0.126966
-0.129729
-0.706924
-0.699627
-0.667243
-0.617355
-0.557082
-0.492944
-0.427248
-0.363081
-0.304501
-0.258692
-0.205454
-0.174273
-0.161741
-0.119432
-0.0664694
-0.0594727
-0.0753435
-0.0880797
-0.0927552
-0.0955169
-0.686278
-0.677911
-0.653727
-0.611253
-0.557273
-0.498831
-0.438416
-0.378134
-0.32229
-0.277735
-0.227849
-0.197384
-0.186074
-0.211516
-0.257744
-0.319832
-0.329013
-0.31088
-0.29225
-0.277683
-0.64352
-0.635618
-0.627055
-0.59695
-0.551172
-0.498793
-0.443464
-0.385984
-0.330858
-0.285694
-0.236979
-0.201672
-0.268994
-0.390574
-0.611615
-0.778923
-0.791181
-0.769455
-0.706705
-0.648138
-0.602576
-0.59974
-0.598609
-0.575298
-0.538728
-0.493154
-0.441849
-0.38597
-0.328799
-0.27941
-0.230397
-0.164103
-0.18251
-0.261736
-0.372179
-0.400777
-0.333344
-0.268254
-0.220334
-0.188181
-0.579768
-0.581487
-0.571289
-0.557301
-0.528257
-0.486661
-0.436395
-0.380308
-0.317463
-0.254974
-0.196114
-0.0796356
0.0642888
0.282055
0.492604
0.687765
0.832722
0.919494
0.96306
1.00356
-0.548496
-0.54818
-0.544959
-0.543662
-0.519075
-0.480245
-0.430087
-0.371688
-0.302722
-0.223124
-0.140134
-0.00446963
0.211778
0.536028
0.853248
1.11594
1.29912
1.40942
1.46449
1.48169
-0.536518
-0.534613
-0.537369
-0.530382
-0.513065
-0.476932
-0.424931
-0.362354
-0.288516
-0.197036
-0.0958511
0.0310785
0.266767
0.587333
0.902502
1.16789
1.36322
1.4795
1.53108
1.54669
-0.524794
-0.523373
-0.526588
-0.518914
-0.51247
-0.476195
-0.422995
-0.357308
-0.279025
-0.181484
-0.0735523
0.0308855
0.250043
0.527424
0.800747
1.03747
1.22151
1.33226
1.38093
1.39446
-0.513809
-0.513968
-0.514525
-0.514214
-0.511344
-0.474171
-0.421852
-0.355828
-0.27642
-0.179026
-0.0739532
0.00710329
0.191092
0.425522
0.648585
0.840896
0.994826
1.08813
1.12848
1.13858
-0.503327
-0.50426
-0.502541
-0.506248
-0.501347
-0.473631
-0.424589
-0.3583
-0.279855
-0.187172
-0.0878503
-0.0243114
0.120101
0.315837
0.493572
0.641174
0.759278
0.832055
0.862995
0.870752
-0.492373
-0.491765
-0.487448
-0.487019
-0.480274
-0.468504
-0.427808
-0.362683
-0.286806
-0.201261
-0.107641
-0.0544939
0.0518804
0.211871
0.351723
0.462872
0.550477
0.60537
0.628067
0.632735
-0.499688
-0.496327
-0.491056
-0.487779
-0.483971
-0.477694
-0.431488
-0.36567
-0.292052
-0.21525
-0.12772
-0.0800541
-0.00697087
0.121712
0.230969
0.314124
0.377872
0.418458
0.433911
0.438604
-0.530963
-0.528919
-0.528544
-0.532006
-0.533051
-0.512375
-0.442403
-0.36879
-0.2936
-0.224586
-0.144432
-0.0996628
-0.0525423
0.0489982
0.132609
0.194333
0.242354
0.272603
0.284535
0.28854
-0.579642
-0.583402
-0.593659
-0.602796
-0.59576
-0.547959
-0.452754
-0.370566
-0.289853
-0.227059
-0.155558
-0.113425
-0.0825765
-0.00307044
0.0590714
0.10387
0.141327
0.164316
0.173381
0.175738
-0.558437
-0.563728
-0.576914
-0.592131
-0.583875
-0.527911
-0.44001
-0.356059
-0.277595
-0.220244
-0.159062
-0.121139
-0.0980608
-0.0361848
0.00872957
0.041143
0.0668298
0.0823137
0.0889689
0.0905941
-0.432579
-0.43948
-0.45346
-0.463301
-0.460486
-0.425907
-0.370911
-0.311735
-0.250298
-0.200758
-0.15424
-0.12224
-0.102077
-0.0557911
-0.0239921
-0.00177706
0.0141728
0.0232332
0.026549
0.0266939
-0.264947
-0.269563
-0.276099
-0.28344
-0.286243
-0.277632
-0.259737
-0.235469
-0.201983
-0.169941
-0.140023
-0.116776
-0.098487
-0.0663666
-0.045204
-0.0313139
-0.0223823
-0.0183411
-0.0177221
-0.0185403
-0.11621
-0.118402
-0.122834
-0.130521
-0.139392
-0.146947
-0.152333
-0.153381
-0.144659
-0.133005
-0.118047
-0.10427
-0.090363
-0.0706203
-0.0579868
-0.0502152
-0.0462987
-0.0456236
-0.0467907
-0.0480628
-0.0123835
-0.0135753
-0.0165772
-0.0244635
-0.0380854
-0.0548042
-0.0713424
-0.0853683
-0.0921228
-0.0958441
-0.0916678
-0.0857115
-0.079239
-0.0690047
-0.062975
-0.0604008
-0.0602212
-0.0616756
-0.0635893
-0.0649668
0.0439042
0.0430049
0.0407148
0.0331706
0.0181557
-0.0017843
-0.0218458
-0.039882
-0.0526345
-0.0637985
-0.0661461
-0.0655639
-0.0659492
-0.0624564
-0.0617941
-0.0631393
-0.0654835
-0.0682675
-0.0704113
-0.0717394
0.0670585
0.066447
0.0646138
0.0580705
0.0443934
0.0252861
0.00520181
-0.0135687
-0.0280071
-0.0408074
-0.0454562
-0.0488856
-0.0527892
-0.0534822
-0.0567689
-0.0607029
-0.0644423
-0.0676891
-0.0697591
-0.0709609
0.0712516
0.0707918
0.0693435
0.0641791
0.0532175
0.0372466
0.0193247
0.00128645
-0.0133125
-0.0261229
-0.0311259
-0.0362714
-0.0413934
-0.0449234
-0.049978
-0.0548808
-0.0589644
-0.062076
-0.0638771
-0.0649213
0.0662631
0.065941
0.064843
0.060976
0.0527332
0.0404676
0.0259355
0.0100436
-0.0035716
-0.0162635
-0.0215759
-0.0265838
-0.0319657
-0.0367738
-0.0423588
-0.0472493
-0.0510241
-0.0537235
-0.0551275
-0.0560192
0.0574529
0.0572512
0.0564619
0.0536945
0.0477292
0.0386717
0.0276053
0.0147742
0.0033837
-0.00867248
-0.0144757
-0.0191276
-0.0242201
-0.0289198
-0.0342715
-0.0387532
-0.0421028
-0.0444152
-0.0454264
-0.0461633
0.0476141
0.0475025
0.0469437
0.0450211
0.0408288
0.0343124
0.0261279
0.0162432
0.00757288
-0.00295653
-0.00863383
-0.0127282
-0.0173616
-0.0217067
-0.0265492
-0.0304584
-0.0333639
-0.0353336
-0.0360628
-0.0366612
0.0380727
0.0380284
0.0376457
0.0363681
0.0334841
0.0289082
0.0229889
0.0155156
0.00924506
0.000770838
-0.00398391
-0.00733492
-0.0112534
-0.0151728
-0.0194979
-0.0228697
-0.0253232
-0.0269641
-0.0274719
-0.027969
0.0293711
0.0293526
0.0291036
0.0282877
0.0263558
0.0231996
0.0190174
0.0134635
0.00915789
0.00271351
-0.00065991
-0.00332899
-0.00659664
-0.00998475
-0.0136491
-0.0163909
-0.0183711
-0.0197234
-0.0201417
-0.0205608
0.0215166
0.0215174
0.0213363
0.020838
0.0195838
0.0174875
0.0146504
0.0105653
0.0078034
0.00307848
0.00112059
-0.000674846
-0.00336138
-0.00616607
-0.00917294
-0.0113759
-0.0129139
-0.0139361
-0.0142079
-0.0145425
0.0145195
0.0145152
0.0144072
0.0141437
0.0133942
0.0121098
0.0103846
0.00752162
0.00596187
0.00252893
0.00149417
0.000518421
-0.00141029
-0.00346778
-0.00587322
-0.00755627
-0.00865401
-0.00931362
-0.00951331
-0.00981198
0.00822957
0.00822301
0.00820267
0.00814597
0.00782564
0.00718092
0.0064138
0.00459532
0.00400699
0.00160082
0.00108469
0.000877024
-0.000447202
-0.00168933
-0.00351345
-0.00466902
-0.00536652
-0.00580918
-0.00582339
-0.00602056
0.00265689
0.00268404
0.00274123
0.00281536
0.00280683
0.00260681
0.0025076
0.00157086
0.00164541
0.00047491
0.000531414
0.000937791
-3.17082e-05
-0.000366125
-0.00168374
-0.00258922
-0.00337758
-0.00400636
-0.00380254
-0.00379874
-1.07684
-0.241011
0.0288971
0.303596
0.482992
0.636344
0.758683
0.88364
1.0226
1.10732
-0.100725
0.303977
0.318585
0.505605
0.627036
0.73597
0.829353
0.912836
0.939653
0.898289
0.272393
0.484701
0.517947
0.653506
0.737558
0.815822
0.880427
0.928998
0.930757
0.945235
0.499269
0.640549
0.674968
0.77515
0.831554
0.887958
0.932187
0.964216
0.973122
0.99694
0.675149
0.775208
0.804871
0.871159
0.915469
0.955666
0.987441
1.01157
1.02124
1.05293
0.817005
0.885029
0.915175
0.957399
0.993169
1.02294
1.047
1.06772
1.08173
1.11011
0.935244
0.985371
1.01077
1.03843
1.06582
1.08942
1.10926
1.12849
1.14331
1.16988
1.03845
1.07523
1.09617
1.11666
1.1373
1.15659
1.17395
1.19205
1.20691
1.23059
1.13209
1.16109
1.17735
1.19254
1.20857
1.22459
1.24012
1.25702
1.27064
1.29296
1.22017
1.24058
1.25539
1.26852
1.28207
1.29582
1.30931
1.3239
1.33544
1.35508
1.30552
1.32129
1.3351
1.3469
1.35881
1.37044
1.38157
1.39325
1.40092
1.41772
1.39072
1.40326
1.41697
1.42871
1.43935
1.44914
1.45796
1.46623
1.46978
1.48102
1.47946
1.49029
1.50376
1.51328
1.52085
1.52814
1.53532
1.54179
1.5429
1.55025
1.57787
1.58248
1.59067
1.5954
1.59879
1.60327
1.60927
1.61692
1.62083
1.6307
1.69115
1.67804
1.67075
1.66504
1.66232
1.66366
1.66998
1.68234
1.69717
1.72684
1.81313
1.75708
1.72606
1.70887
1.70065
1.70058
1.70944
1.72906
1.76084
1.83011
)
;

boundaryField
{
    wall-4
    {
        type            zeroGradient;
    }
    pressure-outlet-7
    {
        type            fixedValue;
        value           uniform 0;
    }
    velocity-inlet-6
    {
        type            zeroGradient;
    }
    velocity-inlet-5
    {
        type            zeroGradient;
    }
    frontAndBackPlanes
    {
        type            empty;
    }
}


// ************************************************************************* //
