/*--------------------------------*- C++ -*----------------------------------*\
  =========                 |
  \\      /  F ield         | OpenFOAM: The Open Source CFD Toolbox
   \\    /   O peration     | Website:  https://openfoam.org
    \\  /    A nd           | Version:  10
     \\/     M anipulation  |
\*---------------------------------------------------------------------------*/
FoamFile
{
    format      ascii;
    class       surfaceScalarField;
    location    "65";
    object      phi;
}
// * * * * * * * * * * * * * * * * * * * * * * * * * * * * * * * * * * * * * //

dimensions      [0 3 -1 0 0 0 0];

internalField   nonuniform List<scalar> 
4262
(
0.107132
0.470857
0.095564
0.705153
0.0693749
0.858492
0.0473593
1.02078
0.030981
1.21489
0.0197712
1.44943
0.012363
1.73327
0.00715729
2.07624
0.00318501
2.48922
-0.000597774
2.98608
-0.00426171
2.98596
-0.0080522
2.48903
-0.013078
2.07606
-0.0202085
1.73299
-0.0311276
1.44914
-0.0471658
1.21455
-0.0688991
1.0205
-0.0951747
0.858579
-0.107059
0.70547
0.470929
0.112862
0.357995
0.135259
0.682757
0.120351
0.8734
0.0977851
1.04335
0.0745173
1.23816
0.0527822
1.47116
0.0343744
1.75168
0.0201352
2.09048
0.00884275
2.50051
-0.00106236
2.99598
-0.0111387
2.99603
-0.0223282
2.50022
-0.0364083
2.09014
-0.0547564
1.75134
-0.0766139
1.471
-0.100385
1.23833
-0.123583
1.0437
-0.137056
0.872052
-0.113577
0.681991
0.357352
0.0920479
0.265947
0.124973
0.649832
0.121102
0.877271
0.104825
1.05962
0.0861675
1.25682
0.0670156
1.49032
0.0480299
1.77067
0.0299583
2.10855
0.0133763
2.51709
-0.00270447
3.01206
-0.0184064
3.01173
-0.0343215
2.51614
-0.0517954
2.10762
-0.0701777
1.76972
-0.0884723
1.48929
-0.105647
1.2555
-0.119733
1.05778
-0.125197
0.877516
-0.0923429
0.649137
0.265009
0.0639761
0.201971
0.104789
0.609019
0.106555
0.875505
0.0951632
1.07101
0.0812281
1.27076
0.0664828
1.50506
0.0503571
1.78679
0.0331728
2.12574
0.015496
2.53477
-0.0030814
3.03064
-0.0215967
3.03025
-0.0390655
2.53361
-0.0555571
2.12411
-0.0708025
1.78497
-0.0846418
1.50313
-0.0983528
1.26921
-0.110089
1.06952
-0.107072
0.874499
-0.0649183
0.606983
0.200091
0.0374663
0.164504
0.0806843
0.565801
0.0909439
0.865245
0.0837275
1.07823
0.0711131
1.28337
0.0592542
1.51692
0.0462101
1.79983
0.0312315
2.14072
0.0142178
2.55178
-0.00510908
3.04997
-0.0238904
3.04903
-0.0397029
2.54942
-0.0535406
2.13795
-0.0656095
1.79704
-0.0768229
1.51434
-0.0887569
1.28115
-0.0951368
1.0759
-0.0832972
0.862659
-0.0384364
0.562122
0.161655
0.0194556
0.145049
0.0571746
0.528082
0.072553
0.849867
0.0704403
1.08034
0.061622
1.29219
0.0507263
1.52782
0.0395641
1.811
0.026934
2.15335
0.0119066
2.56681
-0.00569255
3.06756
-0.0229947
3.06633
-0.0373968
2.56382
-0.0489617
2.14951
-0.0589274
1.807
-0.0688009
1.52422
-0.0764303
1.28877
-0.0772239
1.07669
-0.060059
0.845494
-0.0203929
0.522456
0.141262
0.0106046
0.134444
0.0422897
0.496397
0.0583586
0.833798
0.0585945
1.08011
0.0524025
1.29838
0.0429742
1.53724
0.0325142
1.82146
0.0210674
2.16479
0.00766454
2.58021
-0.00835191
3.08358
-0.0237802
3.08176
-0.0355366
2.57558
-0.0452173
2.15919
-0.0540655
1.81585
-0.061978
1.53213
-0.0665163
1.29331
-0.0645141
1.07469
-0.0460313
0.827011
-0.0117415
0.488166
0.12952
0.0065484
0.127896
0.0328761
0.470069
0.0491047
0.81757
0.0505949
1.07862
0.0454794
1.3035
0.0370733
1.54565
0.0274079
1.83112
0.0165797
2.17562
0.00461399
2.59218
-0.00932744
3.09752
-0.0227951
3.09523
-0.0337409
2.58652
-0.0430311
2.16848
-0.0506663
1.82349
-0.0571298
1.53859
-0.0602654
1.29645
-0.056586
1.07101
-0.0373745
0.8078
-0.00791692
0.458709
0.121603
0.00469039
0.123205
0.0264749
0.448285
0.0422126
0.801832
0.044271
1.07656
0.0396015
1.30817
0.0319374
1.55331
0.022747
1.84031
0.0120027
2.18637
8.22608e-05
2.6041
-0.0130318
3.11064
-0.0249253
3.10712
-0.0345134
2.59611
-0.0426132
2.17658
-0.0494904
1.83037
-0.054833
1.54394
-0.0570133
1.29863
-0.0518805
1.06588
-0.0321047
0.788024
-0.00639229
0.432996
0.115211
0.00372076
0.119485
0.0216042
0.430401
0.0366814
0.786755
0.0393657
1.07387
0.0349422
1.31259
0.0275123
1.56074
0.0186811
1.84914
0.00868218
2.19636
-0.00248579
2.61527
-0.0147357
3.12289
-0.0263504
3.11874
-0.0359116
2.60567
-0.0434027
2.18407
-0.0492305
1.83619
-0.053826
1.54853
-0.0549859
1.29979
-0.0485321
1.05942
-0.0284615
0.767953
-0.00581979
0.410354
0.109391
0.00302432
0.11646
0.0174499
0.415976
0.0313184
0.772886
0.0342129
1.07098
0.0299851
1.31682
0.0227612
1.56797
0.0141078
1.8578
0.00396413
2.20651
-0.00760817
2.62684
-0.0198501
3.13513
-0.0304629
3.12935
-0.0383336
2.61354
-0.0447636
2.1905
-0.0500995
1.84153
-0.0538769
1.55231
-0.0539311
1.29984
-0.0460264
1.05152
-0.0257775
0.747704
-0.00556376
0.390141
0.103828
0.00233187
0.114128
0.0136997
0.404608
0.0261769
0.760409
0.0292146
1.06794
0.0251716
1.32086
0.0180457
1.57509
0.00950654
1.86634
-0.000142151
2.21616
-0.0108168
2.63751
-0.0226333
3.14694
-0.0333628
3.14008
-0.0416315
2.62181
-0.047469
2.19634
-0.0516902
1.84575
-0.0543451
1.55496
-0.0536578
1.29916
-0.0443219
1.04218
-0.0239138
0.727296
-0.00544561
0.371673
0.098382
0.00166304
0.112465
0.0104291
0.395842
0.0211387
0.749699
0.0236321
1.06545
0.0193863
1.32511
0.0121728
1.58231
0.00344602
1.87506
-0.00658507
2.22619
-0.0178376
2.64876
-0.0298163
3.15892
-0.0395282
3.14979
-0.0458372
2.62812
-0.0505172
2.20102
-0.0541433
1.84938
-0.0558844
1.5567
-0.0541959
1.29747
-0.0434989
1.03149
-0.0227529
0.70655
-0.0053986
0.354318
0.0929834
0.000807055
0.111658
0.00698817
0.389661
0.0160493
0.740638
0.0182309
1.06327
0.0138512
1.32949
0.00651226
1.58965
-0.00227318
1.88385
-0.0121396
2.23605
-0.0230317
2.65966
-0.0345764
3.17047
-0.0444207
3.15964
-0.0510625
2.63476
-0.0549623
2.20492
-0.0575085
1.85192
-0.0581118
1.55731
-0.0553837
1.29474
-0.04327
1.01937
-0.0220755
0.685356
-0.00537867
0.337621
0.0876047
0.000121458
0.111537
0.00409591
0.385686
0.0107557
0.733978
0.0116737
1.06235
0.00664151
1.33452
-0.00128858
1.59758
-0.0108697
1.89343
-0.0216358
2.24682
-0.0331142
2.67114
-0.0442801
3.18163
-0.0526401
3.168
-0.0573494
2.63947
-0.0603068
2.20788
-0.062201
1.85382
-0.0619532
1.55706
-0.0576383
1.29042
-0.0438568
1.00559
-0.0219255
0.663425
-0.00544622
0.321142
0.0821585
-0.000877605
0.112414
0.000366566
0.384442
0.00494695
0.729398
0.00499259
1.0623
-0.000637663
1.34015
-0.00923389
1.60617
-0.0191108
1.90331
-0.0296589
2.25737
-0.0407252
2.6822
-0.0520466
3.19296
-0.0606088
3.17656
-0.0651663
2.64403
-0.0670828
2.20979
-0.0679816
1.85472
-0.0668267
1.55591
-0.0608724
1.28447
-0.0452041
0.989922
-0.0222637
0.640484
-0.0056011
0.30448
0.0765574
-0.00174962
0.114164
-0.00273243
0.385425
-0.000965153
0.727631
-0.00270582
1.06404
-0.00941562
1.34686
-0.0189246
1.61568
-0.0300141
1.9144
-0.0422829
2.26964
-0.0549237
2.69484
-0.0657852
3.20382
-0.0722184
3.18299
-0.0754544
2.64727
-0.0767675
2.21111
-0.0764336
1.85438
-0.0735606
1.55303
-0.0656392
1.27655
-0.0476234
0.971906
-0.0232042
0.616065
-0.0058999
0.287175
0.0706575
-0.00309559
0.11726
-0.00646162
0.388791
-0.00828894
0.729458
-0.0117993
1.06755
-0.0195645
1.35462
-0.0302487
1.62637
-0.042237
1.92638
-0.0545769
2.28198
-0.0664672
2.70673
-0.0773577
3.21471
-0.0847305
3.19036
-0.087331
2.64987
-0.086667
2.21044
-0.0852943
1.85301
-0.0816438
1.54938
-0.0715053
1.26641
-0.0508643
0.951265
-0.0245821
0.589783
-0.00626982
0.268863
0.0643877
-0.00440332
0.121663
-0.0106934
0.395081
-0.0158405
0.734605
-0.0221286
1.07384
-0.031208
1.3637
-0.0430875
1.63825
-0.056404
1.9397
-0.0709442
2.29652
-0.0856767
2.72147
-0.0975993
3.22663
-0.1022
3.19496
-0.102646
2.65031
-0.101942
2.20974
-0.0986653
1.84973
-0.0923601
1.54308
-0.0795079
1.25356
-0.0555173
0.927275
-0.0266039
0.560869
-0.00678606
0.249045
0.0576016
-0.00584072
0.127504
-0.0157516
0.404992
-0.0250819
0.743935
-0.0343588
1.08312
-0.0455766
1.37492
-0.0595279
1.6522
-0.0748032
1.95498
-0.0902577
2.31197
-0.104045
2.73525
-0.114073
3.23666
-0.119415
3.20031
-0.119938
2.65084
-0.116571
2.20637
-0.112179
1.84534
-0.104748
1.53565
-0.0885205
1.23733
-0.0606778
0.899432
-0.0288112
0.529003
-0.00727413
0.227508
0.0503275
-0.00818764
0.135691
-0.022628
0.419432
-0.0373082
0.758615
-0.0500124
1.09582
-0.0631276
1.38803
-0.0789092
1.66798
-0.0959517
1.97202
-0.113503
2.32952
-0.129924
2.75167
-0.142707
3.24944
-0.145902
3.2035
-0.142952
2.64789
-0.138558
2.20198
-0.131392
1.83817
-0.120301
1.52455
-0.100273
1.2173
-0.0675357
0.866695
-0.0315507
0.493018
-0.00783693
0.203794
0.0424905
-0.0105699
0.146261
-0.0296405
0.438503
-0.0500833
0.779058
-0.0678525
1.11359
-0.0848294
1.40501
-0.103973
1.68712
-0.12411
1.99216
-0.14353
2.34894
-0.159387
2.76753
-0.167921
3.25798
-0.16864
3.20422
-0.165431
2.64468
-0.158876
2.19542
-0.150754
1.83005
-0.137787
1.51159
-0.112771
1.19229
-0.0742632
0.828187
-0.0340442
0.452799
-0.00824757
0.177998
0.034243
-0.0153648
0.161626
-0.0422585
0.465396
-0.0699132
0.806713
-0.0925287
1.13621
-0.112924
1.42541
-0.135616
1.70981
-0.158095
2.01463
-0.178658
2.36951
-0.194761
2.78363
-0.204534
3.26775
-0.204871
3.20456
-0.197558
2.63736
-0.188122
2.18598
-0.176369
1.8183
-0.158303
1.49352
-0.12765
1.16163
-0.0823954
0.782933
-0.0366381
0.407041
-0.00857466
0.149934
0.0256683
-0.0194928
0.181119
-0.0550601
0.500964
-0.0924109
0.844064
-0.12304
1.16684
-0.149618
1.45199
-0.176662
1.73686
-0.201888
2.03986
-0.223501
2.39112
-0.238996
2.79913
-0.244294
3.27305
-0.238
3.19826
-0.22767
2.62703
-0.216021
2.17434
-0.202171
1.80445
-0.180963
1.47231
-0.142843
1.12351
-0.0890747
0.729164
-0.0381336
0.3561
-0.00844201
0.120243
0.0172263
-0.0326877
0.213807
-0.0818517
0.550128
-0.129657
0.891869
-0.166591
1.20377
-0.198368
1.48376
-0.229723
1.76821
-0.256089
2.06623
-0.276591
2.41162
-0.288344
2.81088
-0.288777
3.27348
-0.280281
3.18977
-0.267585
2.61434
-0.25307
2.15982
-0.235018
1.7864
-0.205954
1.44325
-0.159067
1.07663
-0.0965321
0.666629
-0.0395593
0.299128
-0.00822914
0.0889124
0.00899715
-0.0471246
0.260931
-0.12106
0.624063
-0.184973
0.955782
-0.230672
1.24947
-0.268557
1.52165
-0.300355
1.80001
-0.324196
2.09007
-0.340737
2.42816
-0.347989
2.81813
-0.343726
3.26922
-0.328308
3.17435
-0.309143
2.59517
-0.289214
2.13989
-0.265991
1.76318
-0.231053
1.40831
-0.173156
1.01873
-0.098966
0.592439
-0.0382163
0.238378
-0.00796166
0.0586577
0.00103549
-0.0341609
0.295092
-0.098014
0.687916
-0.156759
1.01453
-0.204793
1.2975
-0.248522
1.56538
-0.287862
1.83935
-0.324918
2.12712
-0.358697
2.46194
-0.385097
2.84453
-0.399398
3.28352
-0.398698
3.17365
-0.390461
2.58694
-0.376542
2.12597
-0.350542
1.73718
-0.297021
1.35479
-0.211092
0.9328
-0.112101
0.493447
-0.0418994
0.168176
-0.00928783
0.0260462
-0.00825234
-0.0125211
0.307613
-0.0475959
0.722991
-0.0899281
1.05686
-0.129886
1.33746
-0.169562
1.60505
-0.205167
1.87496
-0.238579
2.16054
-0.267761
2.49112
-0.289038
2.86581
-0.297837
3.29232
-0.29368
3.16949
-0.278957
2.57221
-0.255455
2.10247
-0.222111
1.70383
-0.176181
1.30886
-0.11354
0.87016
-0.0521116
0.432019
-0.0194915
0.135556
-0.00468424
0.0112389
-0.0129366
-2.31886e-05
0.307636
-0.0245273
0.747495
-0.0541935
1.08653
-0.0848786
1.36815
-0.117152
1.63732
-0.148411
1.90622
-0.177458
2.18958
-0.201742
2.51541
-0.217875
2.88194
-0.222494
3.29694
-0.211899
3.1589
-0.190799
2.55111
-0.166642
2.07831
-0.137621
1.67481
-0.0969436
1.26818
-0.0505634
0.82378
-0.0183407
0.399796
-0.00724101
0.124456
-0.00228831
0.00628615
-0.0152249
0.000810387
0.306826
-0.0130968
0.761402
-0.0343405
1.10777
-0.0588448
1.39265
-0.0850273
1.66351
-0.111481
1.93267
-0.136095
2.2142
-0.156613
2.53592
-0.169711
2.89504
-0.169835
3.29706
-0.153399
3.14246
-0.13092
2.52863
-0.104656
2.05205
-0.0717543
1.64191
-0.0386409
1.23507
-0.0116383
0.796777
0.00103469
0.387123
0.000952624
0.124538
-0.000318436
0.00755722
-0.0155433
0.00466848
0.302158
-0.00394377
0.770015
-0.0222992
1.12612
-0.0436198
1.41397
-0.0658033
1.68569
-0.0877632
1.95463
-0.108635
2.23507
-0.1258
2.55309
-0.135395
2.90464
-0.132793
3.29446
-0.116832
3.1265
-0.0920958
2.5039
-0.0638025
2.02375
-0.0377033
1.61581
-0.00882623
1.20619
0.0127111
0.77524
0.0147294
0.385105
0.00759285
0.131675
0.00176838
0.0133817
-0.0137749
0.00523315
0.296924
-0.00066024
0.775908
-0.0161613
1.14163
-0.0341347
1.43195
-0.0533218
1.70488
-0.0728229
1.97413
-0.091124
2.25337
-0.105828
2.56779
-0.113631
2.91244
-0.10947
3.2903
-0.0907226
3.10775
-0.0670689
2.48025
-0.0419244
1.99861
-0.0124891
1.58638
0.00982751
1.18388
0.0209344
0.764133
0.0197284
0.386311
0.0104361
0.140967
0.00269097
0.0211269
-0.011084
0.00472798
0.292196
0.000984244
0.779652
-0.012236
1.15485
-0.0291068
1.44882
-0.0466328
1.7224
-0.0637784
1.99128
-0.0798119
2.2694
-0.0928648
2.58085
-0.099687
2.91926
-0.0953626
3.28597
-0.0786046
3.09099
-0.0555307
2.45717
-0.0279904
1.97107
-0.00551168
1.5639
0.0145592
1.1638
0.0256428
0.753049
0.0213756
0.390578
0.0114365
0.150906
0.00313497
0.0294284
-0.007949
0.00272587
0.289471
-0.000620715
0.782998
-0.0118592
1.16608
-0.026184
1.46314
-0.0419765
1.7382
-0.0581197
2.00742
-0.073517
2.2848
-0.0863042
2.59363
-0.0932044
2.92616
-0.088744
3.28151
-0.0717203
3.07397
-0.0502999
2.43575
-0.0282687
1.94904
-0.00236831
1.538
0.0160472
1.14539
0.0229805
0.746116
0.0200052
0.393553
0.0109001
0.160011
0.00311647
0.037212
-0.00483254
0.00139839
0.288072
-0.00115426
0.785551
-0.0118573
1.17679
-0.0255112
1.4768
-0.0406581
1.75334
-0.055719
2.02248
-0.070177
2.29926
-0.0823997
2.60586
-0.0890935
2.93285
-0.0854442
3.27786
-0.071176
3.0597
-0.0500259
2.4146
-0.0257359
1.92475
-0.0070146
1.51928
0.0100414
1.12833
0.019822
0.736335
0.0166897
0.396686
0.00934609
0.167355
0.00274624
0.0438119
-0.00208629
-0.000479092
0.288551
-0.00471391
0.789786
-0.0137562
1.18583
-0.0255858
1.48863
-0.039507
1.76726
-0.0541592
2.03713
-0.068634
2.31373
-0.0812058
2.61843
-0.0889037
2.94055
-0.0870877
3.27605
-0.0733873
3.046
-0.0540957
2.39531
-0.0347136
1.90537
-0.0117013
1.49626
0.00504966
1.11158
0.0119225
0.729462
0.0120256
0.396583
0.00688527
0.172495
0.00217459
0.0485226
8.82967e-05
-0.00121789
0.289769
-0.00565951
0.794227
-0.0147851
1.19495
-0.026575
1.50042
-0.040193
1.78088
-0.0541944
2.05113
-0.0681872
2.32773
-0.0809172
2.63116
-0.0896639
2.9493
-0.0897777
3.27616
-0.077965
3.03419
-0.0590939
2.37644
-0.0372271
1.8835
-0.0204105
1.47945
-0.00476889
1.09594
0.00597279
0.718721
0.00683105
0.395724
0.00448847
0.174838
0.00157007
0.051441
0.00165836
-0.00283898
0.292608
-0.00828385
0.799672
-0.0168173
1.20349
-0.0275044
1.5111
-0.040132
1.79351
-0.0538366
2.06484
-0.0681696
2.34206
-0.081746
2.64473
-0.0917807
2.95933
-0.0938986
3.27828
-0.0838447
3.02414
-0.0672234
2.35982
-0.0493405
1.86562
-0.027442
1.45755
-0.0111731
1.07967
-0.00236691
0.709914
0.00212127
0.391236
0.00202795
0.174931
0.000922429
0.0525465
0.00258079
-0.00371123
0.296319
-0.00890037
0.804861
-0.017575
1.21216
-0.0284521
1.52198
-0.0410259
1.80608
-0.0543929
2.07821
-0.0685298
2.3562
-0.0824425
2.65865
-0.0938586
2.97075
-0.0989478
3.28337
-0.0916286
3.01682
-0.0751435
2.34333
-0.0529982
1.84347
-0.0359015
1.44045
-0.0195239
1.06329
-0.00658236
0.696973
-0.00194652
0.3866
9.98805e-05
0.172885
0.000372025
0.0522743
0.00295282
-0.00421126
0.300531
-0.0105718
0.811222
-0.0190313
1.22062
-0.0291199
1.53207
-0.0409793
1.81794
-0.0541422
2.09137
-0.0686357
2.37069
-0.0834141
2.67343
-0.0962734
2.98361
-0.103457
3.29055
-0.0985649
3.01192
-0.0840861
2.32885
-0.0658262
1.82521
-0.0417125
1.41634
-0.023172
1.04475
-0.0116012
0.685402
-0.00425158
0.379251
-0.00101116
0.169644
2.93718e-05
0.0512338
0.00298219
-0.00417031
0.304701
-0.0105295
0.817581
-0.0191593
1.22925
-0.0294621
1.54237
-0.041406
1.82989
-0.0544073
2.10437
-0.0687686
2.38505
-0.0838068
2.68846
-0.0980058
2.99781
-0.108263
3.30081
-0.107057
3.01072
-0.0929605
2.31476
-0.0693135
1.80156
-0.0480745
1.3951
-0.0272812
1.02396
-0.0110727
0.669194
-0.0042733
0.372451
-0.00116676
0.166538
-0.000442985
0.05051
0.0025392
-0.00435317
0.309054
-0.0114721
0.8247
-0.0199077
1.23769
-0.0295965
1.55206
-0.0409554
1.84125
-0.0537348
2.11715
-0.0683153
2.39963
-0.0840952
2.70424
-0.0997219
3.01344
-0.111944
3.31303
-0.113088
3.01186
-0.101417
2.30309
-0.0821533
1.7823
-0.0524185
1.36536
-0.0266363
0.998178
-0.00977317
0.65233
0.000587016
0.362091
0.00306998
0.164055
0.00181821
0.0517618
0.00435741
-0.00428973
0.313344
-0.011103
0.831513
-0.0194927
1.24608
-0.029306
1.56187
-0.0407004
1.85264
-0.0533433
2.12979
-0.0677957
2.41408
-0.0837648
2.72021
-0.100427
3.0301
-0.11518
3.32778
-0.120724
3.0174
-0.110682
2.29304
-0.0861303
1.75775
-0.0581203
1.33735
-0.0261135
0.966171
-0.00148084
0.627698
0.0097639
0.350846
0.00696742
0.166851
-0.00114719
0.0598764
0.00321022
-0.00442723
0.317771
-0.0116082
0.838694
-0.0197151
1.25418
-0.0289425
1.5711
-0.0397568
1.86345
-0.0521161
2.14215
-0.0666476
2.42862
-0.0831709
2.73674
-0.10098
3.04791
-0.117594
3.3444
-0.125578
3.02539
-0.118541
2.28601
-0.100003
1.73921
-0.0637231
1.30107
-0.0224476
0.924896
0.012811
0.592439
0.0382582
0.325399
0.0451825
0.159927
0.0281904
0.0768686
0.0314006
-0.00428037
0.322051
-0.0110148
0.845429
-0.0189424
1.26211
-0.0281583
1.58032
-0.038901
1.8742
-0.0510916
2.15434
-0.0654553
2.44298
-0.0820244
2.7533
-0.100497
3.06638
-0.11907
3.36297
-0.130659
3.03698
-0.127836
2.28318
-0.105702
1.71708
-0.0717841
1.26716
-0.0227726
0.875884
0.0252598
0.544407
0.0619504
0.288709
0.0533023
0.168575
0.0232745
0.106896
0.0546751
-0.00423055
0.326282
-0.0111716
0.85237
-0.0187893
1.26973
-0.0274112
1.58894
-0.0376072
1.88439
-0.0494626
2.1662
-0.0637611
2.45728
-0.0806417
2.77019
-0.0999407
3.08568
-0.120187
3.38322
-0.133465
3.05025
-0.134591
2.28431
-0.121537
1.70402
-0.0831268
1.22875
-0.0279737
0.820731
0.0434564
0.472977
0.139599
0.192566
0.204495
0.103679
0.185473
0.125918
0.240149
-0.00406167
0.330344
-0.0106139
0.858922
-0.0182157
1.27733
-0.027089
1.59781
-0.0376945
1.895
-0.0500863
2.17859
-0.0652347
2.47243
-0.08353
2.78848
-0.105314
3.10746
-0.129797
3.4077
-0.149489
3.06995
-0.157114
2.29194
-0.14241
1.68932
-0.107885
1.19422
-0.042736
0.755582
0.0161822
0.414059
-0.0489967
0.257744
-0.353825
0.408508
-0.944965
0.717058
0.901964
-1.60678
-0.00395453
0.334298
-0.0106809
0.865648
-0.0180878
1.28474
-0.0265993
1.60632
-0.0369167
1.90532
-0.0493518
2.19102
-0.0649799
2.48805
-0.0844011
2.8079
-0.108241
3.1313
-0.136333
3.43579
-0.160418
3.09403
-0.172775
2.30429
-0.176322
1.69287
-0.148282
1.16618
-0.112604
0.719904
-0.21302
0.514475
-0.693925
0.73865
-1.45256
1.16714
-2.05762
1.32212
1.2158
-2.37146
-0.0037118
0.33801
-0.00991091
0.871848
-0.0171131
1.29194
-0.0256655
1.61488
-0.0360843
1.91573
-0.0487097
2.20365
-0.0647268
2.50407
-0.0849368
2.82811
-0.110517
3.15688
-0.142264
3.46754
-0.173562
3.12533
-0.195939
2.32667
-0.199728
1.69665
-0.180246
1.1467
-0.265512
0.80517
-0.752845
1.00181
-1.55709
1.5429
-2.11587
1.72592
-2.35352
1.55977
1.32942
-2.46713
-0.00360305
0.341613
-0.00977375
0.878018
-0.0167153
1.29888
-0.0248738
1.62303
-0.034958
1.92582
-0.047554
2.21625
-0.0639209
2.52044
-0.0851188
2.84931
-0.112686
3.18445
-0.148327
3.50318
-0.185055
3.16206
-0.213791
2.35541
-0.236746
1.71961
-0.309733
1.21969
-0.67595
1.17139
-1.44488
1.77074
-2.03109
2.1291
-2.26968
1.96452
-2.38224
1.67232
1.39292
-2.44574
-0.00328257
0.344896
-0.00884286
0.883579
-0.015472
1.30551
-0.0235715
1.63113
-0.0337301
1.93598
-0.0464436
2.22896
-0.0630949
2.53709
-0.0849474
2.87116
-0.114127
3.21363
-0.15347
3.54252
-0.198515
3.2071
-0.241187
2.39808
-0.278116
1.75654
-0.459248
1.40082
-1.09648
1.80862
-1.79315
2.4674
-2.11021
2.44617
-2.25742
2.11173
-2.33922
1.75411
1.45898
-2.40527
-0.00328904
0.348185
-0.00904668
0.889336
-0.0156701
1.31213
-0.0236389
1.6391
-0.0338503
1.94619
-0.0467968
2.24191
-0.0639818
2.55428
-0.0869385
2.89412
-0.118166
3.24486
-0.161502
3.58586
-0.212629
3.25823
-0.25724
2.44269
-0.343268
1.84257
-0.739797
1.79735
-1.49305
2.56188
-1.96316
2.93751
-2.16279
2.6458
-2.2687
2.21763
-2.3459
1.83131
1.52218
-2.4091
-0.00334559
0.35153
-0.0090331
0.895024
-0.0159993
1.3191
-0.02461
1.64771
-0.0355443
1.95712
-0.0492543
2.25562
-0.0673486
2.57237
-0.0914891
2.91826
-0.124664
3.27803
-0.171878
3.63307
-0.228935
3.31529
-0.290798
2.50455
-0.477078
2.02885
-1.04549
2.36576
-1.68005
3.19644
-1.95272
3.21018
-2.09911
2.79219
-2.21289
2.33141
-2.30653
1.92496
1.58373
-2.36808
-0.00348933
0.35502
-0.00991378
0.901448
-0.0173315
1.32652
-0.0261835
1.65656
-0.0374059
1.96835
-0.0516705
2.26988
-0.0706429
2.59134
-0.0962365
2.94385
-0.131689
3.31348
-0.183069
3.68445
-0.245681
3.3779
-0.329628
2.5885
-0.611616
2.31083
-1.2637
3.01784
-1.75098
3.68372
-1.95799
3.41719
-2.09728
2.93148
-2.22109
2.45522
-2.33124
2.0351
1.64235
-2.38986
-0.0034176
0.358437
-0.00963415
0.907665
-0.0174781
1.33436
-0.0271675
1.66625
-0.039258
1.98044
-0.054374
2.285
-0.0743464
2.61131
-0.10119
2.9707
-0.138543
3.35084
-0.193119
3.73903
-0.260973
3.44575
-0.385564
2.71309
-0.773094
2.69836
-1.41006
3.65481
-1.76059
4.03425
-1.93308
3.58968
-2.03464
3.03304
-2.12316
2.54374
-2.18988
2.10182
1.63497
-2.1825
-0.00344727
0.361884
-0.0105903
0.914808
-0.0189858
1.34276
-0.0288919
1.67616
-0.04128
1.99282
-0.0569817
2.3007
-0.0778482
2.63218
-0.10615
2.999
-0.145704
3.39039
-0.202919
3.79624
-0.281404
3.52424
-0.450387
2.88207
-0.904073
3.15205
-1.46076
4.21149
-1.72157
4.29506
-1.87276
3.74087
-1.96617
3.12645
-1.96696
2.54453
-1.89711
2.03197
1.59766
-1.8598
-0.00321202
0.365096
-0.00984236
0.921438
-0.0185935
1.35151
-0.0294074
1.68697
-0.0426539
2.00607
-0.0590119
2.31706
-0.0804469
2.65362
-0.109161
3.02771
-0.149072
3.4303
-0.205705
3.85288
-0.291533
3.61006
-0.496212
3.08675
-0.987616
3.64345
-1.42773
4.65161
-1.59197
4.4593
-1.65861
3.80751
-1.66289
3.13073
-1.51518
2.39683
-1.01563
1.53241
0.582029
-0.00283244
0.367929
-0.0106972
0.929303
-0.0201244
1.36094
-0.0311937
1.69804
-0.0450183
2.0199
-0.0625249
2.33456
-0.0857383
2.67683
-0.117239
3.05921
-0.161329
3.47439
-0.225249
3.9168
-0.328189
3.713
-0.581978
3.34054
-1.12227
4.18375
-1.4795
5.00884
-1.57859
4.55839
-1.57649
3.80542
-1.47279
3.02703
-1.23399
2.15802
-0.630539
0.928961
-0.0485106
-0.00253015
0.370459
-0.00911435
0.935887
-0.0187599
1.37058
-0.0311326
1.71042
-0.046435
2.0352
-0.0654878
2.35362
-0.0907403
2.70208
-0.124958
3.09343
-0.173313
3.52275
-0.24312
3.98661
-0.366043
3.83593
-0.680854
3.65535
-1.24101
4.7439
-1.50044
5.26827
-1.55887
4.61682
-1.53626
3.7828
-1.33439
2.82516
-0.781304
1.60494
-0.108382
0.256039
-0.156892
-0.00155314
0.372012
-0.0095945
0.943928
-0.0199264
1.38091
-0.0323482
1.72284
-0.0480181
2.05087
-0.0681433
2.37374
-0.0951541
2.72909
-0.132222
3.1305
-0.184448
3.57497
-0.262586
4.06474
-0.41153
3.98487
-0.783705
4.02753
-1.31845
5.27864
-1.49418
5.44401
-1.52517
4.64781
-1.43687
3.6945
-1.10003
2.48832
-0.312438
0.817348
0.0247429
-0.0811426
-0.132149
-0.000979959
0.372992
-0.00655793
0.949506
-0.0166403
1.391
-0.0304709
1.73667
-0.0476608
2.06806
-0.069289
2.39537
-0.0983237
2.75813
-0.13795
3.17012
-0.193186
3.63021
-0.279736
4.15129
-0.455327
4.16046
-0.893402
4.4656
-1.36397
5.74921
-1.47964
5.55967
-1.48205
4.65022
-1.25753
3.46999
-0.685219
1.91601
-0.0628489
0.194977
0.0300554
-0.174047
-0.102094
7.08084e-05
0.372921
-0.0061237
0.955701
-0.0166417
1.40151
-0.0302309
1.75026
-0.0472847
2.08511
-0.0698337
2.41792
-0.100364
2.78866
-0.142237
3.212
-0.200707
3.68868
-0.296337
4.24693
-0.497741
4.36187
-0.985756
4.95362
-1.35871
6.12217
-1.42305
5.62401
-1.37667
4.60383
-1.0885
3.18181
-0.322213
1.14972
0.00450944
-0.131745
0.0147175
-0.184255
-0.0873765
0.00324706
0.369674
0.00062203
0.958326
-0.00994071
1.41208
-0.0250147
1.76533
-0.0433268
2.10342
-0.0672246
2.44182
-0.0993785
2.82081
-0.143254
3.25587
-0.204622
3.75005
-0.308571
4.35087
-0.536679
4.58997
-1.04862
5.46556
-1.32351
6.39706
-1.3634
5.66391
-1.22338
4.46382
-0.769896
2.72833
-0.0683084
0.448136
0.0442889
-0.244343
0.0241079
-0.164074
-0.0632686
0.00426356
0.365411
0.00214864
0.960441
-0.0078535
1.42208
-0.0216223
1.7791
-0.0389805
2.12078
-0.0634911
2.46633
-0.0965017
2.85382
-0.141753
3.30113
-0.20549
3.81378
-0.31714
4.46252
-0.574646
4.84748
-1.06966
5.96057
-1.25927
6.58667
-1.26868
5.67331
-1.04896
4.2441
-0.459311
2.13867
-0.0183221
0.00714742
-0.00664448
-0.25602
0.00475796
-0.175476
-0.0585106
0.00870433
0.356706
0.0103588
0.958786
0.0035929
1.42884
-0.0102635
1.79296
-0.029012
2.13953
-0.054142
2.49146
-0.0877481
2.88743
-0.133719
3.3471
-0.199442
3.87951
-0.317731
4.58081
-0.597585
5.12733
-1.0479
6.41088
-1.17165
6.71043
-1.15495
5.6566
-0.894944
3.9841
-0.262846
1.50657
-0.0697369
-0.185962
-0.0386372
-0.28712
-0.0143153
-0.199798
-0.0728259
0.0112454
0.345461
0.0155976
0.954434
0.0104208
1.43402
0.000299313
1.80308
-0.0180681
2.1579
-0.0424476
2.51584
-0.0756042
2.92058
-0.121349
3.39284
-0.187228
3.94538
-0.309073
4.70266
-0.595395
5.41366
-0.983008
6.7985
-1.04725
6.77466
-0.978731
5.58809
-0.675617
3.68099
-0.0693152
0.900273
0.0159414
-0.271218
0.000950195
-0.272129
-0.00138527
-0.197463
-0.0742111
0.0185336
0.326927
0.0304583
0.942509
0.0297225
1.43476
0.0187637
1.81404
0.0010891
2.17557
-0.0213911
2.53832
-0.0534011
2.95259
-0.0979591
3.4374
-0.16296
4.01039
-0.285099
4.8248
-0.565789
5.69435
-0.872265
7.10497
-0.907365
6.80976
-0.803348
5.48407
-0.442499
3.32014
0.0690374
0.388737
0.0792419
-0.281423
0.0586815
-0.251568
0.0222937
-0.161075
-0.0519174
0.024176
0.302751
0.0420154
0.92467
0.0448556
1.43192
0.0382363
1.82066
0.025929
2.18788
0.00437174
2.55987
-0.0254562
2.98242
-0.0670616
3.479
-0.128308
4.07163
-0.243725
4.94021
-0.491984
5.94261
-0.713094
7.32608
-0.740782
6.83745
-0.638731
5.38202
-0.304981
2.98639
0.00152495
0.0822315
0.019534
-0.299432
0.0303214
-0.262356
0.0147735
-0.145527
-0.037144
0.0352284
0.267523
0.0656954
0.894203
0.0773394
1.42027
0.0741918
1.8238
0.0634018
2.19867
0.0445409
2.57873
0.017819
3.00914
-0.0205088
3.51733
-0.0762623
4.12739
-0.17671
5.04066
-0.38105
6.14695
-0.535933
7.48096
-0.559279
6.8608
-0.459666
5.28241
-0.184965
2.71169
-0.0733018
-0.029432
-0.0539117
-0.318822
-0.0197363
-0.296531
-0.00174695
-0.163516
-0.0388909
0.044651
0.222872
0.0869563
0.851898
0.106872
1.40036
0.111599
1.81908
0.107695
2.20257
0.0935842
2.59285
0.072149
3.03058
0.0403443
3.54914
-0.00985009
4.17758
-0.084517
5.11533
-0.221828
6.28426
-0.310881
7.57002
-0.321483
6.8714
-0.268803
5.22973
-0.0817586
2.52464
-0.0970993
-0.0140914
-0.0707676
-0.345154
-0.0295037
-0.337795
-0.00240677
-0.190613
-0.0412977
0.0581988
0.164673
0.12112
0.788977
0.158616
1.36286
0.171374
1.80632
0.171284
2.20266
0.161577
2.60255
0.147152
3.045
0.124286
3.572
0.0883848
4.21348
0.0393686
5.16434
-0.0174719
6.3411
-0.0489038
7.60145
-0.0485796
6.87107
-0.00999289
5.19114
0.0540579
2.46059
-0.0812063
0.121173
-0.0869874
-0.339373
-0.0443318
-0.380451
0.00519371
-0.240139
-0.036104
0.0602072
0.104466
0.150868
0.698316
0.207272
1.30646
0.234698
1.77889
0.247014
2.19035
0.246176
2.60339
0.239086
3.05209
0.227231
3.58386
0.209502
4.23121
0.189476
5.18437
0.237844
6.29273
0.280347
7.55895
0.29382
6.8576
0.206411
5.27855
-0.0433251
2.71033
-0.283071
0.360918
-0.324759
-0.297684
-0.243377
-0.461832
-0.0968587
-0.386657
-0.132963
0.049869
0.0545971
0.184416
0.563769
0.281294
1.20958
0.327626
1.73256
0.347448
2.17052
0.355533
2.59531
0.355508
3.05212
0.356835
3.58253
0.358685
4.22936
0.37217
5.17088
0.520372
6.14453
0.660584
7.41873
0.651505
6.86668
0.441984
5.48807
-0.0666373
3.21895
-0.559614
0.853895
-0.634396
-0.222902
-0.49569
-0.600538
-0.253237
-0.629111
-0.386199
0.034404
0.0201931
0.219176
0.378997
0.34613
1.08263
0.424634
1.65406
0.467359
2.1278
0.490102
2.57256
0.498222
3.044
0.513392
3.56736
0.539915
4.20284
0.594919
5.11588
0.830629
5.90882
1.18862
7.06075
1.37352
6.68177
1.44481
5.41679
1.0046
3.65916
0.234951
1.62354
-0.284971
0.29702
-0.478852
-0.406657
-0.280053
-0.82791
-0.666252
0.0306324
-0.0104393
0.235965
0.173664
0.449957
0.868633
0.565965
1.53805
0.617912
2.07585
0.6517
2.53877
0.67207
3.02363
0.695652
3.54378
0.744827
4.15366
0.856284
5.00443
1.21223
5.55287
1.82706
6.44592
2.18782
6.32101
2.43789
5.16672
2.32456
3.77249
1.64721
2.30089
0.94031
1.00392
0.385197
0.148456
0.0811108
-0.523824
-0.585141
0.0241313
-0.0345706
0.158945
0.0388505
0.494768
0.532809
0.693767
1.33905
0.795638
1.97398
0.845947
2.48847
0.883468
2.98611
0.912124
3.51512
0.982153
4.08363
1.11647
4.87011
1.50789
5.16145
2.28704
5.66677
2.6791
5.92895
2.8609
4.98492
2.71905
3.91434
2.21538
2.80456
1.58791
1.63139
1.04974
0.686627
0.420038
0.105874
-0.165104
0.00250752
-0.0370781
0.0787973
-0.0374393
0.412538
0.199069
0.715409
1.03618
0.857394
1.832
0.896537
2.44932
0.901987
2.98066
0.885
3.53211
0.884419
4.08421
0.926547
4.82798
1.08569
5.0023
1.52985
5.22261
1.70795
5.75086
1.74768
4.94519
1.6599
4.00212
1.41822
3.04624
1.02411
2.0255
0.600919
1.10982
0.252953
0.45384
0.0878494
0.00404658
-0.0411247
0.0446322
-0.0780249
0.216084
0.0276172
0.547774
0.704491
0.721051
1.65872
0.784857
2.38552
0.801223
2.96429
0.79539
3.53794
0.77653
4.10307
0.795018
4.80949
0.871898
4.92542
1.17622
4.91829
1.36542
5.56165
1.3798
4.93082
1.31955
4.06237
1.15636
3.20943
0.865826
2.31603
0.542901
1.43274
0.228439
0.768301
0.316289
0.00427777
-0.0454024
0.0213883
-0.0951355
0.0923747
-0.0433691
0.381823
0.415043
0.580136
1.46041
0.667
2.29865
0.686518
2.94477
0.684953
3.53951
0.660369
4.12766
0.65742
4.81244
0.68556
4.89728
0.867535
4.73632
1.04674
5.38244
1.04573
4.93184
0.987652
4.12044
0.863805
3.33328
0.655958
2.52388
0.406543
1.68216
0.164282
1.01056
0.480571
-0.00355154
-0.0418509
-0.000977458
-0.0977096
0.0341001
-0.0784467
0.240575
0.208568
0.446383
1.2546
0.550183
2.19485
0.571739
2.92322
0.568655
3.54259
0.540898
4.15541
0.522166
4.83117
0.527527
4.89192
0.633443
4.6304
0.773508
5.24238
0.763962
4.94138
0.702697
4.18171
0.605565
3.43041
0.458899
2.67054
0.274927
1.86613
0.10159
1.1839
0.582161
-0.0103909
-0.03146
-0.00770921
-0.100391
0.0179833
-0.104139
0.138283
0.0882688
0.319927
1.07295
0.419806
2.09498
0.453501
2.88952
0.456957
3.53914
0.435792
4.17658
0.411533
4.85543
0.39818
4.90527
0.457376
4.5712
0.551032
5.14872
0.541596
4.95082
0.48245
4.24086
0.404029