/*--------------------------------*- C++ -*----------------------------------*\
  =========                 |
  \\      /  F ield         | OpenFOAM: The Open Source CFD Toolbox
   \\    /   O peration     | Website:  https://openfoam.org
    \\  /    A nd           | Version:  10
     \\/     M anipulation  |
\*---------------------------------------------------------------------------*/
FoamFile
{
    format      ascii;
    class       volVectorField;
    location    "65";
    object      U;
}
// * * * * * * * * * * * * * * * * * * * * * * * * * * * * * * * * * * * * * //

dimensions      [0 1 -1 0 0 0 0];

internalField   nonuniform List<vector> 
2200
(
(0.878838 -0.030411 0)
(1.00578 -0.0512786 0)
(1.00327 -0.0353943 0)
(1.00026 -0.024433 0)
(0.999886 -0.0166551 0)
(1.00004 -0.0107279 0)
(1.00003 -0.00683301 0)
(0.999989 -0.0041938 0)
(0.999908 -0.00219145 0)
(1.00019 -0.000630071 0)
(1.00012 0.00113358 0)
(1.00036 0.00264637 0)
(1.00036 0.0045392 0)
(1.00027 0.00712421 0)
(1.00015 0.0108457 0)
(1.00006 0.0166671 0)
(1.00037 0.0243752 0)
(1.00347 0.034854 0)
(1.00599 0.0513832 0)
(0.879056 0.0302934 0)
(0.712033 -0.0327616 0)
(0.996651 -0.063005 0)
(1.03333 -0.0561404 0)
(1.02491 -0.0464027 0)
(1.01587 -0.0360857 0)
(1.00963 -0.0263433 0)
(1.00591 -0.0181063 0)
(1.00378 -0.0113957 0)
(1.00267 -0.00600723 0)
(1.00216 -0.00155522 0)
(1.00188 0.00251303 0)
(1.00204 0.00701616 0)
(1.00324 0.0123285 0)
(1.00546 0.0189263 0)
(1.00935 0.0272351 0)
(1.01545 0.0369797 0)
(1.02456 0.0474823 0)
(1.03315 0.0580213 0)
(0.996706 0.0631408 0)
(0.711774 0.0330394 0)
(0.535572 -0.0238932 0)
(0.969933 -0.0569289 0)
(1.05645 -0.0547249 0)
(1.05228 -0.0487474 0)
(1.03628 -0.0404121 0)
(1.02448 -0.0322389 0)
(1.01593 -0.023953 0)
(1.0104 -0.0160537 0)
(1.00714 -0.00876619 0)
(1.0055 -0.00207927 0)
(1.00576 0.00438191 0)
(1.00743 0.0108001 0)
(1.01051 0.01777 0)
(1.01581 0.0254463 0)
(1.02412 0.0334153 0)
(1.03615 0.041384 0)
(1.05223 0.0493862 0)
(1.05631 0.0532556 0)
(0.969208 0.0576454 0)
(0.534387 0.0239398 0)
(0.392371 -0.0136443 0)
(0.911873 -0.046378 0)
(1.05754 -0.0468714 0)
(1.0696 -0.044279 0)
(1.0549 -0.0381378 0)
(1.03936 -0.0314546 0)
(1.02757 -0.0246624 0)
(1.0191 -0.0174427 0)
(1.01379 -0.00994 0)
(1.01125 -0.00242972 0)
(1.0108 0.00503286 0)
(1.01288 0.0125506 0)
(1.01808 0.0198905 0)
(1.02655 0.0267099 0)
(1.03847 0.0331392 0)
(1.05398 0.0396072 0)
(1.06819 0.0456818 0)
(1.05547 0.0483069 0)
(0.909894 0.0470084 0)
(0.38991 0.0137791 0)
(0.307782 -0.00451076 0)
(0.84681 -0.0323666 0)
(1.04944 -0.0399051 0)
(1.07951 -0.0381487 0)
(1.06826 -0.0334885 0)
(1.05173 -0.0278803 0)
(1.03836 -0.0224745 0)
(1.02811 -0.0163947 0)
(1.02096 -0.00948323 0)
(1.01691 -0.00178467 0)
(1.01694 0.00614008 0)
(1.02075 0.0134309 0)
(1.02752 0.0197604 0)
(1.03731 0.0254716 0)
(1.0502 0.0303762 0)
(1.06665 0.0356923 0)
(1.07767 0.0400612 0)
(1.04726 0.0417684 0)
(0.842939 0.0329846 0)
(0.303696 0.00474188 0)
(0.264386 0.000102068 0)
(0.789135 -0.0200654 0)
(1.0335 -0.0314474 0)
(1.08364 -0.0320172 0)
(1.07734 -0.0287304 0)
(1.06086 -0.0238266 0)
(1.04726 -0.0193368 0)
(1.03644 -0.01425 0)
(1.0287 -0.00818738 0)
(1.02438 -0.00126102 0)
(1.0238 0.0061259 0)
(1.02709 0.0128255 0)
(1.03435 0.018621 0)
(1.04501 0.023133 0)
(1.05862 0.0271258 0)
(1.07488 0.031538 0)
(1.08036 0.0342397 0)
(1.02922 0.033355 0)
(0.782567 0.0207372 0)
(0.25868 0.000122787 0)
(0.240464 0.00107042 0)
(0.738529 -0.0122693 0)
(1.0138 -0.024957 0)
(1.08412 -0.0267073 0)
(1.08311 -0.0243996 0)
(1.0679 -0.0202408 0)
(1.0543 -0.0162226 0)
(1.04334 -0.0116536 0)
(1.03503 -0.00622378 0)
(1.02992 0.00026444 0)
(1.02957 0.00691988 0)
(1.03405 0.0128926 0)
(1.0416 0.0174082 0)
(1.05177 0.0213843 0)
(1.06475 0.0247386 0)
(1.07944 0.0281912 0)
(1.07986 0.0297729 0)
(1.00748 0.0272797 0)
(0.728777 0.013161 0)
(0.233008 -0.000831445 0)
(0.226187 0.000963244 0)
(0.695752 -0.00801671 0)
(0.993314 -0.0206961 0)
(1.0824 -0.0230601 0)
(1.08697 -0.021203 0)
(1.07348 -0.0176361 0)
(1.06007 -0.0137851 0)
(1.04955 -0.00950984 0)
(1.04169 -0.0045925 0)
(1.0369 0.000983361 0)
(1.03601 0.00707191 0)
(1.03893 0.0122296 0)
(1.0457 0.0167671 0)
(1.05578 0.0201128 0)
(1.06921 0.023116 0)
(1.08191 0.0258506 0)
(1.07561 0.0268033 0)
(0.98322 0.023483 0)
(0.681666 0.0091392 0)
(0.216541 -0.000708012 0)
(0.216636 0.000624327 0)
(0.660379 -0.00565278 0)
(0.97275 -0.0175733 0)
(1.07961 -0.0201299 0)
(1.09037 -0.0185416 0)
(1.07835 -0.0153777 0)
(1.06488 -0.0117438 0)
(1.05425 -0.00747916 0)
(1.04612 -0.00254988 0)
(1.04085 0.00296039 0)
(1.04001 0.00824948 0)
(1.04396 0.0130222 0)
(1.05083 0.0165544 0)
(1.06014 0.019842 0)
(1.07255 0.0225155 0)
(1.08338 0.0246419 0)
(1.07088 0.0250818 0)
(0.959139 0.0210549 0)
(0.641521 0.00708261 0)
(0.20442 -0.000333795 0)
(0.20952 0.000301819 0)
(0.63199 -0.00418963 0)
(0.95411 -0.0149534 0)
(1.07669 -0.0178507 0)
(1.09353 -0.0164934 0)
(1.08306 -0.0135399 0)
(1.06971 -0.00988212 0)
(1.05939 -0.00583935 0)
(1.05178 -0.00121292 0)
(1.04694 0.00374954 0)
(1.04542 0.00890157 0)
(1.04739 0.0133585 0)
(1.05306 0.0172356 0)
(1.06245 0.0199303 0)
(1.07545 0.0222811 0)
(1.08431 0.0239827 0)
(1.06371 0.0239335 0)
(0.934207 0.0191863 0)
(0.606478 0.00596041 0)
(0.193922 4.65734e-05 0)
(0.203695 8.58781e-05 0)
(0.608679 -0.00313228 0)
(0.936081 -0.0125187 0)
(1.07353 -0.0155182 0)
(1.09692 -0.0143373 0)
(1.08781 -0.0115186 0)
(1.07422 -0.00796756 0)
(1.06332 -0.00385157 0)
(1.05493 0.000906227 0)
(1.04936 0.00612148 0)
(1.0479 0.0108964 0)
(1.05094 0.0148926 0)
(1.05713 0.0178046 0)
(1.06596 0.0205003 0)
(1.07787 0.022614 0)
(1.08462 0.0238332 0)
(1.05705 0.0231063 0)
(0.910444 0.0176652 0)
(0.576166 0.00529954 0)
(0.184263 0.00032494 0)
(0.199225 1.39226e-05 0)
(0.590717 -0.0022592 0)
(0.920926 -0.0101538 0)
(1.07074 -0.0133187 0)
(1.10033 -0.0122437 0)
(1.09273 -0.00952137 0)
(1.07913 -0.00590346 0)
(1.06832 -0.00198618 0)
(1.0603 0.00252962 0)
(1.05486 0.00730095 0)
(1.05238 0.0120847 0)
(1.05352 0.0161429 0)
(1.05855 0.0193592 0)
(1.06762 0.0213904 0)
(1.08013 0.0230954 0)
(1.08432 0.0239348 0)
(1.04765 0.0226378 0)
(0.885555 0.0164856 0)
(0.548311 0.00494008 0)
(0.17473 0.000497645 0)
(0.195668 3.28563e-05 0)
(0.576014 -0.00153777 0)
(0.906386 -0.008055 0)
(1.06792 -0.0109293 0)
(1.10391 -0.00978882 0)
(1.09776 -0.00697902 0)
(1.08405 -0.00336098 0)
(1.07252 0.000718278 0)
(1.06328 0.00536701 0)
(1.05673 0.0104929 0)
(1.05429 0.0150819 0)
(1.05646 0.0184952 0)
(1.06211 0.0207334 0)
(1.07075 0.0226899 0)
(1.08156 0.0240136 0)
(1.08351 0.0244182 0)
(1.03869 0.0224984 0)
(0.86162 0.0156552 0)
(0.523086 0.00478468 0)
(0.165506 0.000584891 0)
(0.193637 6.44913e-05 0)
(0.565671 -0.00075082 0)
(0.89532 -0.00585547 0)
(1.06586 -0.00864018 0)
(1.10771 -0.00739129 0)
(1.10304 -0.00456521 0)
(1.08925 -0.000835932 0)
(1.07761 0.00314547 0)
(1.06857 0.00767356 0)
(1.06212 0.0125378 0)
(1.05827 0.017108 0)
(1.05835 0.0206827 0)
(1.06275 0.0231278 0)
(1.07156 0.0243317 0)
(1.08269 0.0252108 0)
(1.08143 0.0251439 0)
(1.02643 0.0226698 0)
(0.835889 0.0151765 0)
(0.498374 0.00472874 0)
(0.156119 0.000622357 0)
(0.192813 0.000105437 0)
(0.55825 -0.000194367 0)
(0.885082 -0.00382663 0)
(1.06414 -0.00591365 0)
(1.11165 -0.00438987 0)
(1.10839 -0.00123848 0)
(1.09468 0.00268119 0)
(1.08246 0.00704258 0)
(1.07222 0.0119361 0)
(1.06396 0.0169371 0)
(1.06004 0.0210563 0)
(1.06109 0.0238912 0)
(1.06602 0.0254458 0)
(1.07414 0.0266195 0)
(1.08249 0.0270059 0)
(1.07888 0.026443 0)
(1.01449 0.0232986 0)
(0.810733 0.0150279 0)
(0.474989 0.00478679 0)
(0.146918 0.000644809 0)
(0.193464 8.96331e-05 0)
(0.554192 0.000885399 0)
(0.879069 -0.00146691 0)
(1.0638 -0.00315457 0)
(1.11626 -0.00125137 0)
(1.11431 0.00206424 0)
(1.10038 0.00624726 0)
(1.08774 0.0105709 0)
(1.07725 0.0152584 0)
(1.06907 0.0200991 0)
(1.06371 0.024535 0)
(1.06227 0.027329 0)
(1.06541 0.028787 0)
(1.07357 0.029213 0)
(1.08243 0.0293321 0)
(1.07406 0.0282768 0)
(0.998794 0.0242529 0)
(0.78319 0.0152326 0)
(0.450857 0.00494425 0)
(0.137286 0.000662438 0)
(0.195634 0.000264569 0)
(0.554541 0.00154727 0)
(0.874439 0.000682245 0)
(1.0646 1.9114e-05 0)
(1.12145 0.00231296 0)
(1.12067 0.00606619 0)
(1.10673 0.0106116 0)
(1.09358 0.0156522 0)
(1.08214 0.0211073 0)
(1.07221 0.026449 0)
(1.06586 0.0300316 0)
(1.06479 0.0319502 0)
(1.06837 0.0329946 0)
(1.07541 0.0333697 0)
(1.08056 0.0325578 0)
(1.0688 0.030798 0)
(0.983067 0.0258143 0)
(0.755542 0.0158176 0)
(0.426903 0.00523639 0)
(0.127511 0.000691293 0)
(0.19991 0.00067563 0)
(0.55734 0.00238846 0)
(0.874963 0.00342578 0)
(1.06731 0.0035174 0)
(1.12756 0.00650259 0)
(1.12772 0.0106368 0)
(1.11327 0.0157882 0)
(1.09928 0.0210292 0)
(1.08683 0.026319 0)
(1.07578 0.0311047 0)
(1.06811 0.0352491 0)
(1.06495 0.0374428 0)
(1.06618 0.0378701 0)
(1.07315 0.0369605 0)
(1.07892 0.0365096 0)
(1.06088 0.0338753 0)
(0.962706 0.0277261 0)
(0.724562 0.0167711 0)
(0.400998 0.00561217 0)
(0.116904 0.000713414 0)
(0.206431 0.000881053 0)
(0.564368 0.00351739 0)
(0.878923 0.00586909 0)
(1.07218 0.0076596 0)
(1.13462 0.0111969 0)
(1.13578 0.0159562 0)
(1.12099 0.0215089 0)
(1.10616 0.0275597 0)
(1.09269 0.0339578 0)
(1.08061 0.0400897 0)
(1.07115 0.0436513 0)
(1.06688 0.0443056 0)
(1.06815 0.0441671 0)
(1.07373 0.0437658 0)
(1.07479 0.0415433 0)
(1.05181 0.0379403 0)
(0.941741 0.0305322 0)
(0.692312 0.0181422 0)
(0.374048 0.00611913 0)
(0.105777 0.000748705 0)
(0.214892 0.00106085 0)
(0.575492 0.00480427 0)
(0.887152 0.0090932 0)
(1.07988 0.0123345 0)
(1.14311 0.0170382 0)
(1.14471 0.0225315 0)
(1.12907 0.0291477 0)
(1.11317 0.035806 0)
(1.09809 0.0422842 0)
(1.08318 0.0473972 0)
(1.07127 0.050551 0)
(1.06579 0.0520963 0)
(1.06518 0.0514917 0)
(1.06943 0.049257 0)
(1.07098 0.0475033 0)
(1.0395 0.042702 0)
(0.91474 0.0334993 0)
(0.655285 0.0197783 0)
(0.344003 0.00662457 0)
(0.0935194 0.000761085 0)
(0.227477 0.00142753 0)
(0.594423 0.0067505 0)
(0.902765 0.0134379 0)
(1.09106 0.0186108 0)
(1.15337 0.0241163 0)
(1.15528 0.0305393 0)
(1.1387 0.0378211 0)
(1.12112 0.0453241 0)
(1.1039 0.0527442 0)
(1.08753 0.059293 0)
(1.07458 0.0633032 0)
(1.06669 0.0625971 0)
(1.06504 0.060975 0)
(1.06854 0.0587743 0)
(1.06358 0.054823 0)
(1.02486 0.0485892 0)
(0.886166 0.037724 0)
(0.615731 0.021813 0)
(0.311965 0.00719994 0)
(0.0806067 0.000775716 0)
(0.243064 0.0019598 0)
(0.617253 0.00853838 0)
(0.923195 0.0178481 0)
(1.10649 0.0252879 0)
(1.1661 0.0327963 0)
(1.16738 0.0405197 0)
(1.14897 0.0494137 0)
(1.12952 0.0579171 0)
(1.11022 0.0658732 0)
(1.09061 0.0714779 0)
(1.07286 0.0729702 0)
(1.06384 0.0725262 0)
(1.06099 0.0705721 0)
(1.06124 0.0669758 0)
(1.05666 0.0630195 0)
(1.00633 0.0554048 0)
(0.849313 0.0417812 0)
(0.569106 0.0238468 0)
(0.27584 0.00764953 0)
(0.0665231 0.00075975 0)
(0.265357 0.00282288 0)
(0.650959 0.0124166 0)
(0.952671 0.0250161 0)
(1.12653 0.0352912 0)
(1.18151 0.0438087 0)
(1.18165 0.0535841 0)
(1.16088 0.0635128 0)
(1.13848 0.0729552 0)
(1.11542 0.0810476 0)
(1.09245 0.0868245 0)
(1.07427 0.0894301 0)
(1.06306 0.0876712 0)
(1.05821 0.0836406 0)
(1.05894 0.0791857 0)
(1.04463 0.0730624 0)
(0.983298 0.0629532 0)
(0.809541 0.0471083 0)
(0.519349 0.0261226 0)
(0.23775 0.0080061 0)
(0.0521489 0.000738044 0)
(0.296666 0.00374522 0)
(0.696209 0.0154949 0)
(0.991762 0.032993 0)
(1.15325 0.0468354 0)
(1.20076 0.0584942 0)
(1.19835 0.0702925 0)
(1.17391 0.0819561 0)
(1.14821 0.0921506 0)
(1.12235 0.100629 0)
(1.09648 0.105593 0)
(1.07302 0.105321 0)
(1.05842 0.101093 0)
(1.05227 0.0965883 0)
(1.04796 0.0906856 0)
(1.0329 0.0835781 0)
(0.955591 0.0717961 0)
(0.758696 0.05176 0)
(0.459372 0.0277884 0)
(0.195091 0.0079944 0)
(0.0369256 0.000631302 0)
(0.333205 0.00710321 0)
(0.754121 0.0248076 0)
(1.04098 0.0465856 0)
(1.18582 0.0647301 0)
(1.2238 0.0777244 0)
(1.21696 0.0926857 0)
(1.18773 0.105357 0)
(1.15765 0.115798 0)
(1.12671 0.123142 0)
(1.09549 0.126138 0)
(1.06975 0.124282 0)
(1.05462 0.119753 0)
(1.04723 0.113205 0)
(1.04333 0.106035 0)
(1.01429 0.0965565 0)
(0.919808 0.0804405 0)
(0.702708 0.0573697 0)
(0.397719 0.0295461 0)
(0.152679 0.00780971 0)
(0.0231365 0.000580299 0)
(0.413488 0.0107532 0)
(0.842014 0.035733 0)
(1.10769 0.0677251 0)
(1.22634 0.0904858 0)
(1.25081 0.106803 6.14265e-34)
(1.23688 0.123488 -2.776e-34)
(1.20119 0.136076 0)
(1.16611 0.145276 0)
(1.13108 0.150968 0)
(1.09686 0.151743 0)
(1.06799 0.147434 0)
(1.04875 0.139023 0)
(1.03821 0.130252 0)
(1.02694 0.120654 0)
(0.993893 0.108681 0)
(0.877877 0.0900526 0)
(0.632628 0.0609499 0)
(0.321066 0.0290577 0)
(0.103467 0.00721585 0)
(0.00799576 0.000753486 0)
(0.484749 0.0259379 4.47591e-20)
(0.944379 0.0601573 -3.39291e-20)
(1.17844 0.102168 0)
(1.26804 0.129449 2.64449e-20)
(1.27956 0.145147 -2.14451e-20)
(1.25634 0.163753 2.92895e-34)
(1.21382 0.174414 0)
(1.1737 0.18144 1.56691e-20)
(1.13323 0.184365 -5.14965e-20)
(1.09308 0.181812 1.05283e-20)
(1.05922 0.173279 0)
(1.03891 0.16279 -2.68167e-20)
(1.02822 0.152822 -3.22805e-20)
(1.01632 0.14222 5.65434e-20)
(0.958798 0.126779 -4.46586e-20)
(0.80893 0.0993691 0)
(0.533098 0.0635885 -1.60532e-20)
(0.231943 0.0272947 0)
(0.0541559 0.0068426 -8.87293e-20)
(-0.0082605 0.000383174 1.04571e-19)
(0.521121 0.0539077 -5.91362e-21)
(1.01022 0.102576 9.98664e-20)
(1.23027 0.152987 -5.12054e-21)
(1.30243 0.177426 -6.41452e-20)
(1.30465 0.194918 -4.52929e-20)
(1.27237 0.211738 7.36971e-20)
(1.22346 0.219644 0)
(1.1775 0.224038 0)
(1.1314 0.224375 8.17905e-20)
(1.08671 0.218854 0)
(1.05044 0.208067 9.65481e-20)
(1.02742 0.19617 2.87746e-20)
(1.01048 0.182957 5.34471e-22)
(0.983614 0.167129 -6.12991e-20)
(0.915684 0.145873 0)
(0.74178 0.11307 0)
(0.452807 0.0661375 -2.61179e-19)
(0.172142 0.0251165 6.56796e-19)
(0.0215206 0.00478894 -3.88227e-19)
(-0.0199725 -0.00147065 -4.57218e-19)
(0.52822 0.0768844 -5.36213e-20)
(1.04538 0.159846 2.09183e-20)
(1.26588 0.213212 1.1767e-20)
(1.32906 0.236701 1.11489e-19)
(1.3243 0.25294 1.46109e-20)
(1.28473 0.265198 -1.91635e-19)
(1.23021 0.269021 6.55528e-20)
(1.17913 0.269874 0)
(1.12787 0.266311 -1.72667e-19)
(1.07796 0.25692 1.53881e-19)
(1.037 0.243379 -2.60536e-19)
(1.00826 0.227016 1.22178e-19)
(0.990012 0.21101 -7.92388e-20)
(0.965377 0.195338 1.7868e-19)
(0.88129 0.170054 0)
(0.692895 0.126011 -6.50644e-20)
(0.403639 0.070109 0)
(0.149611 0.0250645 3.58036e-19)
(0.0100128 0.00291282 -8.48301e-19)
(-0.024819 -0.0034172 5.31037e-19)
(0.525187 0.108297 1.38984e-19)
(1.06939 0.217975 -6.18815e-20)
(1.28951 0.279168 -1.35512e-20)
(1.34678 0.301686 0)
(1.33688 0.31533 -8.27755e-20)
(1.292 0.322509 1.02282e-19)
(1.23277 0.321554 -7.00104e-20)
(1.17668 0.318027 0)
(1.12042 0.310655 1.22626e-19)
(1.06609 0.297493 -1.08059e-19)
(1.0206 0.278926 2.25226e-19)
(0.991435 0.259013 0)
(0.969567 0.241723 -1.68324e-19)
(0.9319 0.221035 9.48803e-20)
(0.847525 0.189071 2.38636e-19)
(0.658923 0.1407 -2.09958e-19)
(0.383128 0.0780007 3.31426e-19)
(0.145366 0.0277955 -7.33142e-19)
(0.00795706 0.00197165 4.63721e-19)
(-0.0268089 -0.00542414 -5.8004e-19)
(0.511433 0.132339 -4.11258e-20)
(1.07295 0.270184 2.90737e-20)
(1.29889 0.343981 -4.52772e-20)
(1.35574 0.367374 9.34897e-20)
(1.34275 0.379381 -9.01742e-20)
(1.29434 0.381247 3.19229e-20)
(1.23157 0.375395 3.76565e-21)
(1.17168 0.367596 -1.37553e-19)
(1.11138 0.355553 -1.28159e-19)
(1.05294 0.337597 -2.31493e-19)
(1.00426 0.315285 -4.84112e-19)
(0.969736 0.293264 -1.49429e-19)
(0.945522 0.272256 2.22327e-21)
(0.914592 0.250242 -3.24571e-19)
(0.822735 0.217128 -5.11893e-21)
(0.636349 0.157745 3.05367e-19)
(0.376234 0.0883292 -9.16198e-20)
(0.149234 0.0334974 -5.3066e-20)
(0.013831 0.00203405 0)
(-0.0250965 -0.0063923 1.23284e-18)
(0.496132 0.15378 0)
(1.07117 0.321793 1.1739e-23)
(1.30256 0.408446 -6.0816e-21)
(1.35834 0.431747 -1.29517e-20)
(1.34286 0.441908 8.59505e-20)
(1.29194 0.439533 -7.50769e-20)
(1.22632 0.429487 7.61165e-20)
(1.1632 0.417195 2.26025e-19)
(1.09984 0.400796 -7.12702e-20)
(1.03849 0.378596 1.14167e-19)
(0.985539 0.351656 2.60137e-19)
(0.949114 0.325503 3.25849e-19)
(0.923236 0.303944 -1.96356e-19)
(0.881203 0.27789 3.51505e-19)
(0.794523 0.237529 -2.78595e-19)
(0.616396 0.17822 0)
(0.371838 0.102496 -6.95763e-19)
(0.158472 0.0415729 9.36517e-19)
(0.0243207 0.00507456 6.98914e-20)
(-0.0206588 -0.00642726 -1.30406e-18)
(0.479145 0.173044 -5.1245e-21)
(1.05892 0.367704 -2.17122e-20)
(1.29799 0.468025 4.37003e-20)
(1.35541 0.493556 -6.75013e-20)
(1.3381 0.503414 7.26706e-20)
(1.28544 0.496779 -7.19979e-20)
(1.21796 0.482381 1.49913e-19)
(1.15278 0.465932 -6.71708e-20)
(1.08644 0.445232 -2.87518e-19)
(1.02036 0.418278 -3.22231e-22)
(0.963373 0.387411 -2.83124e-19)
(0.92468 0.359577 -3.5089e-19)
(0.896872 0.333949 2.17126e-19)
(0.862597 0.307 -1.26461e-19)
(0.772311 0.267062 3.03316e-19)
(0.601227 0.197235 0)
(0.370796 0.118099 -4.32683e-19)
(0.167983 0.0510893 6.39077e-19)
(0.0351638 0.00955923 1.2085e-18)
(-0.0155394 -0.00573723 -1.42133e-18)
(0.466098 0.191349 -1.00702e-19)
(1.0495 0.41434 4.51003e-20)
(1.29188 0.526891 -2.36505e-20)
(1.34893 0.552978 6.91444e-20)
(1.33004 0.561454 1.21979e-20)
(1.27614 0.551428 -1.40208e-19)
(1.20692 0.533802 -8.74551e-20)
(1.13925 0.513669 -8.68778e-20)
(1.07001 0.489268 -1.63003e-19)
(1.00189 0.458618 2.62047e-19)
(0.9437 0.423645 2.85739e-19)
(0.90352 0.392071 5.56726e-19)
(0.872867 0.364989 0)
(0.828873 0.335349 6.46808e-21)
(0.746107 0.287156 -8.34416e-19)
(0.58502 0.21911 1.95966e-19)
(0.36889 0.133881 9.3952e-19)
(0.176566 0.0618784 -2.77272e-19)
(0.0458931 0.0152183 5.75097e-19)
(-0.0100963 -0.00432496 -4.79195e-20)
(0.453616 0.207972 5.83834e-21)
(1.03381 0.454593 6.33724e-20)
(1.28104 0.58048 -4.05352e-21)
(1.33933 0.609269 6.47732e-20)
(1.3191 0.617847 -1.33373e-19)
(1.26405 0.604457 1.38362e-19)
(1.19349 0.583313 9.04837e-20)
(1.12443 0.559696 2.58693e-19)
(1.05343 0.531568 3.26002e-19)
(0.982454 0.496541 -3.03814e-19)
(0.920941 0.457546 0)
(0.877258 0.42387 -2.112e-19)
(0.846461 0.392906 2.42482e-19)
(0.810668 0.361646 3.06517e-19)
(0.725045 0.316604 -1.77427e-19)
(0.570512 0.237904 -4.31103e-19)
(0.366296 0.150177 -1.284e-19)
(0.1832 0.0729135 -2.01255e-21)
(0.0549209 0.0213742 0)
(-0.00520523 -0.00262791 0)
(0.445796 0.224734 -8.85835e-20)
(1.02325 0.496395 0)
(1.27045 0.633417 1.14798e-20)
(1.32782 0.663202 -1.76789e-20)
(1.30645 0.670407 1.54004e-19)
(1.25067 0.654252 -3.86011e-20)
(1.17902 0.630645 9.19382e-20)
(1.10849 0.604084 -1.74706e-19)
(1.03563 0.572852 2.47165e-19)
(0.96275 0.534595 -1.00775e-19)
(0.899503 0.492604 1.64025e-19)
(0.855221 0.454971 6.70635e-19)
(0.822586 0.422408 1.43239e-20)
(0.778 0.388097 -3.20063e-19)
(0.7001 0.333975 5.92692e-19)
(0.553632 0.259371 3.46608e-21)
(0.361458 0.16526 1.3737e-19)
(0.186952 0.0839591 -6.54827e-19)
(0.0614257 0.0271986 6.74749e-19)
(-0.00124445 -0.000919635 -7.94836e-19)
(0.437853 0.24075 2.45491e-23)
(1.00873 0.53214 0)
(1.25695 0.680848 0)
(1.3146 0.713823 3.33964e-21)
(1.29233 0.721165 -4.40649e-20)
(1.23576 0.70234 6.37653e-20)
(1.16338 0.675841 -1.69515e-19)
(1.09212 0.646377 0)
(1.01776 0.612255 -3.64888e-19)
(0.941892 0.570532 4.40703e-19)
(0.875598 0.524828 4.69472e-19)
(0.828846 0.48366 -2.46293e-19)
(0.795574 0.447894 -2.9877e-19)
(0.759699 0.411342 7.00899e-19)
(0.678714 0.361622 -2.10861e-19)
(0.536915 0.275542 -2.51191e-19)
(0.354092 0.179532 -1.50163e-19)
(0.187167 0.0933394 -7.07889e-19)
(0.0651701 0.0321737 1.03769e-19)
(0.00168173 0.000568225 8.60963e-19)
(0.432811 0.258211 -4.24883e-20)
(0.99877 0.569816 -5.74859e-20)
(1.24438 0.727899 2.37794e-20)
(1.3006 0.762131 -2.07168e-22)
(1.27762 0.768102 -5.02923e-20)
(1.22071 0.747003 9.96097e-20)
(1.14776 0.7186 0)
(1.07534 0.686915 1.06134e-19)
(0.999281 0.650412 -8.3687e-20)
(0.922094 0.606126 7.36202e-19)
(0.854355 0.55749 -1.05919e-19)
(0.806598 0.513222 1.2205e-19)
(0.771777 0.475462 0)
(0.726969 0.43514 -3.79696e-19)
(0.653069 0.374569 4.60234e-19)
(0.518355 0.293976 0)
(0.344441 0.191251 -3.23294e-19)
(0.184698 0.101299 9.51684e-19)
(0.0662558 0.0360588 1.13129e-19)
(0.00350157 0.00165078 -1.06164e-18)
(0.42907 0.275402 -1.05235e-19)
(0.986335 0.60209 1.33672e-19)
(1.23001 0.769625 0)
(1.28601 0.806954 2.71539e-20)
(1.26243 0.81319 0)
(1.2049 0.790055 -1.32328e-19)
(1.13142 0.759329 0)
(1.05843 0.725269 0)
(0.981099 0.686519 -1.1188e-19)
(0.901165 0.63964 -7.00082e-19)
(0.829846 0.588092 -8.68524e-19)
(0.779545 0.539963 1.43226e-19)
(0.743894 0.497478 5.1764e-19)
(0.70837 0.454365 4.18711e-19)
(0.631022 0.398785 -1.4773e-18)
(0.500091 0.305036 -5.90394e-19)
(0.333291 0.201771 3.462e-19)
(0.179898 0.107218 0)
(0.0653139 0.0385571 9.70602e-19)
(0.00431208 0.00237938 -1.14489e-18)
(0.427167 0.290965 1.24124e-19)
(0.977855 0.63614 -1.5408e-19)
(1.21705 0.81131 0)
(1.27133 0.849675 -1.13492e-20)
(1.24715 0.854709 -5.32118e-21)
(1.18943 0.829766 0)
(1.1156 0.797578 5.24856e-20)
(1.04167 0.761877 7.43746e-20)
(0.962852 0.721405 -2.0974e-19)
(0.881747 0.672735 9.25326e-20)
(0.808878 0.618412 0)
(0.757093 0.567032 5.93745e-19)
(0.72015 0.522975 6.06615e-21)
(0.674923 0.474937 2.26024e-19)
(0.605319 0.405691 2.68084e-19)
(0.480342 0.31851 0)
(0.321154 0.20857 -5.63747e-19)
(0.173384 0.111515 1.10439e-18)
(0.0632904 0.0398716 -1.17176e-18)
(0.00437318 0.0027717 2.46652e-18)
(0.425446 0.305784 0)
(0.966914 0.664951 0)
(1.20302 0.847769 -7.62699e-20)
(1.25667 0.888956 0)
(1.23193 0.894417 0)
(1.17365 0.867983 -1.05391e-19)
(1.09943 0.833983 5.3678e-20)
(1.02517 0.796402 1.78692e-20)
(0.945405 0.754253 -4.76963e-20)
(0.861745 0.703739 0)
(0.784882 0.64717 -1.32844e-19)
(0.729602 0.592709 -4.844e-19)
(0.690491 0.541687 -5.8407e-19)
(0.655331 0.489115 -2.35085e-19)
(0.582703 0.425312 2.90322e-19)
(0.461557 0.322462 -6.8383e-19)
(0.309592 0.213262 1.21346e-18)
(0.166563 0.112822 1.56872e-21)
(0.0606113 0.0407763 -1.12119e-18)
(0.0043352 0.00326218 -1.66343e-19)
(0.424324 0.319887 0)
(0.959373 0.695825 -1.24461e-19)
(1.19061 0.884562 9.22889e-20)
(1.24221 0.926514 0)
(1.21689 0.930919 0)
(1.15851 0.903059 2.09316e-19)
(1.08423 0.867979 0)
(1.00933 0.829253 0)
(0.92822 0.785973 -4.60863e-19)
(0.843114 0.734447 1.28972e-19)
(0.764262 0.675623 -1.17788e-18)
(0.706646 0.617879 0)
(0.666252 0.565071 -6.36147e-19)
(0.62 0.506352 1.00978e-20)
(0.555608 0.424164 -9.35085e-19)
(0.441821 0.328506 3.677e-19)
(0.298728 0.212481 1.23782e-21)
(0.163686 0.111086 -1.26267e-18)
(0.0594329 0.0390327 6.03207e-19)
(0.00246663 0.000959254 1.77895e-19)
(0.422985 0.33379 0)
(0.949747 0.721871 -1.68389e-19)
(1.17746 0.916398 9.71478e-20)
(1.22813 0.960824 1.36652e-19)
(1.20231 0.965714 -5.63128e-21)
(1.1435 0.936772 2.06313e-20)
(1.069 0.900333 -3.01849e-20)
(0.993901 0.860192 4.34879e-19)
(0.911927 0.815696 4.92993e-19)
(0.824373 0.762879 9.8105e-19)
(0.741754 0.702782 9.78642e-19)
(0.679278 0.642832 1.725e-19)
(0.634297 0.58203 9.14945e-19)
(0.59804 0.515582 5.6586e-19)
(0.530198 0.437974 6.71002e-19)
(0.42272 0.32149 -4.02275e-19)
(0.287892 0.205249 -4.63099e-19)
(0.164719 0.108448 5.44571e-19)
(0.0675673 0.0472859 -3.24271e-19)
(0.0100733 0.0107205 5.7662e-19)
(0.422071 0.347195 2.34913e-19)
(0.943206 0.750013 2.64029e-19)
(1.16592 0.949012 5.56631e-20)
(1.21442 0.993829 1.55165e-20)
(1.18806 0.997705 -1.60758e-20)
(1.12929 0.967618 -5.77154e-20)
(1.05493 0.930417 2.87669e-20)
(0.979336 0.889518 -1.91691e-20)
(0.89606 0.844342 -5.7459e-19)
(0.807002 0.791216 -1.06516e-18)
(0.721992 0.729996 6.79225e-20)
(0.656128 0.666695 0)
(0.609397 0.60462 0)
(0.558617 0.53154 -2.95382e-19)
(0.497765 0.427585 -1.1008e-18)
(0.401135 0.315483 8.66605e-19)
(0.286228 0.187196 5.07374e-19)
(0.177056 0.0873021 0)
(0.0847439 0.0172783 1.03779e-18)
(0.00387124 -0.016303 -6.1445e-19)
(0.420939 0.360222 -1.24679e-19)
(0.934742 0.773367 1.09916e-19)
(1.15373 0.976826 -1.32817e-19)
(1.20127 1.02376 -1.12102e-19)
(1.17454 1.02811 -2.14818e-20)
(1.11545 0.997225 -1.85043e-20)
(1.04095 0.959025 0)
(0.965189 0.917112 -5.46926e-19)
(0.881152 0.871094 6.94472e-20)
(0.789946 0.81719 0)
(0.701492 0.755599 0)
(0.629864 0.691561 1.10704e-19)
(0.574807 0.621643 1.48931e-19)
(0.53195 0.5376 -3.19634e-19)
(0.465399 0.437627 7.89963e-19)
(0.373246 0.293045 -9.44798e-19)
(0.269849 0.161972 -1.08881e-18)
(0.199333 0.0758819 9.64909e-19)
(0.153535 0.0701997 -3.68852e-19)
(0.11034 0.0752463 2.14569e-19)
(0.420162 0.372391 1.54547e-19)
(0.928985 0.798731 0)
(1.14309 1.00575 0)
(1.18854 1.05273 -3.15635e-20)
(1.16136 1.05607 2.55522e-20)
(1.10239 1.02424 -1.98756e-20)
(1.02814 0.985518 1.3201e-19)
(0.952003 0.943152 5.59241e-19)
(0.866885 0.89686 1.0432e-18)
(0.774325 0.843166 -8.06269e-20)
(0.683096 0.781594 1.67187e-19)
(0.607449 0.715008 -9.91776e-19)
(0.54992 0.645275 -9.91362e-19)
(0.486631 0.556402 -1.71989e-19)
(0.418141 0.420272 0)
(0.337576 0.281948 -4.52408e-21)
(0.251933 0.088199 6.01414e-19)
(0.244027 -0.0282755 -1.00919e-18)
(0.210807 -0.108784 7.66737e-19)
(0.0881752 -0.0995459 6.34449e-19)
(0.418958 0.384301 -3.40694e-19)
(0.921235 0.819353 -1.53144e-19)
(1.13172 1.03002 6.90798e-21)
(1.17632 1.07895 6.1877e-20)
(1.14884 1.08285 0)
(1.08958 1.0505 -4.58163e-20)
(1.0152 1.01114 -1.91975e-19)
(0.938947 0.968216 -2.343e-21)
(0.853214 0.92154 -5.46515e-19)
(0.758595 0.867562 -7.92147e-20)
(0.66413 0.806559 7.35785e-20)
(0.582632 0.741834 8.71499e-19)
(0.512082 0.665672 9.66943e-19)
(0.453406 0.56259 1.68045e-19)
(0.376756 0.438202 8.5729e-19)
(0.274763 0.246318 0)
(0.14836 0.0698293 0)
(-0.0107555 0.176958 6.89551e-19)
(-0.0786954 0.629796 -2.72006e-20)
(0.00955386 1.54433 -8.5622e-19)
(0.418208 0.39542 1.87838e-19)
(0.916069 0.842354 4.32712e-19)
(1.12184 1.05606 -5.99413e-19)
(1.16438 1.10492 3.0621e-19)
(1.1364 1.108 -1.13041e-20)
(1.07722 1.07507 4.28541e-21)
(1.0031 1.03562 0)
(0.926505 0.992772 -4.65533e-19)
(0.839766 0.946531 0)
(0.743848 0.893602 1.1127e-18)
(0.6462 0.833868 -9.02957e-20)
(0.559765 0.767872 1.0125e-19)
(0.487193 0.69524 1.1142e-18)
(0.39846 0.595987 -3.65245e-19)
(0.286476 0.422174 -4.35175e-19)
(0.184094 0.296299 0)
(0.0749632 0.462249 0)
(0.0244387 1.35938 0)
(0.0711432 2.47303 -3.91315e-19)
(0.0975128 2.9154 -2.41765e-19)
(0.4167 0.406076 0)
(0.908838 0.860478 0)
(1.11118 1.07736 2.18143e-19)
(1.15299 1.12824 -2.49367e-19)
(1.1247 1.13216 1.16708e-19)
(1.06522 1.09912 4.90574e-21)
(0.99093 1.0595 2.52444e-20)
(0.914248 1.01671 -1.96544e-20)
(0.827021 0.970767 7.77046e-20)
(0.729101 0.918368 -1.27706e-18)
(0.628259 0.860399 1.63383e-19)
(0.536281 0.799941 8.76756e-19)
(0.445654 0.72473 -1.10945e-18)
(0.36059 0.604112 -1.22622e-18)
(0.26419 0.479012 4.11844e-19)
(0.180699 0.624561 0)
(0.11341 1.58643 5.60554e-19)
(0.11827 2.70079 6.05014e-19)
(0.125682 3.09043 -6.75932e-19)
(0.118402 3.22337 7.19983e-19)
(0.415715 0.416451 0)
(0.904196 0.881203 3.78362e-19)
(1.10207 1.10084 -5.46786e-20)
(1.14192 1.15155 3.44311e-19)
(1.11311 1.15482 -1.22504e-19)
(1.05371 1.12151 0)
(0.979726 1.08219 0)
(0.90278 1.03989 0)
(0.814693 0.99503 4.34354e-19)
(0.715794 0.944599 5.86417e-20)
(0.61194 0.889152 0)
(0.514478 0.82791 -8.71289e-19)
(0.427879 0.758495 0)
(0.30468 0.649346 8.77351e-19)
(0.200144 0.698621 -5.94842e-19)
(0.145136 1.46613 -4.76535e-19)
(0.149227 2.68739 -1.09635e-18)
(0.172717 3.12609 -5.75937e-19)
(0.163313 3.26537 -7.73826e-19)
(0.150387 3.30557 5.63989e-19)
(0.414098 0.425797 -1.31633e-19)
(0.897379 0.896849 1.48394e-20)
(1.09211 1.11934 -6.06002e-20)
(1.13145 1.17222 -2.67059e-19)
(1.10234 1.17658 0)
(1.04267 1.14347 0)
(0.968498 1.10432 0)
(0.891526 1.06258 3.28983e-20)
(0.80316 1.01857 -5.49425e-19)
(0.702568 0.969423 0)
(0.596018 0.916679 0)
(0.49602 0.864287 0)
(0.383932 0.790748 0)
(0.308894 0.741649 6.44413e-19)
(0.265773 1.14038 1.58073e-18)
(0.238711 2.3999 4.63986e-19)
(0.255777 3.08157 9.28047e-19)
(0.250414 3.27879 -7.10575e-19)
(0.202178 3.34418 2.59978e-19)
(0.170504 3.35736 0)
(0.412946 0.435011 1.35222e-19)
(0.893101 0.916039 -8.37265e-19)
(1.08358 1.14121 -2.26011e-19)
(1.12102 1.19379 -5.01756e-20)
(1.09139 1.19759 2.84699e-20)
(1.03185 1.16444 -1.14481e-19)
(0.958062 1.12585 -5.59235e-22)
(0.880932 1.08486 -3.59272e-19)
(0.791914 1.0424 0)
(0.690784 0.995978 -7.52717e-20)
(0.582187 0.947011 6.84757e-20)
(0.476598 0.892811 0)
(0.382328 0.832364 0)
(0.321202 0.933582 -8.07438e-19)
(0.266383 1.85225 1.01099e-19)
(0.262826 2.94479 -3.48852e-19)
(0.287724 3.28192 7.29102e-19)
(0.259115 3.38014 5.2199e-19)
(0.194659 3.40472 -7.05209e-19)
(0.170278 3.41489 3.47884e-19)
(0.41087 0.44448 2.64789e-19)
(0.88565 0.930915 8.14419e-19)
(1.07314 1.15901 2.71981e-19)
(1.11037 1.21407 0)
(1.08057 1.21918 0)
(1.02083 1.18631 8.87386e-20)
(0.94692 1.14796 5.22185e-20)
(0.869971 1.10774 3.19842e-19)
(0.78103 1.06637 2.12132e-20)
(0.678748 1.02163 9.58192e-19)
(0.56868 0.975724 -1.14343e-18)
(0.458261 0.927765 0)
(0.379314 0.911531 0)
(0.333384 1.3093 -5.50731e-19)
(0.328987 2.49544 -6.61301e-19)
(0.373706 3.1943 0)
(0.398789 3.36242 -7.36002e-19)
(0.328068 3.42532 5.12005e-20)
(0.259807 3.47089 3.37625e-19)
(0.237715 3.49635 -1.09491e-19)
(0.409082 0.454272 -5.03073e-19)
(0.880779 0.952164 -3.90639e-19)
(1.06354 1.18318 0)
(1.09871 1.23733 0)
(1.06844 1.24156 0)
(1.00904 1.20847 0)
(0.93581 1.17061 -6.32548e-20)
(0.85899 1.13101 2.77836e-19)
(0.769782 1.09125 0)
(0.667799 1.04958 -8.72086e-19)
(0.557483 1.00806 2.05212e-18)
(0.447225 0.967571 8.41816e-20)
(0.395777 1.03175 1.13562e-19)
(0.385117 1.74208 8.97117e-19)
(0.395868 2.9015 -4.82291e-19)
(0.435755 3.31376 0)
(0.418845 3.43521 2.06758e-19)
(0.33306 3.52431 9.11612e-20)
(0.259328 3.5885 1.49345e-19)
(0.183848 3.56796 -1.62303e-20)
(0.406096 0.464615 2.38988e-19)
(0.87134 0.967943 -3.9744e-19)
(1.05108 1.20207 0)
(1.08643 1.25914 -7.35405e-20)
(1.05615 1.26482 2.54148e-19)
(0.996702 1.23184 0)
(0.923558 1.19396 0)
(0.847301 1.15511 -4.81317e-19)
(0.758717 1.11637 -5.55005e-20)
(0.656478 1.07636 8.55066e-19)
(0.543005 1.03716 -9.74822e-19)
(0.451697 1.01725 5.73517e-19)
(0.412098 1.22097 0)
(0.420113 2.1866 -4.75654e-19)
(0.462096 3.14262 3.12002e-19)
(0.527082 3.41566 1.9553e-19)
(0.518148 3.51115 0)
(0.455661 3.59329 -3.73837e-20)
(0.386824 3.633 -4.10481e-19)
(0.306469 3.60515 -9.67706e-20)
(0.40337 0.475143 -4.74649e-19)
(0.865373 0.99221 5.68746e-19)
(1.03985 1.22959 3.95493e-19)
(1.0729 1.2848 -9.84696e-20)