/*--------------------------------*- C++ -*----------------------------------*\
  =========                 |
  \\      /  F ield         | OpenFOAM: The Open Source CFD Toolbox
   \\    /   O peration     | Website:  https://openfoam.org
    \\  /    A nd           | Version:  10
     \\/     M anipulation  |
\*---------------------------------------------------------------------------*/
FoamFile
{
    format      ascii;
    class       volScalarField;
    location    "43";
    object      p;
}
// * * * * * * * * * * * * * * * * * * * * * * * * * * * * * * * * * * * * * //

dimensions      [0 2 -2 0 0 0 0];

internalField   nonuniform List<scalar> 
8800
(
0.913012
0.865223
0.82653
0.797531
0.77666
0.761817
0.751206
0.743708
0.738864
0.736774
0.738003
0.742161
0.748781
0.758078
0.770844
0.788567
0.813338
0.847274
0.889819
0.948521
0.744269
0.751947
0.759414
0.762719
0.761211
0.756125
0.749628
0.743534
0.738788
0.735913
0.735596
0.738064
0.742521
0.748442
0.755194
0.761462
0.765093
0.764352
0.758925
0.75023
0.722685
0.728844
0.732967
0.735904
0.737945
0.738537
0.737415
0.73529
0.733245
0.7323
0.733219
0.735562
0.738331
0.740489
0.741078
0.739866
0.737513
0.734112
0.72955
0.725789
0.716902
0.719551
0.722297
0.724692
0.726317
0.727465
0.728188
0.728282
0.727954
0.72786
0.728564
0.729692
0.730495
0.730532
0.7299
0.728792
0.726962
0.724381
0.721972
0.720468
0.711558
0.712981
0.714754
0.716776
0.718548
0.719873
0.720841
0.721608
0.722185
0.7227
0.723294
0.723738
0.723795
0.723472
0.722747
0.721476
0.719762
0.7179
0.716586
0.715754
0.706528
0.707447
0.708682
0.710238
0.711856
0.713362
0.714622
0.715655
0.716574
0.717408
0.718029
0.718293
0.718197
0.717713
0.716796
0.715566
0.714215
0.712937
0.712106
0.711555
0.701681
0.70235
0.703305
0.704596
0.705989
0.707426
0.708836
0.710119
0.711264
0.712299
0.713036
0.713325
0.713171
0.712604
0.711749
0.710763
0.709718
0.708771
0.708177
0.707773
0.696973
0.697488
0.698264
0.699382
0.700641
0.701991
0.703403
0.704829
0.706194
0.707443
0.708346
0.708715
0.7086
0.708138
0.707473
0.706696
0.705878
0.705166
0.704722
0.704407
0.692334
0.692744
0.693392
0.694385
0.695571
0.69687
0.698275
0.699777
0.701324
0.702816
0.703933
0.704461
0.70451
0.704242
0.703776
0.703193
0.702566
0.702037
0.701701
0.701446
0.687684
0.688018
0.688577
0.68949
0.690625
0.691904
0.693337
0.694923
0.696636
0.698388
0.699786
0.700572
0.700865
0.700819
0.700557
0.700174
0.699721
0.699341
0.699089
0.698878
0.68294
0.683216
0.683715
0.684581
0.685695
0.686994
0.688491
0.6902
0.692115
0.694167
0.695921
0.697043
0.697628
0.697835
0.697791
0.697603
0.697322
0.697071
0.696884
0.696703
0.678021
0.678252
0.678711
0.679561
0.680695
0.682058
0.683661
0.685546
0.687728
0.69015
0.692344
0.69387
0.694793
0.695285
0.695479
0.695487
0.695372
0.695234
0.695101
0.694943
0.672847
0.673042
0.67348
0.674344
0.67554
0.677009
0.678774
0.680905
0.683436
0.686335
0.689063
0.691063
0.692374
0.693183
0.693642
0.69385
0.693904
0.693872
0.693786
0.693644
0.667325
0.66749
0.667926
0.668832
0.670131
0.671755
0.673745
0.676196
0.679171
0.682667
0.686045
0.688612
0.690384
0.69156
0.692313
0.692761
0.692984
0.69305
0.693002
0.692872
0.661352
0.661491
0.661938
0.662916
0.664363
0.666201
0.668489
0.671346
0.674872
0.679098
0.683272
0.686531
0.688858
0.690465
0.691556
0.692262
0.692668
0.692837
0.692827
0.692706
0.654811
0.654925
0.655396
0.656474
0.658117
0.660236
0.662907
0.666286
0.670512
0.675641
0.680786
0.684876
0.687859
0.689974
0.691452
0.692454
0.693072
0.693347
0.693373
0.693257
0.647538
0.647628
0.648137
0.649351
0.651244
0.653721
0.656886
0.660933
0.666035
0.672281
0.678605
0.683691
0.687449
0.690169
0.692118
0.693456
0.694308
0.694698
0.694759
0.694645
0.639322
0.63941
0.63997
0.641331
0.643543
0.646482
0.650275
0.655156
0.661357
0.668987
0.676737
0.683012
0.687695
0.691133
0.69365
0.695399
0.696515
0.69703
0.697127
0.697011
0.629875
0.629938
0.63058
0.632153
0.634779
0.638307
0.642889
0.648817
0.656365
0.665671
0.675168
0.682894
0.688693
0.692987
0.696176
0.698412
0.699849
0.700506
0.700639
0.700518
0.618834
0.618881
0.619616
0.621489
0.624642
0.62893
0.634534
0.641819
0.651102
0.662509
0.674083
0.683486
0.690582
0.69589
0.699854
0.702677
0.704476
0.705287
0.705457
0.705327
0.605668
0.605697
0.606573
0.608842
0.612693
0.617978
0.624909
0.633921
0.645351
0.659303
0.673384
0.684806
0.69344
0.699943
0.704843
0.708354
0.710572
0.711553
0.711754
0.711612
0.589626
0.589646
0.590729
0.593545
0.598345
0.604983
0.613698
0.62498
0.639154
0.656232
0.673266
0.686995
0.697389
0.705265
0.711262
0.715584
0.718282
0.719441
0.719664
0.719501
0.569547
0.569569
0.570982
0.574637
0.580827
0.589393
0.600579
0.614882
0.632532
0.653387
0.673849
0.690196
0.702575
0.712013
0.719207
0.724451
0.727661
0.728989
0.729219
0.729028
0.54361
0.543657
0.545655
0.550696
0.55907
0.570493
0.585165
0.603488
0.625491
0.650835
0.67521
0.694476
0.70902
0.720171
0.728703
0.734939
0.73866
0.740126
0.740342
0.740118
0.508777
0.508936
0.512147
0.519783
0.531904
0.547733
0.567419
0.591057
0.618428
0.648974
0.67766
0.70003
0.716866
0.729802
0.739755
0.746975
0.751132
0.752667
0.752839
0.75258
0.459289
0.460278
0.466732
0.479715
0.498371
0.521034
0.547634
0.577982
0.611678
0.648026
0.681318
0.706911
0.726077
0.740837
0.752247
0.760374
0.764826
0.766327
0.766425
0.766131
0.386224
0.393509
0.408533
0.431537
0.459916
0.491726
0.5268
0.564921
0.605691
0.648412
0.68672
0.715857
0.737654
0.754488
0.76753
0.776585
0.781362
0.782884
0.782966
0.782713
0.307415
0.324611
0.348985
0.382628
0.421161
0.462287
0.505951
0.5521
0.600428
0.650335
0.694753
0.728485
0.753756
0.773326
0.788519
0.798816
0.803883
0.805332
0.805459
0.805362
0.241875
0.262123
0.294287
0.336852
0.384326
0.434241
0.486231
0.540245
0.595977
0.65285
0.703091
0.741128
0.769638
0.79171
0.808693
0.819702
0.824855
0.826576
0.826752
0.826717
0.18818
0.210118
0.24776
0.296741
0.351255
0.40855
0.467897
0.529128
0.591811
0.655303
0.711035
0.753059
0.784468
0.808672
0.8271
0.83921
0.845258
0.846838
0.847066
0.847107
0.143374
0.166473
0.207881
0.261939
0.322155
0.385531
0.451178
0.518804
0.587825
0.657458
0.718318
0.763996
0.798016
0.824218
0.844127
0.857129
0.863656
0.86538
0.865697
0.865746
0.105153
0.128933
0.173182
0.231243
0.296223
0.364772
0.435891
0.509183
0.583939
0.659221
0.724799
0.773834
0.810239
0.838166
0.859153
0.872893
0.879818
0.881897
0.882293
0.882353
0.0715199
0.0957665
0.142259
0.203606
0.272589
0.345619
0.42158
0.499963
0.579948
0.660436
0.730396
0.782513
0.821031
0.850303
0.87205
0.886255
0.893567
0.895996
0.896482
0.896542
0.0410009
0.065662
0.113989
0.178139
0.250568
0.327514
0.407802
0.490808
0.575615
0.660984
0.735085
0.790092
0.830466
0.860802
0.883052
0.8976
0.905192
0.907891
0.908458
0.908513
0.0126658
0.0377143
0.0876467
0.154175
0.22964
0.310054
0.394221
0.481453
0.570763
0.660778
0.738885
0.796665
0.83875
0.870003
0.892646
0.907476
0.91529
0.918141
0.918705
0.918728
-0.0142499
0.0112242
0.0626514
0.131264
0.209418
0.292935
0.380608
0.471727
0.565263
0.659757
0.741819
0.802337
0.846059
0.878146
0.901183
0.916184
0.924111
0.927042
0.927623
0.92761
-0.0400607
-0.0141517
0.0384031
0.10909
0.189655
0.27596
0.366816
0.461516
0.559039
0.657891
0.743904
0.807191
0.852571
0.885512
0.908946
0.924117
0.93208
0.935
0.935611
0.935594
-0.0651462
-0.0386645
0.014952
0.0874623
0.170185
0.259003
0.352752
0.450754
0.552037
0.655126
0.745126
0.811288
0.85843
0.89232
0.916203
0.931527
0.9395
0.942366
0.9429
0.942842
-0.0895961
-0.0627117
-0.00789858
0.066241
0.150921
0.242002
0.33837
0.439413
0.544226
0.651426
0.745463
0.814664
0.863743
0.898713
0.923105
0.938575
0.946489
0.949255
0.949693
0.94957
-0.113495
-0.0860892
-0.0302467
0.0453751
0.131827
0.224939
0.323669
0.427485
0.535591
0.646749
0.74486
0.817315
0.868576
0.9048
0.929745
0.945295
0.953038
0.955616
0.955939
0.955767
-0.136939
-0.108958
-0.0521179
0.0248638
0.112897
0.20783
0.308676
0.415002
0.526142
0.641059
0.743246
0.819194
0.872971
0.910688
0.936236
0.951765
0.95921
0.961502
0.961709
0.961503
-0.159923
-0.131292
-0.0735183
0.00471842
0.0941774
0.190713
0.293443
0.402013
0.515906
0.634331
0.74055
0.820223
0.876911
0.916478
0.942739
0.958085
0.965011
0.966918
0.966995
0.966768
-0.182276
-0.153038
-0.0943755
-0.0150225
0.0757063
0.17366
0.278035
0.388592
0.504941
0.626583
0.736699
0.820287
0.880317
0.922246
0.949492
0.964481
0.970523
0.971849
0.971779
0.971548
-0.203971
-0.174156
-0.114661
-0.0343
0.0575434
0.156729
0.262544
0.374817
0.493322
0.61784
0.731645
0.819248
0.883042
0.92798
0.956796
0.971435
0.976045
0.976341
0.976039
0.975859
-0.225071
-0.194605
-0.134346
-0.0530781
0.0397541
0.140004
0.247053
0.360789
0.481138
0.608168
0.725342
0.816958
0.884853
0.933487
0.964856
0.979774
0.982552
0.980844
0.979849
0.97993
-0.245406
-0.214365
-0.153374
-0.071294
0.0223976
0.123568
0.231658
0.346615
0.468504
0.597663
0.71779
0.813259
0.885453
0.938323
0.973443
0.99034
0.992191
0.987674
0.984385
0.983729
-0.265068
-0.233428
-0.171764
-0.0889787
0.00543749
0.107372
0.216297
0.332232
0.455345
0.586248
0.708853
0.807879
0.884505
0.941846
0.981657
1.00305
1.00713
1.00177
0.992385
0.9771
-0.283988
-0.251788
-0.189639
-0.106335
-0.0114202
0.0910762
0.200546
0.317149
0.441116
0.573273
0.697868
0.800002
0.881367
0.943111
0.98732
1.01478
1.02213
1.01073
0.991442
0.97776
-0.301994
-0.269588
-0.206809
-0.123141
-0.0278401
0.0750282
0.184633
0.301693
0.426127
0.559011
0.684945
0.789224
0.875371
0.940983
0.985699
1.01271
1.02369
1.00232
0.933721
0.902457
-0.31843
-0.288069
-0.222949
-0.138844
-0.0430722
0.0597306
0.168864
0.28609
0.410596
0.54359
0.670043
0.775304
0.865297
0.934977
0.972301
0.992339
0.987676
0.935928
0.866589
0.823704
-0.374536
-0.304358
-0.237661
-0.15453
-0.0587032
0.0437314
0.153175
0.270062
0.39416
0.526571
0.652591
0.757739
0.84754
0.924142
0.930254
0.938601
0.896077
0.829012
0.753204
0.710824
-0.33629
-0.320196
-0.259491
-0.175977
-0.0815541
0.0207343
0.129224
0.245452
0.36849
0.499282
0.622965
0.725968
0.807341
0.886516
0.878386
0.771227
0.668976
0.597749
0.525294
0.55756
-0.367632
-0.338232
-0.276598
-0.193856
-0.0994244
0.00265945
0.111413
0.227017
0.348984
0.477914
0.598645
0.697461
0.77065
0.812232
0.766591
0.622915
0.497906
0.408122
0.30993
0.361584
-0.391847
-0.359522
-0.296672
-0.213753
-0.119237
-0.0172339
0.0914565
0.206246
0.326812
0.453304
0.570266
0.663258
0.727324
0.736204
0.633318
0.463229
0.312447
0.194831
0.0639196
0.0976036
-0.415568
-0.381693
-0.317687
-0.233917
-0.139263
-0.0373748
0.0708329
0.184683
0.30366
0.427375
0.539733
0.626091
0.674907
0.653109
0.498309
0.304052
0.114848
-0.0528301
-0.242367
-0.259446
-0.438691
-0.404366
-0.339493
-0.254992
-0.160159
-0.058452
0.0491565
0.161958
0.279105
0.399688
0.50683
0.586001
0.616695
0.559888
0.370062
0.161288
-0.0553397
-0.24474
-0.488079
-0.793165
-0.462116
-0.427785
-0.362389
-0.277427
-0.182391
-0.080806
0.0262811
0.138009
0.253232
0.370461
0.472187
0.543056
0.554882
0.447651
0.258753
0.0506701
-0.152729
-0.324519
-0.391793
-0.473653
-0.486793
-0.452398
-0.386724
-0.301559
-0.206457
-0.105082
0.00139714
0.111888
0.224881
0.338252
0.434169
0.494645
0.48245
0.341657
0.160158
-0.0286275
-0.189735
-0.281209
-0.304806
-0.32102
-0.513035
-0.478514
-0.412669
-0.327467
-0.232486
-0.131486
-0.0258489
0.083109
0.193462
0.302335
0.391933
0.439196
0.409598
0.243229
0.0709201
-0.0924365
-0.217275
-0.255293
-0.268627
-0.269936
-0.541044
-0.506309
-0.440289
-0.355142
-0.260423
-0.160018
-0.0554693
0.0516292
0.158912
0.262697
0.345138
0.378662
0.331373
0.15183
-0.0112524
-0.157059
-0.232281
-0.248933
-0.250471
-0.250361
-0.570884
-0.535846
-0.469608
-0.384581
-0.290277
-0.190659
-0.0874578
0.0174421
0.121241
0.219399
0.293739
0.315569
0.23333
0.0678302
-0.0873459
-0.206689
-0.241396
-0.24087
-0.240597
-0.240096
-0.602273
-0.566951
-0.500519
-0.41569
-0.321953
-0.223344
-0.121771
-0.0194135
0.0804936
0.172529
0.238421
0.243739
0.141688
-0.0106476
-0.147769
-0.222007
-0.231852
-0.234166
-0.234745
-0.234523
-0.634664
-0.599174
-0.532766
-0.448239
-0.355255
-0.257902
-0.158237
-0.0587863
0.0368669
0.122401
0.179693
0.168416
0.0573352
-0.0776666
-0.192969
-0.222295
-0.231236
-0.232534
-0.232053
-0.231594
-0.667608
-0.631987
-0.565906
-0.48183
-0.389828
-0.293996
-0.196556
-0.100359
-0.00932663
0.0696753
0.116726
0.0948595
-0.0255358
-0.134249
-0.221163
-0.243621
-0.233296
-0.232078
-0.232081
-0.231701
-0.700228
-0.66469
-0.599082
-0.515863
-0.425119
-0.331131
-0.236251
-0.143603
-0.0575793
0.0150743
0.0519995
0.0252489
-0.107215
-0.186388
-0.214763
-0.23083
-0.234307
-0.233548
-0.233217
-0.233231
-0.730977
-0.696115
-0.631343
-0.549421
-0.460351
-0.368583
-0.276633
-0.187773
-0.107017
-0.0406413
-0.00902779
-0.0507459
-0.186895
-0.2659
-0.228711
-0.251394
-0.24768
-0.238971
-0.235868
-0.235101
-0.75831
-0.724504
-0.661563
-0.581334
-0.494475
-0.405392
-0.316781
-0.231949
-0.156321
-0.0963993
-0.0665797
-0.124147
-0.265472
-0.412706
-0.384013
-0.332165
-0.288369
-0.264908
-0.254418
-0.250712
-0.780178
-0.748038
-0.687792
-0.610202
-0.526201
-0.440381
-0.355543
-0.275012
-0.204107
-0.15043
-0.122602
-0.177449
-0.300322
-0.588005
-0.692315
-0.467581
-0.359465
-0.322693
-0.304856
-0.296337
-0.794391
-0.764868
-0.708109
-0.634199
-0.554016
-0.472186
-0.391627
-0.31564
-0.249122
-0.200204
-0.172892
-0.184769
-0.204607
-0.281513
-0.380082
-0.34558
-0.352221
-0.352428
-0.347488
-0.346347
-0.798367
-0.77281
-0.720663
-0.651513
-0.576213
-0.499352
-0.423635
-0.352462
-0.290011
-0.244493
-0.208976
-0.154953
0.0365266
0.301255
0.1068
-0.169758
-0.309678
-0.344474
-0.355646
-0.358818
-0.790247
-0.76948
-0.723368
-0.660541
-0.591278
-0.52027
-0.450119
-0.384033
-0.326186
-0.283979
-0.23543
-0.195467
-0.0571188
0.126814
-0.0767571
-0.300713
-0.420463
-0.457376
-0.466584
-0.471183
-0.767704
-0.751722
-0.714438
-0.660059
-0.598141
-0.533801
-0.469654
-0.408849
-0.356724
-0.31942
-0.286687
-0.41558
-0.639498
-0.803919
-0.764219
-0.71551
-0.723475
-0.711653
-0.699712
-0.698786
-0.732765
-0.722231
-0.694282
-0.650098
-0.596612
-0.539412
-0.481137
-0.425361
-0.377817
-0.348425
-0.351337
-0.624142
-1.02868
-1.27156
-1.07619
-1.03448
-0.988239
-0.896221
-0.838351
-0.847133
-0.691338
-0.685336
-0.667333
-0.633102
-0.588245
-0.537417
-0.48412
-0.43126
-0.384833
-0.355326
-0.362073
-0.558962
-0.962866
-1.55922
-1.9701
-2.13368
-2.02275
-1.71798
-1.42557
-1.32045
-0.652202
-0.648754
-0.639331
-0.61415
-0.575859
-0.529663
-0.479031
-0.426232
-0.37531
-0.334973
-0.3439
-0.447714
-0.698469
-0.954122
-1.12334
-1.21083
-1.21476
-1.07275
-0.902014
-0.813296
-0.622353
-0.620272
-0.615611
-0.597901
-0.564308
-0.519604
-0.468499
-0.411578
-0.352764
-0.296859
-0.257302
-0.227762
-0.0972183
0.159319
0.452601
0.719923
0.92221
1.05546
1.14016
1.18064
-0.597898
-0.597092
-0.595854
-0.585884
-0.556518
-0.511226
-0.455997
-0.392418
-0.322168
-0.243189
-0.159013
-0.0484437
0.223379
0.667568
1.13162
1.54496
1.82993
1.9979
2.07973
2.10411
-0.582387
-0.581818
-0.581476
-0.576779
-0.552199
-0.505333
-0.444103
-0.372329
-0.288743
-0.19597
-0.0896524
0.0256962
0.33351
0.794026
1.27839
1.71254
2.03101
2.21856
2.30472
2.3297
-0.572567
-0.572144
-0.571741
-0.570645
-0.551248
-0.502908
-0.434934
-0.35517
-0.263402
-0.161427
-0.054197
0.0459043
0.28724
0.719816
1.16194
1.55461
1.84657
2.01516
2.09076
2.11222
-0.567265
-0.565921
-0.564073
-0.565047
-0.553299
-0.504148
-0.429108
-0.341694
-0.246013
-0.141261
-0.0393938
0.0634454
0.220233
0.591953
0.955912
1.26245
1.49314
1.62551
1.68578
1.70301
-0.57562
-0.573539
-0.572701
-0.575788
-0.565038
-0.508321
-0.423187
-0.328045
-0.229685
-0.12483
-0.0260422
0.0698547
0.193859
0.461427
0.741636
0.964448
1.13425
1.23445
1.27983
1.29194
-0.596627
-0.597657
-0.604601
-0.607666
-0.586518
-0.509833
-0.409787
-0.308777
-0.210818
-0.110493
-0.0184895
0.0664785
0.151364
0.326363
0.532948
0.699176
0.825799
0.899704
0.932453
0.940718
-0.590172
-0.599179
-0.611726
-0.612333
-0.574467
-0.482775
-0.377318
-0.278881
-0.187964
-0.0983571
-0.0160193
0.0576252
0.127429
0.246932
0.39065
0.508254
0.598667
0.652807
0.676723
0.680338
-0.483137
-0.492893
-0.504687
-0.50293
-0.467623
-0.393857
-0.311924
-0.232414
-0.157945
-0.0837197
-0.0130385
0.0484811
0.108653
0.178403
0.276645
0.360175
0.423147
0.460329
0.474609
0.475725
-0.290672
-0.296568
-0.304299
-0.306437
-0.291365
-0.258282
-0.216367
-0.169646
-0.119657
-0.0647451
-0.0116866
0.0354558
0.0801302
0.1212
0.183063
0.242779
0.287767
0.315167
0.326799
0.326954
-0.101599
-0.104535
-0.110873
-0.119933
-0.127278
-0.128458
-0.121007
-0.104725
-0.079917
-0.0467212
-0.0117265
0.02141
0.0505552
0.0723323
0.112185
0.153221
0.183375
0.200913
0.206428
0.205551
0.0244
0.0228281
0.0169775
0.00357355
-0.0162216
-0.0351918
-0.0476808
-0.0512654
-0.0449681
-0.0295568
-0.0106577
0.00697288
0.0200109
0.0315544
0.0548882
0.0819739
0.102153
0.112439
0.115352
0.11398
0.0838479
0.0827401
0.0775058
0.0642278
0.0429649
0.0197848
8.6504e-05
-0.0129609
-0.0180385
-0.0156208
-0.0106878
-0.00787036
-0.00823556
-0.00214211
0.0152411
0.032064
0.0430314
0.0471992
0.0480721
0.0468585
0.101569
0.100698
0.0965773
0.0859268
0.0683312
0.0477827
0.0280851
0.0119952
0.00109057
-0.00488666
-0.0099363
-0.0176488
-0.0265035
-0.0241833
-0.0115933
-0.000858827
0.00420894
0.00515499
0.00457214
0.00367555
0.0993853
0.0987708
0.0958628
0.0882232
0.0752135
0.0590712
0.0423231
0.0270898
0.0145697
0.00434732
-0.00655723
-0.0202686
-0.0329046
-0.0303577
-0.0211281
-0.0159878
-0.0148062
-0.0161287
-0.0170954
-0.0177333
0.0894543
0.089054
0.0871544
0.0820686
0.073101
0.0614055
0.0484517
0.03568
0.0239545
0.0129784
0.000547515
-0.0151377
-0.0278176
-0.0236347
-0.0166822
-0.0145357
-0.0161786
-0.018556
-0.0196379
-0.0201589
0.0775314
0.0772796
0.0761185
0.0729664
0.0671912
0.0592705
0.0500277
0.0404553
0.0310996
0.0219692
0.0115639
-0.000852341
-0.00927985
-0.0035391
0.000195214
-0.000585006
-0.00358951
-0.00611607
-0.0070552
-0.00751595
0.0661433
0.0659798
0.0653205
0.0635425
0.0601566
0.0552632
0.0492824
0.0429168
0.0367382
0.0311676
0.0261348
0.0209436
0.0194011
0.0252409
0.0261576
0.022927
0.0193805
0.0172537
0.016493
0.0160098
0.0562883
0.0561905
0.0558598
0.0550048
0.0532736
0.0506027
0.0472629
0.0437726
0.0409143
0.0398197
0.0418266
0.0457596
0.0508138
0.0560779
0.0546011
0.0506634
0.0476143
0.0463907
0.0459365
0.0453729
0.0480665
0.0480029
0.0478777
0.0475986
0.0469423
0.0458198
0.0444077
0.0432184
0.0432973
0.0465983
0.0556125
0.06946
0.0832377
0.08715
0.0822494
0.0776102
0.0758582
0.0758188
0.0755381
0.0747416
0.0410754
0.0410429
0.0410243
0.0410494
0.0410308
0.0408616
0.0407201
0.041174
0.0433423
0.0497473
0.0639073
0.0849628
0.104246
0.105158
0.0988026
0.0956882
0.09567
0.0971379
0.0971054
0.096169
0.0347993
0.0347881
0.0348251
0.0349719
0.035209
0.0355152
0.0360804
0.0374143
0.0406105
0.0481657
0.0638464
0.0866163
0.10639
0.106694
0.102632
0.102704
0.104585
0.106868
0.106725
0.10564
0.0286802
0.0286865
0.0287517
0.0289163
0.0292504
0.029696
0.0304802
0.0320091
0.0351483
0.0418527
0.0547368
0.0736415
0.0895665
0.0892511
0.0875193
0.0914309
0.0977012
0.10134
0.101235
0.100097
0.022359
0.0223637
0.0224138
0.0225128
0.0227799
0.02327
0.0240051
0.0252899
0.0276496
0.0320087
0.0390765
0.0477224
0.0539988
0.0538157
0.0591408
0.068538
0.076886
0.0804364
0.0803864
0.0794026
0.0157407
0.0157305
0.0157465
0.0157853
0.0159827
0.0163501
0.0168651
0.0177125
0.019057
0.0207747
0.02066
0.0157486
0.00746708
0.0104949
0.024374
0.0385887
0.0475396
0.0507069
0.0505888
0.0498762
0.00885968
0.00883588
0.00885714
0.00887019
0.00889396
0.00907395
0.00934707
0.00994879
0.0106205
0.0104775
0.0056348
-0.0105709
-0.0256395
-0.0200818
-0.00298406
0.0117745
0.0183566
0.020286
0.0202915
0.0198797
0.00204288
0.00200316
0.00196937
0.00195487
0.00185972
0.00166546
0.00166276
0.00206553
0.00220292
0.00265269
0.00228333
-0.00293127
-0.0119334
-0.00995598
-0.00684967
-0.00676312
-0.00940587
-0.0094557
-0.00536767
-0.00326424
-0.0112428
0.157715
0.355367
0.527483
0.665516
0.77486
0.865597
0.942556
0.977211
0.953902
0.296399
0.418599
0.550052
0.663881
0.76005
0.839825
0.904393
0.950134
0.973042
0.985058
0.518278
0.602141
0.691976
0.771512
0.839981
0.897272
0.942801
0.976038
1.00002
1.01796
0.680923
0.740751
0.803505
0.861242
0.911545
0.954248
0.989298
1.01724
1.0402
1.05847
0.807693
0.85135
0.897798
0.942056
0.981164
1.0153
1.04451
1.06879
1.08929
1.10711
0.912815
0.946022
0.984453
1.0203
1.0532
1.08266
1.1084
1.13002
1.14794
1.16528
1.00588
1.03476
1.06895
1.10128
1.1314
1.15871
1.18257
1.20238
1.21794
1.23501
1.09478
1.12411
1.15825
1.19042
1.22013
1.24681
1.26975
1.28829
1.3017
1.31874
1.19029
1.22358
1.26031
1.29396
1.32408
1.35032
1.37232
1.38964
1.40153
1.41894
1.30541
1.34329
1.38199
1.41628
1.44567
1.47045
1.49085
1.50677
1.51826
1.53633
1.45042
1.489
1.52518
1.55589
1.5816
1.60372
1.62279
1.63834
1.65078
1.66878
1.62556
1.65719
1.68339
1.70586
1.72585
1.74459
1.76232
1.77881
1.79416
1.81223
1.8142
1.83141
1.84646
1.8627
1.87862
1.89316
1.90637
1.9203
1.93785
1.95801
1.99593
2.00548
2.01703
2.02784
2.03713
2.04672
2.05751
2.06888
2.08024
2.0956
2.20319
2.20685
2.19191
2.1771
2.17082
2.1765
2.19499
2.2253
2.25748
2.28414
2.5095
2.37464
2.29801
2.25564
2.23822
2.24218
2.26958
2.32599
2.42862
2.65298
0.80361
0.801479
0.796994
0.788365
0.776134
0.763998
0.753757
0.745843
0.740199
0.736909
0.736509
0.739202
0.744269
0.751463
0.76083
0.772356
0.784996
0.796024
0.802132
0.805183
0.728073
0.733918
0.740252
0.744739
0.747201
0.746867
0.744116
0.740286
0.736748
0.734449
0.734255
0.736404
0.740027
0.744285
0.748069
0.749936
0.748988
0.745497
0.740328
0.733706
0.719669
0.721965
0.725365
0.728354
0.730421
0.731905
0.732644
0.732305
0.73125
0.730325
0.730446
0.731819
0.73359
0.73486
0.735013
0.734102
0.732538
0.73019
0.726919
0.723995
0.714185
0.715271
0.7171
0.719471
0.721484
0.722898
0.7239
0.724625
0.724991
0.725165
0.725594
0.72634
0.726886
0.72691
0.726464
0.72559
0.724101
0.722001
0.719904
0.718518
0.709018
0.709681
0.710785
0.712481
0.714251
0.715866
0.71714
0.718125
0.718966
0.7197
0.720358
0.720835
0.720964
0.720746
0.720138
0.71905
0.717596
0.716032
0.714701
0.713917
0.704088
0.704549
0.705331
0.706619
0.708092
0.709591
0.71103
0.712294
0.713381
0.71437
0.715199
0.715675
0.715742
0.715403
0.714652
0.71362
0.71246
0.711302
0.710371
0.70985
0.699317
0.699662
0.700269
0.701327
0.702606
0.703958
0.705368
0.706773
0.70809
0.709291
0.710297
0.710876
0.710955
0.710596
0.709929
0.709096
0.7082
0.707301
0.706608
0.706227
0.694653
0.694921
0.695411
0.696309
0.697462
0.698734
0.700096
0.701538
0.703013
0.704439
0.705661
0.706391
0.706568
0.706341
0.70586
0.705228
0.704522
0.703838
0.703323
0.703032
0.690019
0.690232
0.690638
0.691426
0.692498
0.693719
0.695065
0.696546
0.698139
0.699782
0.701261
0.702218
0.7026
0.702585
0.70231
0.701876
0.701357
0.700853
0.700473
0.700244
0.685333
0.685504
0.685851
0.686566
0.687591
0.688788
0.690155
0.691707
0.693437
0.695308
0.697093
0.698365
0.699032
0.69927
0.699217
0.698986
0.698655
0.698307
0.698037
0.697855
0.680511
0.68065
0.680955
0.681625
0.682632
0.683849
0.685275
0.68694
0.688858
0.691006
0.693164
0.694834
0.695845
0.696373
0.696567
0.696545
0.696395
0.696196
0.696018
0.695872
0.675474
0.675585
0.675862
0.676514
0.677538
0.678821
0.680352
0.682185
0.684361
0.68687
0.689496
0.691638
0.693045
0.693903
0.694371
0.694572
0.694602
0.694545
0.694446
0.694328
0.670138
0.670225
0.670485
0.671142
0.67222
0.673611
0.6753
0.677366
0.679876
0.682845
0.686048
0.68876
0.690637
0.691875
0.692649
0.693102
0.693328
0.693404
0.693374
0.69328
0.664406
0.664472
0.664724
0.665407
0.666575
0.66812
0.670027
0.672403
0.675338
0.678888
0.682801
0.6862
0.688638
0.690322
0.691448
0.692182
0.692619
0.692835
0.692871
0.692796
0.658165
0.658209
0.65846
0.659192
0.660489
0.662241
0.664436
0.667204
0.670672
0.674929
0.679709
0.683957
0.687079
0.689299
0.690833
0.691881
0.692567
0.692933
0.693034
0.692976
0.651276
0.6513
0.651554
0.652357
0.653827
0.655849
0.658418
0.661699
0.665854
0.671008
0.676856
0.682113
0.68604
0.688888
0.6909
0.692312
0.693279
0.693807
0.693974
0.693931
0.643569
0.643579
0.643836
0.644727
0.646422
0.648776
0.65182
0.655745
0.660759
0.667023
0.674177
0.68066
0.685547
0.689142
0.691738
0.693597
0.694879
0.695587
0.695823
0.695794
0.634746
0.634723
0.635034
0.636062
0.638029
0.640817
0.644471
0.64921
0.655293
0.662928
0.671678
0.679636
0.685684
0.690169
0.693451
0.695854
0.697509
0.698423
0.698735
0.698717
0.624547
0.6245
0.624852
0.626059
0.628374
0.631718
0.636143
0.641914
0.649352
0.658686
0.669381
0.679125
0.686544
0.692087
0.696192
0.69923
0.701329
0.702478
0.70287
0.702862
0.612491
0.612415
0.612844
0.614293
0.617069
0.621142
0.626577
0.633696
0.642869
0.654344
0.667399
0.679232
0.688257
0.695044
0.700118
0.703889
0.706508
0.707926
0.708402
0.7084
0.597962
0.597856
0.598403
0.600177
0.603562
0.608605
0.61537
0.624232
0.635597
0.649691
0.665596
0.679936
0.690855
0.6991
0.705332
0.709986
0.713217
0.714934
0.715494
0.71549
0.58001
0.579878
0.580615
0.582877
0.58713
0.593538
0.602146
0.613374
0.627619
0.645016
0.664315
0.681501
0.694545
0.704432
0.71198
0.717644
0.721562
0.7236
0.724233
0.724218
0.557171
0.557024
0.558094
0.561132
0.566716
0.575142
0.586373
0.600815
0.618763
0.640186
0.663469
0.683931
0.699373
0.711101
0.720091
0.726892
0.731555
0.733911
0.734598
0.73456
0.527096
0.526974
0.528657
0.533064
0.540904
0.552506
0.567621
0.586512
0.609243
0.63555
0.663402
0.687449
0.70547
0.71916
0.729713
0.737728
0.743123
0.745747
0.746451
0.746378
0.485644
0.485689
0.48874
0.496022
0.508065
0.524901
0.545795
0.570693
0.599385
0.631404
0.664326
0.692207
0.712922
0.728653
0.74082
0.750071
0.756095
0.758859
0.759522
0.759408
0.425129
0.426326
0.43384
0.447517
0.467269
0.492419
0.521446
0.553995
0.589757
0.628163
0.66649
0.698314
0.721742
0.739479
0.753255
0.763615
0.770108
0.772826
0.773335
0.77318
0.352876
0.354682
0.369074
0.39271
0.423298
0.458261
0.4962
0.536975
0.580394
0.625952
0.670674
0.707521
0.734634
0.755204
0.771048
0.782811
0.789925
0.792727
0.793294
0.793256
0.278191
0.284421
0.305688
0.339489
0.380367
0.424888
0.471722
0.520782
0.571961
0.624812
0.676144
0.718244
0.749207
0.772808
0.791112
0.804467
0.812041
0.814511
0.814887
0.814941
0.217218
0.225701
0.251603
0.292423
0.341264
0.393917
0.448762
0.505568
0.564148
0.624007
0.681659
0.728683
0.763197
0.789482
0.809767
0.824329
0.832109
0.834881
0.835691
0.835816
0.167551
0.176619
0.206072
0.252098
0.307038
0.366245
0.427839
0.491477
0.556796
0.62319
0.686778
0.738395
0.776127
0.804775
0.826849
0.842609
0.851318
0.85471
0.855703
0.855849
0.125824
0.13517
0.167067
0.217061
0.276987
0.341633
0.408944
0.478537
0.549891
0.622265
0.691357
0.747204
0.787875
0.818699
0.842405
0.859183
0.868664
0.872514
0.873684
0.873834
0.0896689
0.099134
0.132872
0.186051
0.250065
0.319323
0.391618
0.466474
0.543262
0.621102
0.695263
0.755008
0.79836
0.831067
0.855998
0.873555
0.883717
0.88797
0.889217
0.889374
0.0574382
0.0669566
0.102108
0.157969
0.225404
0.298622
0.37531
0.454886
0.536624
0.619506
0.698403
0.761788
0.807574
0.841839
0.867617
0.885676
0.896329
0.900925
0.902276
0.902449
0.0278769
0.0374578
0.0737638
0.131938
0.202322
0.278999
0.359585
0.443428
0.529713
0.617323
0.700726
0.767593
0.815635
0.851251
0.877713
0.896161
0.907078
0.911951
0.913396
0.91357
0.000158609
0.00980151
0.0471564
0.10731
0.180319
0.260061
0.34413
0.431846
0.522348
0.614436
0.70221
0.772483
0.822698
0.85954
0.886596
0.905346
0.916446
0.921495
0.922948
0.923114
-0.0262554
-0.0165206
0.0218049
0.0836511
0.159041
0.241523
0.328733
0.419986
0.514406
0.610768
0.702841
0.776521
0.828887
0.866924
0.894555
0.913585
0.924814
0.929896
0.931352
0.931445
-0.0518061
-0.0418913
-0.00271107
0.0607628
0.138259
0.223203
0.313256
0.40774
0.505817
0.60627
0.702593
0.77974
0.834328
0.87362
0.901875
0.921183
0.932515
0.937571
0.938981
0.939056
-0.0766895
-0.066539
-0.0265988
0.0384579
0.117842
0.204996
0.297618
0.395057
0.496534
0.6009
0.701434
0.782149
0.839105
0.879784
0.908756
0.928369
0.939771
0.94476
0.946077
0.946135
-0.100968
-0.0906
-0.0498432
0.0165947
0.0977043
0.18686
0.28179
0.381916
0.486539
0.594617
0.699315
0.783739
0.843273
0.885523
0.915313
0.935233
0.946631
0.951476
0.95267
0.952669
-0.124763
-0.114091
-0.0725793
-0.00483483
0.0778284
0.168776
0.265778
0.368332
0.475842
0.587413
0.69618
0.784454
0.846845
0.890927
0.921659
0.941851
0.953137
0.957749
0.95876
0.958695
-0.148009
-0.137055
-0.0948043
-0.0258463
0.0582286
0.150776
0.249624
0.354349
0.464475
0.579278
0.691975
0.784215
0.849792
0.896058
0.927921
0.948343
0.95933
0.963553
0.964353
0.964235
-0.170739
-0.159481
-0.116454
-0.046411
0.0389381
0.132902
0.23338
0.340034
0.452494
0.570234
0.68666
0.782932
0.852027
0.900935
0.93426
0.954895
0.965318
0.968922
0.969451
0.969283
-0.192772
-0.181281
-0.137502
-0.0664709
0.020012
0.115228
0.217114
0.325459
0.439971
0.560338
0.680211
0.780508
0.853423
0.905506
0.940842
0.961849
0.971359
0.973914
0.974029
0.97382
-0.214241
-0.202407
-0.157923
-0.0859958
0.00148827
0.0977975
0.200922
0.310707
0.426995
0.549667
0.672641
0.776838
0.853798
0.909599
0.947735
0.969718
0.978115
0.978889
0.978125
0.977841
-0.234979
-0.222833
-0.177686
-0.104937
-0.0165509
0.0806969
0.184883
0.295897
0.413673
0.538289
0.663992
0.77183
0.852941
0.912904
0.954731
0.978958
0.986912
0.985261
0.982332
0.981125
-0.255046
-0.242603
-0.196737
-0.123242
-0.034068
0.0639953
0.169082
0.281107
0.400115
0.52634
0.654345
0.765404
0.850639
0.914983
0.961164
0.989323
0.999149
0.996441
0.989462
0.980303
-0.274363
-0.261677
-0.215175
-0.141071
-0.0512783
0.0474067
0.153173
0.265924
0.385858
0.513301
0.643144
0.75696
0.846329
0.915311
0.966065
0.999616
1.01473
1.01376
1.0035
0.996446
-0.292882
-0.279981
-0.232995
-0.158389
-0.0681795
0.0309305
0.137171
0.25033
0.370859
0.499058
0.63021
0.746147
0.839296
0.913104
0.96718
1.0047
1.02247
1.02654
0.989079
0.936506
-0.310319
-0.296732
-0.250078
-0.175121
-0.0848786
0.0144164
0.121028
0.234441
0.355177
0.483675
0.615481
0.732781
0.828523
0.9079
0.962367
0.994138
1.01249
0.998086
0.941615
0.87854
-0.327009
-0.312532
-0.266352
-0.190549