/*--------------------------------*- C++ -*----------------------------------*\
  =========                 |
  \\      /  F ield         | OpenFOAM: The Open Source CFD Toolbox
   \\    /   O peration     | Website:  https://openfoam.org
    \\  /    A nd           | Version:  10
     \\/     M anipulation  |
\*---------------------------------------------------------------------------*/
FoamFile
{
    format      ascii;
    class       surfaceScalarField;
    location    "43";
    object      phi;
}
// * * * * * * * * * * * * * * * * * * * * * * * * * * * * * * * * * * * * * //

dimensions      [0 3 -1 0 0 0 0];

internalField   nonuniform List<scalar> 
17370
(
-0.0916069
0.0960072
0.284611
-0.077591
0.0594148
0.364952
-0.0430367
0.0316172
0.427588
-0.0223127
0.0162589
0.505306
-0.0116637
0.00878784
0.602278
-0.00657543
0.00509205
0.720541
-0.00386049
0.00298682
0.86378
-0.00222066
0.00164699
1.03602
-0.00111892
0.000700162
1.24292
-0.000290292
-0.000101216
1.49158
0.000487896
-0.000897741
1.4916
0.00129977
-0.00180373
1.24319
0.00235552
-0.00310191
1.03638
0.0039638
-0.00518831
0.864131
0.00666686
-0.00887163
0.721262
0.0117364
-0.0163154
0.603794
0.0223533
-0.0316415
0.508727
0.0430446
-0.0594121
0.432536
0.07759
-0.0960046
0.36519
0.0916201
0.197391
-0.127088
0.0880182
0.0390696
-0.364352
0.354025
-0.071479
0.0818053
-0.446655
0.454248
-0.0791703
0.0715768
-0.521009
0.529107
-0.0637269
0.0556295
-0.612987
0.620758
-0.048242
0.0404711
-0.72716
0.733681
-0.0338578
0.0273372
-0.86758
0.872423
-0.0221374
0.0172941
-1.03856
1.0419
-0.013605
0.0102733
-1.24472
1.24712
-0.00772733
0.00532618
-1.49284
1.49485
-0.00336651
0.0013572
-1.49269
1.49451
0.000460879
-0.00227786
-1.24411
1.24602
0.00424878
-0.00615832
-1.03761
1.04009
0.0084938
-0.0109754
-0.866188
0.869824
0.0142393
-0.0178758
-0.724595
0.729757
0.0226721
-0.0278345
-0.609066
0.615639
0.0343145
-0.0408872
-0.515125
0.522464
0.0486095
-0.0559476
-0.43988
0.447663
0.0639742
-0.0717574
-0.374711
0.377356
0.0792605
-0.0819061
-0.256902
0.224444
0.0715572
-0.0390988
-0.0688024
0.0591878
0.0096146
-0.0521226
0.0589566
-0.374833
0.367999
-0.0581124
0.0542733
-0.453941
0.45778
-0.0487879
0.0442296
-0.527609
0.532168
-0.0396799
0.0357847
-0.620792
0.624688
-0.0315743
0.0275853
-0.734652
0.738641
-0.0232387
0.0193615
-0.873948
0.877825
-0.0153257
0.0118756
-1.04335
1.0468
-0.00836297
0.00533597
-1.24864
1.25167
-0.00213307
-0.000844346
-1.49694
1.49992
0.00380178
-0.00694677
-1.49742
1.50056
0.00989093
-0.0132934
-1.25007
1.25347
0.0166343
-0.0205504
-1.04566
1.04957
0.024328
-0.0285794
-0.877142
0.881393
0.0324905
-0.0366188
-0.738988
0.743116
0.0404407
-0.044915
-0.62598
0.630454
0.049411
-0.0548362
-0.535023
0.540449
0.0586084
-0.0593734
-0.458084
0.458849
0.0524345
-0.0320547
-0.336776
0.316396
0.0096703
-0.0686713
0.059001
-0.0533966
0.0492821
0.00411448
-0.0332634
0.043696
-0.358545
0.348112
-0.0473787
0.0467966
-0.459567
0.460149
-0.043872
0.0406619
-0.536118
0.539328
-0.0369873
0.0336356
-0.628379
0.631731
-0.0300079
0.0267762
-0.742018
0.745249
-0.0233371
0.0201508
-0.881317
0.884504
-0.0165674
0.0132227
-1.05022
1.05357
-0.00953209
0.00613555
-1.25493
1.25832
-0.00235395
-0.00125547
-1.50327
1.50688
0.00483514
-0.00853188
-1.50406
1.50776
0.0118138
-0.0153501
-1.25704
1.26058
0.018539
-0.0219479
-1.05328
1.05669
0.0249857
-0.0282821
-0.884999
0.888295
0.0313979
-0.0349077
-0.7468
0.750309
0.0381547
-0.0417173
-0.63458
0.638143
0.04483
-0.0476469
-0.544598
0.547415
0.0481192
-0.0442852
-0.456972
0.453138
0.0336687
-0.0163673
-0.29709
0.279789
0.00417511
-0.053155
0.0489798
-0.04611
0.0435511
0.00255896
-0.0230708
0.0334325
-0.337511
0.327149
-0.0391773
0.0401339
-0.459893
0.458936
-0.0388899
0.0365671
-0.541977
0.5443
-0.0339305
0.0313905
-0.634689
0.637229
-0.0284233
0.0255877
-0.748329
0.751165
-0.0223653
0.0193645
-0.887554
0.890555
-0.016026
0.012903
-1.05673
1.05986
-0.00935928
0.00597099
-1.26171
1.2651
-0.00207171
-0.00171873
-1.51061
1.5144
0.00547113
-0.00925675
-1.51155
1.51533
0.0124929
-0.0158332
-1.26404
1.26738
0.018753
-0.021865
-1.0599
1.06301
0.0246683
-0.0276922
-0.891489
0.894513
0.0303643
-0.0331675
-0.75349
0.756293
0.0355657
-0.0380552
-0.641104
0.643593
0.0402523
-0.0413315
-0.549259
0.550338
0.0402063
-0.0342174
-0.448027
0.442038
0.0235893
-0.0103587
-0.264618
0.251387
0.00263388
-0.0457408
0.0431069
-0.0414297
0.0396256
0.00180411
-0.0169707
0.0262703
-0.317268
0.307968
-0.0328808
0.0350113
-0.457366
0.455235
-0.0345851
0.0328924
-0.546321
0.548014
-0.0306702
0.0285488
-0.63953
0.641651
-0.0261219
0.0237578
-0.753758
0.756122
-0.0209617
0.0182315
-0.893401
0.896131
-0.0150639
0.0120445
-1.06288
1.0659
-0.00859578
0.00529587
-1.26841
1.2717
-0.00147297
-0.00225948
-1.51816
1.52189
0.00594366
-0.00962372
-1.51908
1.52276
0.0127314
-0.0159239
-1.27066
1.27386
0.0186854
-0.0215597
-1.06604
1.06891
0.0240288
-0.0265609
-0.897301
0.899833
0.0287098
-0.0309256
-0.75874
0.760956
0.0328681
-0.0349039
-0.645829
0.647864
0.0364172
-0.0366221
-0.550932
0.551137
0.0342348
-0.0272699
-0.435468
0.428503
0.0176153
-0.00745284
-0.239835
0.229672
0.00189549
-0.0409036
0.0390081
-0.0380728
0.0367168
0.001356
-0.0129749
0.0209906
-0.299314
0.291298
-0.0277776
0.0307157
-0.452669
0.449731
-0.0309374
0.0298252
-0.549443
0.550555
-0.027837
0.0259221
-0.643698
0.645612
-0.0237259
0.0216014
-0.758353
0.760478
-0.019113
0.0166612
-0.898665
0.901116
-0.0137591
0.0109214
-1.06878
1.07162
-0.00761323
0.00441786
-1.27492
1.27811
-0.000708036
-0.00290254
-1.52554
1.52915
0.0064534
-0.0099849
-1.52637
1.5299
0.012939
-0.0159242
-1.27698
1.27997
0.0184356
-0.0209677
-1.07164
1.07417
0.0230918
-0.0252489
-0.902148
0.904305
0.0271011
-0.029028
-0.763004
0.764931
0.0307172
-0.0324838
-0.649745
0.651511
0.0333369
-0.0328078
-0.550982
0.550453
0.0295052
-0.0222358
-0.421331
0.414061
0.0137666
-0.00574409
-0.220682
0.21266
0.0014672
-0.0373553
0.0358881
-0.0355329
0.034487
0.00104588
-0.010152
0.0169445
-0.28392
0.277128
-0.0234858
0.0268917
-0.446541
0.443135
-0.027697
0.0270216
-0.55144
0.552115
-0.0252725
0.023504
-0.647489
0.649257
-0.0214598
0.0194731
-0.762534
0.764521
-0.0171367
0.0148434
-0.903423
0.905717
-0.0121465
0.00950226
-1.07429
1.07694
-0.00639009
0.00334809
-1.28119
1.28424
0.000212538
-0.00367818
-1.53267
1.53613
0.00707207
-0.0104115
-1.53335
1.53669
0.0131567
-0.0158734
-1.28285
1.28556
0.0181189
-0.0203587
-1.07657
1.07881
0.0222393
-0.0241513
-0.906337
0.908249
0.0257899
-0.0274968
-0.766726
0.768433
0.0289885
-0.0304365
-0.653133
0.65458
0.0307869
-0.0295563
-0.549585
0.548355
0.0256507
-0.0184782
-0.406819
0.399647
0.0111192
-0.00460577
-0.205465
0.198951
0.00118097
-0.0345827
0.0334017
-0.0335687
0.0327521
0.00081664
-0.00805974
0.01378
-0.270903
0.265182
-0.0198504
0.0234698
-0.439618
0.435998
-0.0247684
0.0243492
-0.5527
0.553119
-0.02288
0.0212281
-0.651017
0.652669
-0.0192891
0.0174009
-0.766454
0.768342
-0.0151749
0.0129852
-0.907886
0.910075
-0.0104057
0.00788391
-1.07944
1.08196
-0.00492924
0.00204383
-1.28715
1.29003
0.0013311
-0.00461497
-1.53948
1.54277
0.00781051
-0.0109191
-1.53991
1.54302
0.0134424
-0.015914
-1.28818
1.29065
0.0179483
-0.0199675
-1.08096
1.08298
0.0216484
-0.023346
-0.910067
0.911765
0.0247994
-0.0263188
-0.770031
0.771551
0.0276246
-0.0287059
-0.655824
0.656905
0.028697
-0.0268151
-0.546807
0.544925
0.0225364
-0.015662
-0.39262
0.385745
0.00924074
-0.00381099
-0.193032
0.187602
0.000981004
-0.0323354
0.0313543
-0.0320344
0.031395
0.000639386
-0.0064463
0.0112483
-0.259952
0.25515
-0.0167357
0.0203674
-0.432378
0.428746
-0.0220053
0.0218264
-0.553457
0.553636
-0.0206097
0.0190345
-0.654326
0.655901
-0.0171664
0.0153388
-0.770191
0.772018
-0.013184
0.0110672
-0.912149
0.914266
-0.00857764
0.00614918
-1.08436
1.08679
-0.00331141
0.000553897
-1.2928
1.29556
0.00265516
-0.00575821
-1.54593
1.54903
0.00875188
-0.0116343
-1.54601
1.54889
0.0139521
-0.016203
-1.29304
1.29529
0.0180382
-0.0198459
-1.08492
1.08673
0.0213424
-0.022849
-0.913384
0.914891
0.0241365
-0.0254778
-0.772969
0.77431
0.0266357
-0.027318
-0.657765
0.658447
0.0269524
-0.0245381
-0.542796
0.540382
0.0200491
-0.0135507
-0.37907
0.372571
0.00788627
-0.00324573
-0.182608
0.177968
0.000839523
-0.0304572
0.0296177
-0.0308359
0.0303397
0.000496203
-0.0051479
0.00915667
-0.250774
0.246765
-0.0140139
0.0175064
-0.425199
0.421706
-0.019338
0.0193564
-0.553765
0.553747
-0.0183422
0.0168054
-0.657521
0.659058
-0.0149681
0.0131691
-0.773817
0.775616
-0.0110557
0.00898972
-0.916264
0.91833
-0.0065697
0.00421594
-1.08909
1.09144
-0.00147283
-0.00117646
-1.29819
1.30084
0.00423261
-0.00715444
-1.552
1.55493
0.0099441
-0.0126042
-1.55165
1.55431
0.0147204
-0.0167511
-1.29746
1.29949
0.018388
-0.019984
-1.08846
1.09005
0.0212951
-0.0226154
-0.916325
0.917645
0.0237501
-0.024935
-0.775581
0.776766
0.0259243
-0.0262545
-0.658927
0.659258
0.025525
-0.0226813
-0.537776
0.534932
0.0180938
-0.0119762
-0.366285
0.360168
0.00690748
-0.0028442
-0.173652
0.169589
0.000740532
-0.028841
0.0281005
-0.0299114
0.0295359
0.000375441
-0.00405951
0.00736936
-0.243133
0.239823
-0.0115813
0.0148257
-0.418358
0.415114
-0.0167356
0.0169322
-0.553698
0.553501
-0.0160299
0.0145918
-0.660621
0.662059
-0.0127759
0.0109808
-0.777392
0.779187
-0.008868
0.00680675
-0.920289
0.922351
-0.00440456
0.00208512
-1.09368
1.096
0.000589968
-0.00315694
-1.30338
1.30595
0.00608961
-0.00886001
-1.55772
1.56049
0.0114695
-0.0139183
-1.55686
1.5593
0.0158335
-0.0176437
-1.30145
1.30326
0.019087
-0.0204824
-1.09158
1.09298
0.0216228
-0.0227694
-0.918904
0.92005
0.0237544
-0.0247644
-0.777879
0.778889
0.0254947
-0.0255402
-0.659438
0.659484
0.0244258
-0.0212154
-0.531922
0.528711
0.0165893
-0.0108164
-0.354252
0.348479
0.00620689
-0.00256324
-0.16577
0.162126
0.000673154
-0.0274073
0.0267342
-0.029221
0.0289539
0.000267095
-0.00310005
0.00577466
-0.236855
0.23418
-0.0093351
0.0122402
-0.412066
0.409161
-0.0141038
0.0143978
-0.553321
0.553027
-0.0135589
0.0121878
-0.663541
0.664912
-0.0103709
0.00855521
-0.78096
0.782776
-0.00641896
0.00434521
-0.9243
0.926374
-0.00194495
-0.000351383
-1.0982
1.1005
0.00299183
-0.00549494
-1.30841
1.31091
0.00832409
-0.0109597
-1.56315
1.56579
0.0134
-0.0156414
-1.56164
1.56388
0.0173567
-0.0189455
-1.30499
1.30658
0.0201885
-0.0213702
-1.09431
1.09549
0.0223226
-0.0232765
-0.921136
0.922089
0.0240966
-0.0249154
-0.779824
0.780643
0.025388
-0.0251695
-0.659369
0.659151
0.0236612
-0.0201235
-0.525365
0.521828
0.0154825
-0.00999343
-0.342888
0.337399
0.00572514
-0.00237707
-0.158665
0.155317
0.000631024
-0.0260971
0.025466
-0.028743
0.0285787
0.000164266
-0.0022058
0.0042793
-0.231826
0.229752
-0.00717951
0.00967413
-0.406492
0.403997
-0.0113847
0.011697
-0.552808
0.552496
-0.0108851
0.0095369
-0.666374
0.667722
-0.00768923
0.00582707
-0.784576
0.786438
-0.00364217
0.00153223
-0.928327
0.930437
0.000893189
-0.00320692
-1.10269
1.105
0.00583281
-0.00829366
-1.31331
1.31577
0.0110272
-0.013521
-1.5683
1.57079
0.0157765
-0.0177937
-1.56599
1.56801
0.0192946
-0.0206398
-1.30808
1.30943
0.0216561
-0.0225921
-1.0966
1.09754
0.0233339
-0.0240863
-0.922982
0.923735
0.02475
-0.0254235
-0.781405
0.782078
0.0256107
-0.0250876
-0.658715
0.658192
0.0232075
-0.0193755
-0.518194
0.514362
0.0147181
-0.00944236
-0.332071
0.326795
0.00541573
-0.00226542
-0.152107
0.148957
0.000608792
-0.0248636
0.0242548
-0.0284699
0.0284082
6.17004e-05
-0.00133325
0.00281732
-0.227987
0.226502
-0.00503883
0.00705581
-0.401772
0.399755
-0.00851441
0.00877749
-0.552309
0.552046
-0.00797068
0.00663643
-0.669188
0.670522
-0.00474619
0.00281939
-0.788285
0.790211
-0.000546479
-0.00164714
-0.93243
0.934624
0.0041565
-0.00652446
-1.1072
1.10957
0.00917867
-0.0116252
-1.31813
1.32057
0.0142906
-0.0166627
-1.57316
1.57553
0.0187462
-0.0205449
-1.56989
1.57169
0.0218315
-0.0229385
-1.31069
1.3118
0.0237426
-0.0244476
-1.09842
1.09913
0.0249634
-0.0254652
-0.92443
0.924932
0.025918
-0.0263805
-0.782619
0.783082
0.0262545
-0.0253681
-0.657392
0.656505
0.0230889
-0.0189553
-0.51045
0.506317
0.0142577
-0.00912233
-0.321656
0.316521
0.0052507
-0.00221648
-0.145908
0.142874
0.000603766
-0.0236679
0.0230641
-0.0284058
0.0284528
-4.70178e-05
-0.000442108
0.00132531
-0.225327
0.224444
-0.00283076
0.004294
-0.398044
0.39658
-0.00538401
0.0055018
-0.551977
0.551859
-0.00463378
0.00325488
-0.672019
0.673397
-0.0012859
-0.000744508
-0.792126
0.794156
0.00314069
-0.00543694
-0.936699
0.938995
0.00804323
-0.0104781
-1.11182
1.11425
0.0131777
-0.0156318
-1.32291
1.32537
0.0182512
-0.0205127
-1.57778
1.58004
0.0224209
-0.0239809
-1.57334
1.5749
0.0250175
-0.0258274
-1.3128
1.31361
0.0263564
-0.0267657
-1.09976
1.10017
0.0270264
-0.027272
-0.925402
0.925648
0.0275262
-0.0277222
-0.783283
0.783479
0.0273472
-0.0260042
-0.655299
0.653956
0.0233116
-0.0188717
-0.502142
0.497702
0.0140975
-0.00902041
-0.311501
0.306424
0.00521988
-0.00222605
-0.139913
0.136919
0.000614757
-0.0224783
0.0218635
-0.0285615
0.0287286
-0.000167087
0.000514924
-0.000270968
-0.223878
0.223634
-0.00046974
0.0013075
-0.395449
0.394611
-0.00192225
0.00180486
-0.552019
0.552137
-0.000801023
-0.00070647
-0.675013
0.676521
0.00281298
-0.00498349
-0.796179
0.79835
0.00752966
-0.00995469
-0.941157
0.943582
0.012692
-0.0152315
-1.11657
1.11911
0.0180145
-0.0204985
-1.32771
1.33019
0.0230784
-0.0252166
-1.58216
1.5843
0.0269245
-0.028222
-1.57628
1.57758
0.028998
-0.0294935
-1.3143
1.31479
0.0297245
-0.0298109
-1.1005
1.10058
0.0297808
-0.0297309
-0.925843
0.925794
0.0297423
-0.0296122
-0.783322
0.783192
0.0289378
-0.0270844
-0.652337
0.650484
0.023947
-0.0191541
-0.493246
0.488453
0.0142385
-0.00912906
-0.301436
0.296327
0.00531712
-0.00229128
-0.133971
0.130945
0.000641049
-0.0212625
0.0206214
-0.0289766
0.0292902
-0.000313678
0.00155762
-0.00196854
-0.223737
0.224148
0.00209718
-0.0020006
-0.394114
0.394017
0.00198711
-0.00242669
-0.552638
0.553077
0.00360239
-0.0052423
-0.678304
0.679944
0.00751086
-0.0098645
-0.800508
0.802862
0.0126393
-0.0152772
-0.945888
0.948526
0.0182326
-0.0209381
-1.12154
1.12425
0.0238514
-0.0263939
-1.33257
1.33511
0.0289553
-0.0309857
-1.58629
1.58832
0.0324863
-0.0334755
-1.57868
1.57967
0.0339467
-0.0340811
-1.31514
1.31528
0.0339869
-0.0337318
-1.10055
1.10029
0.0333973
-0.033018
-0.925648
0.925268
0.0327441
-0.0321771
-0.782618
0.782051
0.0310864
-0.0286334
-0.648419
0.645966
0.0249958
-0.0197995
-0.483662
0.478466
0.0146785
-0.00944429
-0.291281
0.286047
0.00553856
-0.00241004
-0.12794
0.124811
0.000681936
-0.0199904
0.0193085
-0.0296735
0.0301655
-0.00049201
0.0028743
-0.0040699
-0.224969
0.226164
0.00510146
-0.00582501
-0.394267
0.394991
0.00654713
-0.00742882
-0.554033
0.554915
0.00886578
-0.0107151
-0.681926
0.683776
0.0132367
-0.015846
-0.805211
0.807821
0.0189114
-0.0218017
-0.951045
0.953936
0.0250072
-0.0279062
-1.12685
1.12975
0.0309773
-0.0335956
-1.33754
1.34015
0.0361401
-0.0380347
-1.59017
1.59207
0.0392947
-0.0399342
-1.58041
1.58105
0.0400439
-0.0397688
-1.31522
1.31495
0.0392863
-0.0386187
-1.09985
1.09918
0.0379207
-0.0371585
-0.924725
0.923963
0.0365498
-0.0354686
-0.780954
0.779873
0.0338683
-0.0307534
-0.643368
0.640253
0.0265592
-0.020884
-0.473295
0.46762
0.0154618
-0.00998792
-0.28085
0.275376
0.00589442
-0.00258539
-0.121678
0.118369
0.000737656
-0.0186339
0.0178963
-0.0307289
0.0314397
-0.000710853
0.00438233
-0.00647494
-0.227782
0.229875
0.00860004
-0.010239
-0.396133
0.397772
0.0117956
-0.0132582
-0.556498
0.557961
0.0151295
-0.0173184
-0.68608
0.688269
0.0202112
-0.023151
-0.810421
0.81336
0.026564
-0.0297538
-0.956689
0.959879
0.0332615
-0.0364003
-1.13253
1.13567
0.0396717
-0.0423883
-1.34265
1.34537
0.0449127
-0.0466409
-1.59377
1.59549
0.0476024
-0.0478414
-1.58142
1.58166
0.0475141
-0.0467671
-1.31442
1.31367
0.0458301
-0.0446725
-1.09824
1.09708
0.0435469
-0.0423442
-0.922955
0.921752
0.0412823
-0.0396879
-0.778239
0.776645
0.0374715
-0.0336115
-0.637052
0.633192
0.0287559
-0.0224716
-0.461965
0.455681
0.0166245
-0.0107766
-0.269902
0.264054
0.00639009
-0.00281744
-0.115026
0.111453
0.000807882
-0.0171622
0.0163543
-0.0322224
0.0332222
-0.000999804
0.00628832
-0.00948195
-0.232411
0.235605
0.0128532
-0.0155419
-0.399943
0.402632
0.0180427
-0.0201671
-0.560294
0.562418
0.0225656
-0.0251789
-0.690997
0.69361
0.0285504
-0.0319315
-0.816293
0.819674
0.0358236
-0.0394336
-0.962957
0.966567
0.0433621
-0.046821
-1.13872
1.14217
0.050341
-0.0531604
-1.34794
1.35076
0.0556293
-0.057128
-1.59698
1.59847
0.0577092
-0.0574415
-1.58156
1.5813
0.0566185
-0.0553099
-1.31257
1.31126
0.0538782
-0.0521836
-1.09556
1.09386
0.0505817
-0.048854
-0.920201
0.918474
0.0472478
-0.045034
-0.774454
0.772241
0.0420826
-0.0373317
-0.629265
0.624514
0.0316845
-0.0246436
-0.449419
0.442378
0.0182198
-0.0118329
-0.258165
0.251778
0.00702935
-0.00310104
-0.107819
0.10389
0.000888328
-0.01555
0.0146616
-0.0342892
0.0356823
-0.00139302
0.00875928
-0.0132699
-0.239201
0.243712
0.0181111
-0.0220208
-0.406033
0.409943
0.0256386
-0.028579
-0.565666
0.568606
0.0316767
-0.0348643
-0.69686
0.700048
0.0388769
-0.042837
-0.823049
0.827009
0.0473426
-0.051471
-0.970093
0.974221
0.0558925
-0.0596998
-1.14554
1.14934
0.0634604
-0.0663462
-1.35341
1.3563
0.0686977
-0.0698901
-1.59969
1.60088
0.0699905
-0.0690891
-1.58063
1.57973
0.0676552
-0.0656711
-1.30949
1.3075
0.0636635
-0.0613773
-1.09168
1.08939
0.0592561
-0.0569671
-0.916285
0.913996
0.0547164
-0.0517773
-0.769376
0.766437
0.0479626
-0.0421666
-0.619719
0.613923
0.035564
-0.027554
-0.435359
0.427349
0.0203454
-0.0132057
-0.245301
0.238161
0.00783027
-0.00343746
-0.0998679
0.0954751
0.000976893
-0.0137787
0.0128018
-0.0371211
0.039075
-0.00195389
0.0121005
-0.0182758
-0.248582
0.254757
0.0248728
-0.030204
-0.414867
0.420198
0.0351558
-0.0391429
-0.573023
0.577011
0.0432085
-0.047225
-0.704039
0.708055
0.0521226
-0.0568214
-0.830968
0.835667
0.0620458
-0.0667369
-0.978267
0.982958
0.0716504
-0.0757679
-1.15301
1.15713
0.0796863
-0.0825269
-1.35894
1.36178
0.08459
-0.0852848
-1.60167
1.60237
0.0847264
-0.0830321
-1.57835
1.57665
0.0808451
-0.0780418
-1.30498
1.30217
0.0753433
-0.07238
-1.08645
1.08349
0.0697063
-0.066837
-0.911112
0.908243
0.0639111
-0.0601489
-0.762813
0.759051
0.0553668
-0.0483538
-0.608102
0.601088
0.0405813
-0.0313282
-0.419356
0.410103
0.0230725
-0.0149173
-0.230875
0.22272
0.00879243
-0.0038219
-0.0909567
0.0859862
0.00107159
-0.0118332
0.0107616
-0.0410292
0.0438382
-0.00280896
0.016924
-0.0252791
-0.261226
0.269581
0.0340263
-0.0410492
-0.427064
0.434087
0.0475778
-0.052807
-0.582901
0.58813
0.0581429
-0.0632855
-0.713052
0.718195
0.0692753
-0.0748243
-0.84035
0.845898
0.0808227
-0.0860684
-0.987539
0.992784
0.091412
-0.0957358
-1.16104
1.16536
0.0996502
-0.102259
-1.36426
1.36687
0.1038
-0.10377
-1.60253
1.6025
0.10234
-0.0996612
-1.57437
1.57169
0.0965848
-0.0928424
-1.29875
1.29501
0.0893323
-0.0855617
-1.07972
1.07595
0.0822502
-0.0787308
-0.904576
0.901056
0.0751408
-0.0704162
-0.75447
0.749745
0.0644763
-0.0559994
-0.594003
0.585526
0.0467964
-0.0359748
-0.40087
0.390048
0.0263583
-0.0168975
-0.214384
0.204923
0.00985494
-0.00422212
-0.0808822
0.0752493
0.0011623
-0.00970636
0.00854407
-0.0465674
0.0508229
-0.00425556
0.0244326
-0.0357549
-0.278233
0.289555
0.0472854
-0.0565375
-0.443619
0.452871
0.0649576
-0.0715964
-0.59584
0.602478
0.0784428
-0.0850154
-0.724303
0.730875
0.0921726
-0.0985371
-0.8514
0.857764
0.105217
-0.110875
-0.997852
1.00351
0.11641
-0.120658
-1.16933
1.17358
0.124201
-0.126209
-1.36893
1.37093
0.126812
-0.125687
-1.60173
1.6006
0.123054
-0.119112
-1.56824
1.5643
0.114974
-0.110175
-1.29055
1.28575
0.105801
-0.101201
-1.07129
1.06669
0.0972065
-0.0928561
-0.896444
0.892094
0.0885058
-0.0826264
-0.744013
0.738133
0.0752882
-0.0650391
-0.57686
0.566611
0.0540965
-0.0413261
-0.379235
0.366465
0.0300124
-0.0189814
-0.195324
0.184293
0.0109022
-0.0045834
-0.0695339
0.0632151
0.00123284
-0.00741367
0.00618083
-0.05479
0.0621089
-0.00731891
0.0378079
-0.0535079
-0.301712
0.317412
0.0689358
-0.0811693
-0.466061
0.478295
0.0915772
-0.0995845
-0.612222
0.620229
0.10797
-0.115768
-0.738067
0.745865
0.123831
-0.13064
-0.863914
0.870723
0.137472
-0.142981
-1.00875
1.01426
0.148056
-0.151598
-1.17717
1.18071
0.154091
-0.154877
-1.37207
1.37286
0.153934
-0.151203
-1.59844
1.59571
0.146963
-0.141449
-1.55941
1.55389
0.136013
-0.129969
-1.28014
1.2741
0.124596
-0.119066
-1.06105
1.05552
0.114367
-0.109244
-0.886436
0.881313
0.104006
-0.0966521
-0.730953
0.723599
0.0876159
-0.0751548
-0.555959
0.543498
0.0620265
-0.0469429
-0.353633
0.33855
0.0337059
-0.0209863
-0.173337
0.160618
0.0118366
-0.00486599
-0.0570016
0.050031
0.00126584
-0.00500986
0.00374402
-0.0689668
0.0730379
-0.00407103
0.0288133
-0.0423733
-0.335659
0.349219
0.05603
-0.0671092
-0.495703
0.506782
0.0769947
-0.0863065
-0.631752
0.641064
0.0967507
-0.106053
-0.753323
0.762625
0.116332
-0.125449
-0.876702
0.88582
0.135058
-0.143462
-1.01883
1.02723
0.15201
-0.159065
-1.18311
1.19016
0.165654
-0.170391
-1.3724
1.37714
0.173757
-0.174749
-1.59166
1.59265
0.173294
-0.169897
-1.54721
1.54381
0.165525
-0.159902
-1.26714
1.26152
0.154649
-0.148546
-1.04885
1.04274
0.143386
-0.137605
-0.874395
0.868614
0.131228
-0.121097
-0.714595
0.704464
0.108116
-0.0907168
-0.53024
0.51284
0.073034
-0.053192
-0.323142
0.3033
0.0366966
-0.0217865
-0.148363
0.133453
0.0117198
-0.00458533
-0.0436987
0.0365641
0.00111838
-0.00260751
0.00148913
-0.0801505
0.0782666
0.00188387
0.00710697
-0.0159812
-0.36565
0.374524
0.0263357
-0.0342145
-0.522603
0.530482
0.042187
-0.0502357
-0.652722
0.66077
0.059895
-0.0687101
-0.771661
0.780476
0.0779815
-0.0863958
-0.894422
0.902837
0.0952118
-0.102583
-1.03533
1.0427
0.110257
-0.11623
-1.197
1.20297
0.121734
-0.125361
-1.3815
1.38513
0.127253
-0.126972
-1.5927
1.59242
0.124264
-0.119586
-1.53946
1.53478
0.113879
-0.106807
-1.25516
1.24808
0.100114
-0.0925782
-1.03548
1.02794
0.0856073
-0.0777641
-0.859091
0.851248
0.0702937
-0.0613044
-0.690285
0.681296
0.0515134
-0.0396107
-0.493533
0.481631
0.0287978
-0.018503
-0.283265
0.27297
0.0113746
-0.00603115
-0.119293
0.11395
0.00299057
-0.00114168
-0.0299438
0.0280949
0.000330404
-0.000382054
5.16501e-05
-0.0815015
0.0786169
0.00288454
-0.0019329
-0.00314977
-0.385838
0.390921
0.0101418
-0.0159977
-0.542478
0.548334
0.0220962
-0.0290369
-0.670735
0.677676
0.0374023
-0.0450631
-0.788442
0.796103
0.0533535
-0.0607139
-0.910534
0.917895
0.0681831
-0.074792
-1.0499
1.05651
0.08148
-0.0867817
-1.20852
1.21382
0.0912251
-0.0939009
-1.3881
1.39077
0.0950956
-0.0939767
-1.5914
1.59028
0.0904521
-0.0849712
-1.52942
1.52393
0.078648
-0.0711096
-1.24073
1.2332
0.0635673
-0.055242
-1.01938
1.01105
0.0474798
-0.038939
-0.841272
0.832731
0.0315391
-0.023691
-0.668451
0.660603
0.0162192
-0.00818272
-0.467851
0.459815
0.00268169
0.000777927
-0.261759
0.2583
-0.00203018
0.00203674
-0.107706
0.1077
-0.00142157
0.000624641
-0.0258295
0.0266265
-0.000116638
0.000239276
-0.000122638
-0.0802309
0.0775212
0.00270962
-0.00540351
0.00298829
-0.399244
0.401659
0.0014506
-0.00591642
-0.557362
0.561828
0.0111357
-0.0169651
-0.685616
0.691446
0.0241279
-0.0307289
-0.803174
0.809775
0.0378594
-0.0442178
-0.924759
0.931117
0.0510686
-0.0567524
-1.06272
1.06841
0.062708
-0.0669884
-1.21875
1.22303
0.0708487
-0.0730396
-1.39325
1.39544
0.0735657
-0.0716434
-1.58866
1.58674
0.0677115
-0.0618539
-1.51773
1.51187
0.0552378
-0.0471314
-1.22524
1.21713
0.0395429
-0.0313411
-1.00217
0.993972
0.0237312
-0.0158496
-0.823085
0.815204
0.00871482
-0.00179129
-0.649079
0.642156
-0.00395545
0.00881807
-0.450197
0.445335
-0.0107007
0.0103072
-0.252206
0.2526
-0.00870523
0.00617246
-0.106382
0.108915
-0.00389064
0.00170537
-0.026767
0.0289522
-0.000417395
-1.60934e-05
0.000433488
-0.0787628
0.0763903
0.00237252
-0.00639633
0.00551495
-0.408192
0.409074
-0.00224433
-0.00100595
-0.569357
0.572608
0.00529681
-0.0105825
-0.698098
0.703384
0.0166062
-0.02244
-0.815705
0.821539
0.0286782
-0.0342787
-0.937078
0.942679
0.040266
-0.045448
-1.07401
1.07919
0.0506242
-0.0546797
-1.22723
1.23129
0.0580708
-0.0599014
-1.3973
1.39913
0.0601227
-0.0580377
-1.58462
1.58254
0.0541078
-0.0482436
-1.50534
1.49947
0.0419537
-0.0344869
-1.20908
1.20161
0.0274355
-0.0196533
-0.985535
0.977753
0.012557
-0.00484442
-0.806235
0.798522
-0.0019967
0.00837714
-0.632001
0.625621
-0.0129486
0.0161468
-0.438044
0.434846
-0.0165504
0.0144521
-0.249616
0.251714
-0.0115878
0.00815647
-0.110066
0.113497
-0.00512046
0.00229766
-0.0304938
0.0333166
-0.000654631
-0.000837321
0.00149195
-0.077447
0.0754331
0.00201385
-0.00617905
0.00574636
-0.414387
0.414819
-0.00380599
0.00114782
-0.578636
0.581294
0.00305755
-0.00759492
-0.708699
0.713237
0.0128147
-0.0179296
-0.826605
0.831719
0.0235543
-0.0286572
-0.947992
0.953095
0.0342653
-0.0389343
-1.08416
1.08883
0.0437305
-0.0474981
-1.23512
1.23888
0.0505973
-0.0522659
-1.40075
1.40242
0.052457
-0.0509504
-1.58048
1.57897
0.047482
-0.0425431
-1.49347
1.48853
0.0370874
-0.0305572
-1.19435
1.18782
0.0244813
-0.0171634
-0.969994
0.962677
0.0102292
-0.0025655
-0.789937
0.782273
-0.00432031
0.0108385
-0.616355
0.609837
-0.0150263
0.0175903
-0.429067
0.426503
-0.0173663
0.0149729
-0.250289
0.252682
-0.0119985
0.00839389
-0.11556
0.119165
-0.00525201
0.00240583
-0.0352734
0.0381196
-0.000714327
-0.00197052
0.00268485
-0.0764932
0.0749389
0.0015543
-0.00524716
0.00510431
-0.419061
0.419203
-0.00350638
0.00146381
-0.586802
0.588844
0.00251571
-0.00665519
-0.717936
0.722076
0.0116581
-0.0161288
-0.836461
0.840932
0.0211623
-0.0257871
-0.958224
0.962849
0.0312175
-0.0355671
-1.09358
1.09793
0.0399465
-0.0436156
-1.24252
1.24619
0.046993
-0.0486878
-1.40418
1.40588
0.0492459
-0.0481541
-1.57729
1.57619
0.0457067
-0.0414454
-1.48377
1.47951
0.0369971
-0.0314477
-1.18149
1.17594
0.0258142
-0.0190513
-0.955426
0.948663
0.0121987
-0.00440256
-0.773694
0.765898
-0.00213518
0.0083629
-0.601173
0.594945
-0.0122848
0.0143932
-0.421536
0.419427
-0.0144551
0.0127263
-0.251874
0.253603
-0.0102169
0.00713959
-0.121072
0.124149
-0.00447406
0.00206925
-0.0398869
0.0422917
-0.000628953
-0.00310894
0.00373789
-0.0760519
0.0748387
0.00121323
-0.0041711
0.00413175
-0.422842
0.422882
-0.00268051
0.000715269
-0.593989
0.595954
0.00315717
-0.00691974
-0.726322
0.730084
0.011273
-0.0156414
-0.845369
0.849737
0.0203708
-0.0251906
-0.96733
0.97215
0.0299616
-0.0341782
-1.10241
1.10662
0.0387366
-0.0422294
-1.24977
1.25327
0.0452502
-0.0475202
-1.40756
1.40983
0.048546
-0.048109
-1.57536
1.57492
0.0462467
-0.0429526
-1.47571
1.47241
0.0390681
-0.0339547
-1.17021
1.1651
0.0286597
-0.0220576
-0.941645
0.935043
0.0153951
-0.00805068
-0.757683
0.750339
0.00156554
0.00413898
-0.587094
0.581389
-0.00764862
0.00964955
-0.414897
0.412896
-0.0100459
0.0089355
-0.252639
0.25375
-0.00725564
0.00511481
-0.125282
0.127423
-0.00324378
0.00152115
-0.0435003
0.0452229
-0.000480092
-0.00401942
0.00449951
-0.0761295
0.0751181
0.00101141
-0.00293199
0.00264759
-0.426268
0.426553
-0.00134763
-0.000692979
-0.600638
0.602678
0.00427671
-0.00794846
-0.734227
0.737899
0.0121723
-0.0161873
-0.853914
0.857929
0.0210772
-0.02515
-0.976432
0.980505
0.0299117
-0.0339631
-1.11101
1.11506
0.0384288
-0.042154
-1.25677
1.26049
0.0455405
-0.0477252
-1.41194
1.41413
0.0492853
-0.0494475
-1.57455
1.57472
0.0483649
-0.0454236
-1.46909
1.46615
0.0419016
-0.0370236
-1.16004
1.15516
0.0319469
-0.0255506
-0.928101
0.921704
0.0193761
-0.0124906
-0.742545
0.73566
0.00662866
-0.00129472
-0.574487
0.569153
-0.00218036
0.00412249
-0.40853
0.406588
-0.00485125
0.00452393
-0.25228
0.252608
-0.00378716
0.00264564
-0.127683
0.128824
-0.00166883
0.000821505
-0.0456914
0.0465387
-0.000274454
-0.00462234
0.00489679
-0.0764735
0.0757702
0.000703219
-0.00184003
0.00115894
-0.429802
0.430483
-7.68464e-05
-0.00224425
-0.606549
0.60887
0.00550255
-0.00908341
-0.741677
0.745258
0.0131705
-0.0173405
-0.861819
0.865989
0.0216437
-0.0258824
-0.984799
0.989038
0.0306027
-0.0344435
-1.11954
1.12338
0.0390015
-0.0427059
-1.26404
1.26774
0.0462092
-0.048996
-1.41677
1.41956
0.0511349
-0.0516254
-1.57498
1.57547
0.0507489
-0.0483643
-1.46335
1.46097
0.0451872
-0.0404674
-1.15006
1.14534
0.0355325
-0.029717
-0.915177
0.909361
0.0237168
-0.0176698
-0.728491
0.722444
0.0124522
-0.00753644
-0.563247
0.558331
0.0042467
-0.00180818
-0.402091
0.399653
0.00057698
6.31615e-05
-0.25059
0.249949
-0.000261198
0.000292271
-0.12808
0.128049
-0.000298549
0.000231061
-0.0463028
0.0463703
-0.000114252
-0.00484342
0.00495767
-0.0772137
0.0766584
0.0005553
-0.000925994
0.000370861
-0.433534
0.434089
0.00142676
-0.00353514
-0.612706
0.614815
0.00694872
-0.0104255
-0.748687
0.752164
0.0143782
-0.0181666
-0.86984
0.873628
0.022599
-0.0265188
-0.993287
0.997207
0.0311717
-0.0354276
-1.12766
1.13192
0.0396274
-0.0436718
-1.2715
1.27555
0.0476256
-0.0505432
-1.42228
1.4252
0.0530679
-0.0542823
-1.57618
1.5774
0.0537122
-0.0517434
-1.45838
1.45641
0.0485887
-0.0441861
-1.14057
1.13616
0.0396402
-0.0341371
-0.903147
0.897644
0.0287936
-0.0232581
-0.715926
0.710391
0.0184917
-0.0137642
-0.552763
0.548036
0.010285
-0.0074627
-0.395317
0.392495
0.0054454
-0.00390794
-0.247144
0.245606
0.00272547
-0.00161481
-0.126368
0.125257
0.00078704
-0.000198336
-0.045419
0.0448303
-9.41581e-06
-0.00469274
0.00470215
-0.0782036
0.0778229
0.000380701
3.24183e-05
-0.000843062
-0.437317
0.438128
0.00248126
-0.00488725
-0.618418
0.620824
0.00823
-0.0115583
-0.755498
0.758826
0.0155985
-0.0192387
-0.877397
0.881037
0.0235085
-0.027533
-1.0016
1.00562
0.0320675
-0.0362739
-1.13602
1.14023
0.0406886
-0.0447678
-1.27952
1.2836
0.0489238
-0.0525864
-1.42842
1.43208
0.0555166
-0.0569247
-1.57853
1.57993
0.0568822
-0.0550477
-1.45425
1.45241
0.0523131
-0.0483692
-1.13164
1.1277
0.043936
-0.0388353
-0.891893
0.886792
0.03393
-0.0286824
-0.704501
0.699253
0.0242718
-0.0195843
-0.542947
0.538259
0.0159514
-0.0124886
-0.387951
0.384489
0.00988762
-0.00745603
-0.242
0.239569
0.00529247
-0.00325516
-0.122684
0.120646
0.00175245
-0.00063098
-0.0432822
0.0421607
0.000109674
-0.00431523
0.00420555
-0.0794026
0.0791468
0.000255845
0.000937228
-0.00179109