/*--------------------------------*- C++ -*----------------------------------*\
  =========                 |
  \\      /  F ield         | OpenFOAM: The Open Source CFD Toolbox
   \\    /   O peration     | Website:  https://openfoam.org
    \\  /    A nd           | Version:  10
     \\/     M anipulation  |
\*---------------------------------------------------------------------------*/
FoamFile
{
    format      ascii;
    class       volScalarField;
    location    "65";
    object      p;
}
// * * * * * * * * * * * * * * * * * * * * * * * * * * * * * * * * * * * * * //

dimensions      [0 2 -2 0 0 0 0];

internalField   nonuniform List<scalar> 
918
(
0.557123
1.18555
0.000858647
0.556568
-0.00948276
1.15254
-0.509424
0.665656
0.537321
-0.110261
-0.0479345
0.539064
1.01322
0.778057
-1.12375
-0.011019
0.651772
-0.381327
0.536432
-0.0575633
0.693325
0.543862
0.546887
0.537465
0.598416
0.753146
0.894059
0.0228302
0.0114565
0.0049576
-0.0144571
-0.0361832
-0.0308456
1.0362
1.08727
1.10996
0.505087
0.333239
-0.374939
-0.447621
-0.435579
-0.544357
0.662521
0.660954
-0.20987
0.66911
0.671661
0.52435
0.53669
0.537602
0.538623
0.537607
0.538988
0.404111
-0.110277
-0.14156
-0.0917532
-0.0845925
0.0529585
-0.0496256
-0.0516713
-0.0463856
-0.046336
0.454224
0.533371
0.529825
0.543591
0.553954
1.12509
1.09704
1.12317
1.03677
1.05329
0.991235
0.963823
0.799665
0.821377
0.762163
0.749744
-1.55544
-2.50706
-0.533897
-0.283383
-0.0153752
-0.0088669
-0.00270569
0.64863
0.649833
0.651255
0.653826
1.08026
-0.378731
-0.479147
0.536574
0.535384
0.543705
0.544405
0.540425
0.539515
-0.0491834
-0.0463141
-0.0482863
-0.0541972
-0.0524572
0.682193
0.682775
0.537994
0.534998
0.561366
0.581219
0.571563
0.278018
0.609042
0.625345
0.584094
0.746311
0.739647
0.748936
0.86769
0.830492
0.931248
0.954587
0.0172558
-0.00111612
-0.0154761
-0.0193891
-0.0180513
0.500916
0.493455
0.52089
0.508523
0.511031
0.249929
0.116486
0.418212
0.443072
-0.293799
-0.359824
-0.428835
-0.459257
-0.567422
0.611948
0.658789
0.656962
-0.220429
-0.148516
-0.281469
-0.0754551
-0.138276
0.514611
0.521627
0.516624
0.532182
0.526647
0.528611
0.540961
0.538032
0.539591
0.466345
0.590024
0.330237
0.294834
-0.243007
-0.156251
-0.243089
-0.0734495
-0.0694628
0.0670192
0.0925797
0.0398253
0.0280399
-0.0635202
-0.0555591
-0.0593666
-0.0445459
-0.0448398
0.446978
0.43578
0.466918
0.474483
0.519837
0.521379
0.525986
0.523772
0.914727
0.937108
0.944548
0.918348
-3.4969
-6.27903
0.0413227
0.177904
-0.00647076
-0.0108685
0.00459015
-0.0103882
-0.00321665
-0.00441079
-0.00760546
-0.00863862
-0.00361263
-0.00227037
0.642822
0.644009
1.00237
1.00908
0.97811
0.930948
0.524792
0.526863
0.53236
0.528243
-0.044291
-0.0448493
-0.0435953
0.674977
0.680215
0.677912
0.239573
0.149961
0.329031
0.358131
0.636639
0.625562
0.635092
0.644755
0.679724
0.961996
0.980111
0.978447
0.986702
1.03077
1.04721
1.01247
0.480324
0.490327
0.485262
0.523985
0.521765
0.522663
0.518652
0.519834
0.517875
-0.0340054
-0.414039
0.490393
0.507363
0.492618
0.495136
0.692142
0.770809
0.653619
0.655658
0.655022
-0.00649153
-0.0649557
0.250069
0.215991
0.386547
0.422946
0.401921
0.885882
0.846282
0.89633
0.869854
0.831152
0.857333
-0.365574
-1.86529
-0.984258
0.527081
0.341783
0.428769
0.00989338
-0.00695037
-0.00244517
1.00178
1.07417
0.645864
0.820799
0.823501
0.717126
0.747917
0.803527
0.727716
0.763468
0.799455
0.781129
0.56793
0.503471
0.519417
0.840007
0.895808
0.119987
0.0587034
0.0147611
0.111426
0.168752
0.142835
1.03426
0.949659
1.01992
0.534759
0.535479
-0.00441034
-0.0184208
0.539723
0.539779
-0.0164957
-0.00384499
0.41189
-0.831563
0.099931
0.528304
0.518206
0.535338
-0.0943824
0.355565
-0.0481751
0.0483406
-0.00764215
0.530581
0.465363
0.424442
-0.000177409
-0.0195996
-0.0494694
-0.2132
0.532429
0.530733
0.534806
0.535748
0.536428
-0.0185162
-0.013576
-0.0100517
-0.0463514
-0.0402809
-0.0516419
0.499248
0.518482
-0.169911
0.534953
0.537087
0.536906
0.530167
0.535798
0.53405
-0.0109213
-0.016976
-0.01824
0.220073
0.351688
0.651315
0.738833
0.622552
0.399008
0.164096
0.555032
0.618214
0.523974
0.677526
0.654775
0.66625
0.165485
0.0152943
0.174125
0.115731
0.526164
0.524881
0.51646
0.513422
0.530206
0.528319
0.532878
0.529899
0.532849
0.534231
-0.0504104
-0.0785403
-0.0870512
-0.154537
0.310357
0.571676
0.254125
0.283991
0.141861
-0.042819
-0.0432735
-0.0469018
-0.0550543
0.000760037
-0.0229922
0.0432479
0.0435346
0.0155578
-0.0100932
-0.00735122
-0.0181931
-0.0132134
0.524317
0.524132
0.527434
0.536374
0.475016
0.478803
0.443633
0.464391
0.449654
0.38839
0.423666
0.398901
-0.00806979
0.00174025
-0.00524379
-0.0172401
-0.0132733
-0.033008
-0.0295458
-0.0253403
-0.0212619
-0.0278974
-0.0436782
-0.0457516
-0.171124
-0.286909
0.988737
0.910081
0.137165
0.521576
0.528033
0.524793
0.529717
0.532845
0.533646
0.531356
0.527904
0.518758
0.520222
0.51717
0.518177
-0.101549
-0.242698
-0.0708798
-0.144971
0.144933
0.627602
0.363583
0.299201
0.294431
0.522912
0.916832
0.700425
0.673405
0.678324
-0.342608
0.0464654
-0.279024
0.335975
0.163294
0.652056
0.700984
0.722246
0.670274
0.623355
-0.101617
0.555993
-0.0720917
-0.0201187
0.181164
0.0577545
0.665738
0.641897
0.648031
0.658904
0.674151
0.646458
0.632652
0.628711
0.653677
0.655915
0.485155
0.250832
0.201772
0.163283
0.642244
0.519305
0.571072
0.491074
0.521408
0.523979
0.522623
0.504086
0.511679
0.507195
0.513794
0.517351
0.525924
0.526392
0.521665
0.523796
-0.0577861
-0.063514
-0.0282725
-0.135723
-0.128956
-0.190978
-0.0611893
0.0766022
0.0377447
0.237683
0.341883
0.0531776
-0.0572331
-0.0300514
0.0124872
0.180701
0.208641
0.074406
0.162094
0.153135
0.134727
0.237216
0.240725
-0.0272875
-0.0302787
-0.0342496
-0.0359235
0.0191316
0.0901116
0.099703
-0.00556226
-0.0116456
-0.0412478
-0.0419885
-0.0210136
-0.027342
-0.0224793
0.00769414
-0.0525679
-0.0199031
-0.0058825
-0.00260596
-0.00449392
-0.00996722
0.518277
0.520465
0.520501
0.526964
0.540765
0.555735
0.52029
0.497246
0.488021
0.491044
0.463882
0.474212
0.469919
0.483593
0.504598
0.514027
0.5119
0.51477
0.496768
0.498606
0.485105
0.488774
0.463762
0.444504
0.432596
-0.0424569
-0.00431841
-0.0118121
-0.0382673
-0.00928731
-0.0210566
-0.00973364
0.00869546
-0.00747705
-0.00873837
-0.0185366
-0.0255789
-0.0250902
-0.0729603
0.0136939
-0.183922
-0.219762
-0.292613
0.890851
1.01496
0.810447
0.58353
0.603645
0.846728
0.931403
0.543551
0.735911
0.759064
0.586734
0.854352
0.526424
0.526021
0.52362
0.523101
0.524322
-0.00699041
0.0989969
0.097971
0.160777
0.276655
0.388381
0.318785
0.194117
0.324359
0.326841
0.620648
0.632812
0.588222
0.612312
0.612949
0.425278
0.500819
0.552647
0.512912
0.565146
0.586559
0.540578
0.573375
0.523402
0.478616
0.474619
0.424673
0.444301
0.420073
0.403158
0.51512
0.493127
0.503459
0.494155
0.514314
0.542264
0.538784
0.561658
0.576363
0.497905
0.45285
0.462216
0.492471
0.453685
0.469146
0.485367
0.232032
0.133826
0.216883
-0.0686851
0.00285747
-0.00992442
-0.0584545
-0.00761026
0.276739
-0.414667
-0.391114
-1.01854
0.503116
0.953828
0.600304
0.574239
0.6736
0.657138
0.662914
0.679597
0.680556
0.630579
0.640587
0.645345
0.601821
0.62307
0.641695
0.638021
0.524921
0.383948
0.382634
0.331103
0.201276
0.240864
0.437604
0.361515
0.286498
0.286697
0.456974
0.343782
0.413524
0.447346
0.378813
0.333371
0.535826
0.601771
0.595353
0.56865
0.480609
0.49322
0.517371
0.551152
0.575592
0.606388
0.513187
0.519126
0.520356
0.517827
0.515111
0.518191
0.518459
0.521012
0.521629
0.524632
0.523689
-0.0497895
-0.0363134
-0.0499947
-0.0599821
-0.0198322
-0.0218975
0.0235449
0.0080748
-0.0143516
-0.008889
-0.0323095
-0.0370072
-0.0332061
-0.0247141
0.100949
0.11373
0.0977656
0.0581223
0.251535
0.380854
0.455318
0.330655
0.22445
0.247535
0.266895
-0.0114419
0.0134347
0.000539732
0.0401939
0.0325325
-0.036212
-0.0397665
-0.036663
-0.0296365
-0.0203153
-0.0364094
-0.0413012
-0.0321632
-0.0369368
-0.0397258
-0.0433907
0.499509
0.492948
0.494625
0.488427
0.487157
0.501623
0.505922
0.507885
0.513447
0.515904
0.505685
0.511413
0.515493
-0.0108103
-0.0338423
-0.0374674
-0.0276372
-0.0301165
-0.0278456
-0.0292381
0.123614
0.0543851
0.0584802
0.010745
-0.121278
-0.0632475
0.491427
0.490135
0.479591
0.72096
0.570239
0.4908
0.587785
0.693552
0.276121
0.47296
0.307939
0.888548
0.784939
0.931319
0.542477
0.2453
0.408374
0.451777
0.264806
0.340223
0.325313
0.214286
0.245083
0.282776
0.381834
0.265311
0.241958
-0.00131228
0.189097
0.301427
0.28323
0.407952
0.468656
0.266059
0.185717
0.140881
0.605531
0.625036
0.638346
0.611076
0.632204
0.579975
0.572047
0.587818
0.595999
0.589951
-0.74673
-0.453263
-1.39976
-0.721763
-0.266929
0.533576
0.504688
0.769364
0.646617
0.68435
0.669497
0.628287
0.597832
0.621153
0.644623
0.34226
0.453034
0.428269
0.433752
0.336141
0.266637
0.56424
0.560986
0.593559
0.616854
0.589441
0.618752
0.511022
0.51075
0.510193
0.506429
0.504696
0.507073
0.0575925
0.0254068
0.0641685
0.0457629
0.0224036
0.00909047
-0.00846654
-0.0183774
-0.0257216
-0.0254987
-0.0114089
-0.00741522
0.171386
0.109149
0.0296227
0.0587685
-0.00202022
-0.0705837
-0.0894485
0.0156203
0.111763
0.101952
0.405485
0.655261
0.47527
0.642749
0.485206
0.541022
0.46813
0.459556
0.484557
0.379424
0.459887
0.247612
-0.260015
-0.169133
0.793568
0.804966
0.581027
0.40506
0.173462
0.352298
0.542435
0.472963
0.508624
0.577667
0.565203
0.0276414
0.0860141
0.370691
0.597572
0.239872
0.231009
0.224532
0.408043
0.326763
)
;

boundaryField
{
    wall-4
    {
        type            zeroGradient;
    }
    velocity-inlet-5
    {
        type            zeroGradient;
    }
    velocity-inlet-6
    {
        type            zeroGradient;
    }
    pressure-outlet-7
    {
        type            fixedValue;
        value           uniform 0;
    }
    wall-8
    {
        type            zeroGradient;
    }
    frontAndBackPlanes
    {
        type            empty;
    }
}


// ************************************************************************* //
