/*--------------------------------*- C++ -*----------------------------------*\
  =========                 |
  \\      /  F ield         | OpenFOAM: The Open Source CFD Toolbox
   \\    /   O peration     | Website:  https://openfoam.org
    \\  /    A nd           | Version:  10
     \\/     M anipulation  |
\*---------------------------------------------------------------------------*/
FoamFile
{
    format      ascii;
    class       volScalarField;
    location    "67";
    object      p;
}
// * * * * * * * * * * * * * * * * * * * * * * * * * * * * * * * * * * * * * //

dimensions      [0 2 -2 0 0 0 0];

internalField   nonuniform List<scalar> 
2200
(
0.771264
0.749765
0.733862
0.718199
0.703595
0.691087
0.680747
0.672661
0.666984
0.664066
0.664599
0.668435
0.674801
0.683377
0.694071
0.706854
0.721654
0.737591
0.753639
0.775137
0.703686
0.700429
0.697507
0.693393
0.687939
0.681474
0.67487
0.668938
0.664463
0.662126
0.662634
0.665996
0.6712
0.677681
0.684681
0.691442
0.697107
0.701201
0.704051
0.707415
0.663747
0.663968
0.666032
0.667383
0.667781
0.666938
0.66497
0.662314
0.659798
0.658346
0.658944
0.661444
0.664767
0.668021
0.670371
0.671381
0.671119
0.67012
0.668477
0.668229
0.641238
0.642691
0.645289
0.647747
0.6502
0.652234
0.653408
0.653666
0.653328
0.65308
0.653771
0.655192
0.656431
0.65685
0.656187
0.654528
0.652381
0.65021
0.647608
0.646203
0.626857
0.62883
0.631653
0.634499
0.63737
0.640216
0.642696
0.644586
0.645852
0.646703
0.647502
0.648027
0.64783
0.646764
0.644931
0.642574
0.640033
0.637312
0.634523
0.6326
0.619479
0.621078
0.623287
0.625826
0.628507
0.631195
0.633812
0.636264
0.638329
0.63991
0.640843
0.640932
0.640149
0.638671
0.636811
0.634698
0.632386
0.630049
0.627951
0.626377
0.616004
0.617026
0.618302
0.62018
0.622342
0.624532
0.62676
0.629099
0.631373
0.633284
0.6344
0.634489
0.63378
0.632626
0.631272
0.629743
0.628069
0.626506
0.625399
0.624381
0.613287
0.613956
0.614595
0.61591
0.617544
0.619258
0.621048
0.623025
0.625163
0.627216
0.628562
0.628967
0.628717
0.628153
0.627419
0.626509
0.625481
0.624573
0.624135
0.623458
0.609973
0.610418
0.610821
0.611833
0.613117
0.614532
0.616075
0.617803
0.619739
0.621815
0.623445
0.624333
0.62468
0.624699
0.624472
0.624044
0.623498
0.62299
0.622811
0.622346
0.605844
0.60614
0.606502
0.607384
0.608516
0.609818
0.611297
0.612969
0.614865
0.617009
0.619021
0.620469
0.621353
0.621817
0.62197
0.621891
0.621637
0.621338
0.621222
0.620896
0.60103
0.601231
0.601609
0.602453
0.60357
0.604912
0.606485
0.608295
0.610365
0.612744
0.615186
0.617165
0.618505
0.619326
0.619749
0.619904
0.619837
0.619693
0.619602
0.619362
0.595713
0.595857
0.596233
0.597057
0.598225
0.599693
0.601458
0.603522
0.605918
0.608743
0.611731
0.614231
0.615988
0.61713
0.617807
0.61815
0.618296
0.618301
0.618243
0.61805
0.58997
0.590079
0.590462
0.591296
0.592546
0.594176
0.596182
0.598593
0.601465
0.604868
0.608503
0.61159
0.613801
0.615285
0.616254
0.616856
0.617215
0.617361
0.617347
0.617174
0.583799
0.583866
0.584255
0.585121
0.586476
0.588289
0.590566
0.593368
0.596814
0.600952
0.605406
0.609177
0.611915
0.613851
0.615211
0.61613
0.616738
0.617035
0.617063
0.616897
0.577051
0.577087
0.577513
0.578434
0.579955
0.582002
0.584605
0.58789
0.592018
0.597058
0.602437
0.607015
0.610438
0.612937
0.61477
0.616069
0.616943
0.617397
0.617474
0.617308
0.569705
0.569665
0.570102
0.571129
0.572862
0.575175
0.578151
0.581977
0.586857
0.592902
0.599445
0.605089
0.609361
0.612592
0.615009
0.616751
0.617931
0.618551
0.618677
0.618504
0.561417
0.561416
0.561849
0.562956
0.56494
0.567571
0.571023
0.575521
0.58133
0.588611
0.596529
0.603431
0.608772
0.612853
0.615931
0.618203
0.619732
0.620531
0.620715
0.62053
0.552001
0.552018
0.552478
0.553745
0.556028
0.559106
0.563198
0.568548
0.575481
0.584256
0.593835
0.602247
0.608822
0.613854
0.61771
0.620547
0.622477
0.623468
0.623702
0.623498
0.541076
0.541049
0.541621
0.543112
0.545747
0.5494
0.554308
0.560741
0.569069
0.579599
0.591263
0.601458
0.609424
0.615596
0.62031
0.623836
0.626214
0.627392
0.627674
0.627445
0.528048
0.527976
0.52866
0.530531
0.533759
0.538224
0.54422
0.552082
0.562245
0.574999
0.588942
0.601192
0.610775
0.618209
0.623917
0.628168
0.631026
0.632399
0.632712
0.632454
0.51273
0.512625
0.513397
0.515612
0.519568
0.525116
0.532562
0.542293
0.554787
0.570307
0.586975
0.601521
0.612847
0.621681
0.628473
0.633587
0.636962
0.638504
0.63883
0.638538
0.494023
0.493948
0.494972
0.497755
0.502688
0.509681
0.519106
0.531366
0.546866
0.565659
0.585488
0.602517
0.615789
0.626111
0.63411
0.640109
0.64397
0.645674
0.645984
0.645661
0.470917
0.470763
0.472092
0.475737
0.48222
0.491406
0.503595
0.519163
0.538344
0.561002
0.584419
0.604299
0.61967
0.631573
0.640811
0.647703
0.652027
0.653826
0.654074
0.653727
0.441252
0.441282
0.443387
0.448461
0.457243
0.469575
0.48561
0.505465
0.529132
0.556331
0.583759
0.606667
0.624226
0.637873
0.648458
0.656241
0.660912
0.662759
0.662913
0.662547
0.402034
0.402285
0.40585
0.413875
0.426699
0.44399
0.465346
0.490659
0.519726
0.552078
0.583884
0.609971
0.62985
0.645186
0.657021
0.665556
0.670425
0.67218
0.672214
0.671851
0.349867
0.350317
0.357407
0.370754
0.390156
0.414751
0.443182
0.475162
0.51044
0.548467
0.584826
0.614184
0.636304
0.65334
0.666387
0.675445
0.680131
0.681493
0.681379
0.681083
0.281638
0.284399
0.299649
0.321369
0.349714
0.383224
0.419854
0.459301
0.501446
0.545802
0.587292
0.620283
0.645191
0.664272
0.678565
0.688081
0.692414
0.693202
0.693104
0.692894
0.203944
0.213683
0.239203
0.270669
0.309222
0.35192
0.396803
0.44402
0.493486
0.544512
0.591576
0.628874
0.656866
0.677992
0.693751
0.703467
0.70729
0.70754
0.707564
0.707439
0.134842
0.149503
0.181457
0.222031
0.270296
0.321889
0.374912
0.429879
0.48655
0.544198
0.596774
0.638117
0.668679
0.691793
0.70848
0.718144
0.721635
0.72163
0.721775
0.721725
0.0821788
0.0956916
0.132436
0.179102
0.23485
0.294108
0.354581
0.416789
0.480359
0.544525
0.602461
0.647478
0.680692
0.705466
0.723144
0.733192
0.736254
0.736558
0.7368
0.736772
0.0385826
0.0513133
0.0920413
0.142698
0.203909
0.269118
0.336037
0.404812
0.474757
0.544822
0.607685
0.656403
0.692345
0.718912
0.73781
0.748273
0.751908
0.752515
0.752547
0.752607
0.00165223
0.0144581
0.0578396
0.111376
0.176953
0.247047
0.31948
0.393902
0.469426
0.544932
0.612797
0.665276
0.70356
0.731817
0.752055
0.763248
0.767115
0.767744
0.767773
0.767837
-0.030657
-0.0176071
0.0279597
0.0841052
0.153346
0.227457
0.304505
0.383778
0.464422
0.545385
0.618164
0.673835
0.714299
0.744211
0.765636
0.777091
0.781339
0.782027
0.78209
0.782136
-0.0591134
-0.0461705
0.00110342
0.0596804
0.132109
0.209695
0.290791
0.374462
0.459963
0.546014
0.623011
0.681645
0.724366
0.755478
0.777745
0.789816
0.794267
0.795074
0.795125
0.795157
-0.0851116
-0.0721288
-0.0235686
0.037375
0.112635
0.193313
0.278041
0.365716
0.455561
0.545953
0.6269
0.688685
0.733419
0.765807
0.788451
0.800985
0.805801
0.806699
0.806767
0.806782
-0.10903
-0.0959583
-0.0465952
0.0165831
0.0943529
0.177842
0.265845
0.357009
0.450611
0.545099
0.630272
0.695118
0.74157
0.774913
0.797939
0.811031
0.815937
0.816956
0.817023
0.817016
-0.13161
-0.118194
-0.0681977
-0.00302228
0.076937
0.162944
0.253795
0.347984
0.445066
0.543692
0.632985
0.700776
0.748941
0.783465
0.806666
0.819891
0.82491
0.82597
0.826027
0.825997
-0.152876
-0.139231
-0.0886011
-0.0217229
0.0600703
0.148278
0.241637
0.338601
0.438979
0.541474
0.634731
0.705804
0.755994
0.791326
0.814778
0.827913
0.832755
0.833858
0.833894
0.833839
-0.172998
-0.159368
-0.108014
-0.039735
0.0435909
0.133738
0.229356
0.328891
0.432314
0.538425
0.635746
0.710248
0.762657
0.79911
0.822518
0.834982
0.83984
0.840722
0.840777
0.840682
-0.192334
-0.1785
-0.12663
-0.057212
0.0274203
0.119281
0.216946
0.31885
0.425069
0.534565
0.635891
0.714085
0.769223
0.806792
0.830007
0.841879
0.846028
0.846788
0.846726
0.846642
-0.211299
-0.196902
-0.144612
-0.0742156
0.0115598
0.104945
0.204443
0.308467
0.417178
0.529816
0.635168
0.717386
0.775677
0.815004
0.837968
0.8486
0.85173
0.852006
0.852006
0.852027
-0.229826
-0.214702
-0.162058
-0.0907631
-0.00397022
0.0907409
0.191817
0.29769
0.408646
0.524222
0.633482
0.719973
0.782086
0.823759
0.846893
0.856212
0.857232
0.856827
0.85655
0.856391
-0.247921
-0.232107
-0.17903
-0.106862
-0.0191691
0.0766747
0.179085
0.286557
0.399541
0.517792
0.630744
0.721739
0.788187
0.833342
0.857732
0.865277
0.863762
0.862069
0.861877
0.862911
-0.265381
-0.249057
-0.195519
-0.12252
-0.0340334
0.0627586
0.16627
0.275128
0.389947
0.510593
0.626854
0.722401
0.79388
0.84355
0.870784
0.877817
0.873451
0.866482
0.861764
0.860939
-0.282262
-0.265548
-0.211503
-0.137729
-0.048556
0.0490266
0.153457
0.263515
0.379957
0.502676
0.621796
0.721759
0.798505
0.854156
0.886286
0.894798
0.890072
0.879627
0.880017
0.884178
-0.298489
-0.28144
-0.226915
-0.152462
-0.0626959
0.0355446
0.140732
0.251802
0.369627
0.494082
0.615587
0.719492
0.801798
0.864125
0.90315
0.916512
0.911088
0.881885
0.84457
0.812222
-0.314074
-0.296779
-0.241792
-0.166773
-0.0765377
0.0222122
0.12798
0.239837
0.358733
0.484605
0.608057
0.715221
0.802559
0.872555
0.920802
0.942055
0.950019
0.923584
0.941176
1.00348
-0.328937
-0.311539
-0.256195
-0.180795
-0.0902442
0.00882647
0.114936
0.227262
0.346824
0.473672
0.59855
0.708051
0.799784
0.876452
0.931011
0.957148
0.956935
0.927885
0.883273
0.90078
-0.343087
-0.325751
-0.270096
-0.194459
-0.10373
-0.00451793
0.101712
0.214205
0.334018
0.461335
0.587009
0.697772
0.791218
0.871167
0.927398
0.954168
0.932731
0.872909
0.80647
0.79333
-0.356484
-0.339347
-0.283471
-0.20777
-0.116995
-0.0178188
0.088309
0.200673
0.320338
0.447571
0.573279
0.683942
0.776505
0.853078
0.904327
0.90474
0.864344
0.782593
0.705663
0.679786
-0.369188
-0.352383
-0.296356
-0.220742
-0.130063
-0.0311037
0.0747193
0.18669
0.305828
0.432396
0.557249
0.666279
0.754125
0.819276
0.845813
0.828043
0.762886
0.657882
0.568324
0.543803
-0.381618
-0.365185
-0.309109
-0.233742
-0.143289
-0.0446785
0.0606776
0.172026
0.290299
0.415626
0.538683
0.644141
0.724839
0.773647
0.766522
0.727784
0.610522
0.484734
0.375059
0.345781
-0.394637
-0.37861
-0.322445
-0.247364
-0.157215
-0.0590158
0.0457866
0.156365
0.273505
0.397089
0.517349
0.617122
0.690568
0.713815
0.67925
0.58634
0.42664
0.271174
0.139499
0.110024
-0.408739
-0.39292
-0.336613
-0.261849
-0.172024
-0.0742302
0.0299724
0.139658
0.255434
0.376768
0.493113
0.586093
0.648768
0.642698
0.589566
0.435577
0.233404
0.0188932
-0.162588
-0.212761
-0.424065
-0.408364
-0.35175
-0.277201
-0.18768
-0.0902975
0.0132606
0.121949
0.236148
0.354776
0.466029
0.552526
0.599884
0.561939
0.472933
0.282687
0.0504907
-0.239121
-0.560163
-0.709936
-0.440665
-0.424861
-0.367885
-0.293538
-0.204262
-0.107275
-0.00441102
0.103164
0.215591
0.331104
0.436312
0.516077
0.545078
0.476663
0.337898
0.131511
-0.102369
-0.446118
-1.03081
-1.60144
-0.458656
-0.442708
-0.385198
-0.310891
-0.221775
-0.125169
-0.0230211
0.0833862
0.193927
0.306155
0.40515
0.476681
0.486228
0.40167
0.208259
-0.0254555
-0.227824
-0.46173
-1.01294
-2.51416
-0.478033
-0.461744
-0.403672
-0.329429
-0.240411
-0.144173
-0.0428024
0.0623303
0.170817
0.279538
0.372355
0.433952
0.422349
0.342669
0.114705
-0.12262
-0.270551
-0.307844
-0.296704
-0.680968
-0.498755
-0.4824
-0.423625
-0.349398
-0.260531
-0.164795
-0.0643867
0.0392356
0.145333
0.249969
0.33697
0.3877
0.359762
0.291972
0.0650662
-0.136781
-0.247604
-0.255866
-0.203074
-0.243069
-0.52069
-0.50422
-0.444883
-0.370929
-0.282279
-0.187167
-0.0879362
0.0139109
0.117252
0.217245
0.299041
0.339582
0.304909
0.237345
0.0325492
-0.127311
-0.20978
-0.218016
-0.265777
-0.269813
-0.543794
-0.527489
-0.467566
-0.393943
-0.305586
-0.211316
-0.113506
-0.013702
0.0865567
0.181742
0.258478
0.289253
0.257164
0.17579
0.00428082
-0.118169
-0.188522
-0.165625
-0.186059
-0.187716
-0.567777
-0.551216
-0.491308
-0.418436
-0.330398
-0.237182
-0.14103
-0.0435053
0.0533644
0.143834
0.215632
0.235571
0.215845
0.107758
-0.0312816
-0.113504
-0.152496
-0.200821
-0.174932
-0.183605
-0.592593
-0.575633
-0.51619
-0.44412
-0.356376
-0.264596
-0.170322
-0.0752852
0.0178464
0.103902
0.171364
0.180746
0.172627
0.0467965
-0.0682325
-0.131944
-0.109433
-0.169128
-0.149766
-0.154778
-0.617042
-0.599865
-0.541881
-0.470758
-0.383334
-0.29337
-0.201128
-0.108718
-0.0197932
0.0622881
0.126876
0.128655
0.120693
-0.00428578
-0.0951494
-0.146374
-0.134086
-0.149512
-0.154771
-0.153021
-0.640938
-0.623881
-0.56788
-0.497526
-0.410758
-0.323093
-0.233003
-0.143397
-0.0590097
0.0193828
0.0825028
0.0805976
0.0633139
-0.0467799
-0.108706
-0.14027
-0.178714
-0.15009
-0.155789
-0.150164
-0.663048
-0.646729
-0.592769
-0.523658
-0.438554
-0.35333
-0.265519
-0.178818
-0.0990173
-0.024611
0.0381056
0.0370961
0.00768621
-0.0815009
-0.121376
-0.114793
-0.187513
-0.130182
-0.145267
-0.13742
-0.682931
-0.667735
-0.615868
-0.548029
-0.466009
-0.383168
-0.297889
-0.21435
-0.138804
-0.0690461
-0.00682982
-0.00323843
-0.0371541
-0.100317
-0.129345
-0.0884381
-0.134258
-0.116418
-0.122505
-0.119267
-0.698797
-0.685216
-0.636015
-0.57037
-0.492324
-0.411839
-0.329521
-0.249338
-0.177466
-0.113282
-0.052064
-0.0410064
-0.0684746
-0.10099
-0.117197
-0.0947382
-0.108495
-0.11257
-0.113753
-0.113955
-0.70998
-0.698549
-0.652718
-0.58965
-0.515538
-0.438167
-0.359228
-0.282725
-0.214172
-0.155981
-0.0963623
-0.0761704
-0.0906043
-0.0970357
-0.108782
-0.119623
-0.112008
-0.11554
-0.113785
-0.11492
-0.714946
-0.705916
-0.664264
-0.604805
-0.534871
-0.461304
-0.386304
-0.313694
-0.24821
-0.195634
-0.137117
-0.110198
-0.118989
-0.0962938
-0.106724
-0.141534
-0.118598
-0.125003
-0.118084
-0.11914
-0.713876
-0.706966
-0.669709
-0.614205
-0.54863
-0.479593
-0.409071
-0.340723
-0.278778
-0.23022
-0.173498
-0.142359
-0.14065
-0.10221
-0.0980697
-0.126306
-0.106921
-0.126955
-0.12472
-0.126767
-0.705764
-0.698481
-0.666286
-0.61656
-0.556465
-0.492475
-0.426844
-0.362721
-0.304167
-0.258228
-0.203966
-0.171439
-0.157441
-0.116059
-0.0568043
-0.0473227
-0.0616903
-0.0712791
-0.0749617
-0.0786103
-0.684957
-0.67661
-0.652664
-0.610462
-0.556722
-0.498397
-0.438188
-0.378074
-0.322276
-0.277692
-0.226709
-0.191585
-0.176738
-0.184909
-0.208357
-0.258182
-0.269012
-0.258386
-0.244847
-0.233976
-0.642154
-0.634302
-0.625896
-0.595949
-0.550487
-0.498418
-0.443167
-0.386066
-0.331217
-0.28595
-0.236787
-0.196065
-0.248675
-0.355753
-0.565762
-0.73746
-0.749815
-0.730803
-0.665424
-0.605285
-0.601525
-0.598761
-0.597472
-0.574433
-0.538051
-0.492862
-0.442121
-0.386828
-0.330009
-0.280637
-0.231659
-0.165279
-0.187272
-0.274122
-0.386444
-0.41605
-0.35666
-0.287033
-0.24665
-0.223913
-0.578583
-0.580362
-0.570116
-0.556458
-0.527728
-0.48654
-0.43684
-0.381342
-0.319296
-0.258057
-0.200322
-0.0876778
0.0488846
0.251942
0.448088
0.637975
0.778145
0.860942
0.90479
0.943038
-0.547337
-0.547
-0.543916
-0.542691
-0.518497
-0.480586
-0.431431
-0.37384
-0.305759
-0.227863
-0.147524
-0.0135171
0.19764
0.514459
0.819751
1.07407
1.25167
1.35616
1.40662
1.42274
-0.535413
-0.533524
-0.536391
-0.529049
-0.512198
-0.477117
-0.426402
-0.36519
-0.292849
-0.203013
-0.104178
0.0223511
0.255923
0.574856
0.885056
1.14483
1.33628
1.44872
1.49891
1.51492
-0.523084
-0.521408
-0.52464
-0.516415
-0.511419
-0.476867
-0.424863
-0.360345
-0.283739
-0.187529
-0.0809357
0.0240508
0.242862
0.520864
0.793719
1.02941
1.21349
1.32471
1.37404
1.38764
-0.513192
-0.513273
-0.513167
-0.512731
-0.510305
-0.475554
-0.424511
-0.359699
-0.281477
-0.184846
-0.0802289
0.00193815
0.186551
0.422268
0.647038
0.840862
0.996934
1.09192
1.13304
1.14316
-0.505845
-0.507314
-0.505505
-0.51086
-0.506067
-0.476912
-0.427549
-0.362598
-0.285353
-0.193302
-0.093912
-0.0290448
0.117111
0.314878
0.494746
0.644271
0.764117
0.838127
0.869511
0.877254
-0.494097
-0.494479
-0.491163
-0.493326
-0.486227
-0.472697
-0.431805
-0.367975
-0.293015
-0.207581
-0.11374
-0.0593605
0.0494972
0.211562
0.352927
0.465463
0.554436
0.610389
0.633873
0.63891
-0.493279
-0.490317
-0.484985
-0.480566
-0.475581
-0.47373
-0.43498
-0.372181
-0.299735
-0.222422
-0.134431
-0.0859162
-0.00965333
0.120544
0.230991
0.315502
0.380725
0.422452
0.438298
0.442613
-0.517977
-0.514681
-0.511769
-0.510217
-0.511519
-0.503249
-0.444183
-0.375822
-0.302954
-0.233273
-0.15224
-0.10723
-0.0567409
0.0464441
0.131648
0.194702
0.243023
0.273843
0.28565
0.289749
-0.569865
-0.571753
-0.577454
-0.58599
-0.580941
-0.54497
-0.459883
-0.379541
-0.301426
-0.237728
-0.165055
-0.122674
-0.0895352
-0.00858359
0.0556099
0.102146
0.139324
0.163006
0.172326
0.174743
-0.582416
-0.587525
-0.600848
-0.614217
-0.607289
-0.552973
-0.460036
-0.37354
-0.292513
-0.233822
-0.170962
-0.132051
-0.108213
-0.0451167
0.00207336
0.035812
0.063112
0.0795177
0.0865537
0.0883676
-0.494676
-0.500635
-0.519043
-0.529867
-0.527472
-0.484656
-0.414419
-0.342582
-0.272263
-0.218739
-0.168491
-0.135002
-0.114647
-0.0667917
-0.0330829
-0.00911139
0.0085965
0.0186327
0.0224028
0.0227716
-0.332899
-0.339345
-0.348026
-0.3562
-0.357352
-0.340806
-0.31071
-0.274195
-0.230281
-0.191158
-0.156406
-0.130838
-0.112127
-0.0781146
-0.0550694
-0.0397677
-0.0297442
-0.0248872
-0.0238479
-0.0245906
-0.16958
-0.172465
-0.177709
-0.186087
-0.19367
-0.19663
-0.195202
-0.188605
-0.172451
-0.154372
-0.135379
-0.119302
-0.104315
-0.0824751
-0.0681938
-0.05948
-0.0548712
-0.0537012
-0.0546469
-0.055916
-0.0455522
-0.0470736
-0.0507081
-0.0587467
-0.0713572
-0.0860157
-0.100381
-0.111799
-0.115136
-0.115018
-0.108495
-0.101264
-0.0931147
-0.0809791
-0.0735738
-0.0702287
-0.0695054
-0.0706254
-0.0724291
-0.0738408
0.0289319
0.0278578
0.0252458
0.0173198
0.00208565
-0.0178108
-0.0379673
-0.0561715
-0.068584
-0.079028
-0.0804366
-0.0798042
-0.0791645
-0.0735078
-0.0721259
-0.0730461
-0.0750132
-0.0775712
-0.0796308
-0.0809999
0.0632306
0.062561
0.0605724
0.0534978
0.038736
0.0183902
-0.00286604
-0.0226722
-0.0376708
-0.051259
-0.0562179
-0.0596782
-0.0636733
-0.0629565
-0.0662875
-0.0701272
-0.0737605
-0.0769197
-0.0789427
-0.0801838
0.0732935
0.0727775
0.0711917
0.0654559
0.0531437
0.0353605
0.0155907
-0.00386767
-0.0192853
-0.0330205
-0.0386564
-0.0438193
-0.0494907
-0.052996
-0.0585239
-0.0635715
-0.0678307
-0.0710703
-0.0729035
-0.0739708
0.07058
0.0702096
0.0689797
0.0646109
0.0551831
0.0411662
0.0245934
0.00693456
-0.00786781
-0.0214065
-0.0270448
-0.0323391
-0.0383944
-0.0438185
-0.0500415
-0.0552215
-0.0593269
-0.0622757
-0.0637731
-0.0646658
0.0622094
0.0619676
0.0610634
0.0578793
0.0509844
0.0405374
0.0277153
0.0130855
0.000156213
-0.0129544
-0.0190172
-0.0239401
-0.0294949
-0.0350793
-0.0411481
-0.0460111
-0.0497082
-0.052238
-0.0533492
-0.054076
0.0519772
0.0518423
0.0512016
0.0489745
0.0440891
0.0365172
0.0270115
0.0156772
0.00556604
-0.00624547
-0.0124987
-0.0171154
-0.0221156
-0.0270315
-0.0324131
-0.036699
-0.0399187
-0.042085
-0.0429305
-0.043521
0.0416557
0.0415914
0.0411456
0.0396579
0.036284
0.0309358
0.0240436
0.0154769
0.00813172
-0.00156587
-0.00700717
-0.0109717
-0.0154733
-0.0198316
-0.0245314
-0.0282002
-0.0309176
-0.0327125
-0.0333215
-0.0337925
0.0321291
0.0321016
0.0318048
0.0308469
0.0285734
0.0248918
0.0200012
0.0136381
0.00852805
0.00107865
-0.00295496
-0.00615037
-0.00988701
-0.0136087
-0.0176901
-0.020768
-0.0229994
-0.0244575
-0.0249395
-0.0253281
0.0235605
0.0235645
0.0233576
0.0227787
0.021301
0.018856
0.0155323
0.0108799
0.00754267
0.00202321
-0.000550762
-0.00282354
-0.00574578
-0.00878386
-0.0121364
-0.0145161
-0.0162343
-0.017355
-0.0176794
-0.0179944
0.0158736
0.0158772
0.0157481
0.0154405
0.0145366
0.0130075
0.0109427
0.00766964
0.00571829
0.00177498
0.0003742
-0.000970033
-0.00301668
-0.00521887
-0.00780306
-0.00953861
-0.0107049
-0.0113965
-0.0116012
-0.0118952
0.00893959
0.00893111
0.00889522
0.00882656
0.00841833
0.00763763
0.0066748
0.00457845
0.00376426
0.00103281
0.000376061
-0.000307651
-0.00152169
-0.00278323
-0.00464444
-0.00575436
-0.00644305
-0.0068419
-0.00684159
-0.00704956
0.00283645
0.00286214
0.00292953
0.00301578
0.00300549
0.00280753
0.00268783
0.00162419
0.00163865
0.000237936
0.00022652
0.000211301
-0.000603345
-0.000893214
-0.00218272
-0.00300728
-0.00375403
-0.00430822
-0.00409588
-0.00409293
-1.07664
-0.24125
0.0286263
0.30311
0.482187
0.635143
0.756884
0.881288
1.01987
1.10492
-0.101051
0.303395
0.31773
0.50458
0.625648
0.734249
0.827292
0.910521
0.937259
0.896011
0.271538
0.483644
0.516622
0.652067
0.735847
0.813891
0.878321
0.926776
0.928497
0.943037
0.498052
0.639102
0.673424
0.773384
0.829709
0.885938
0.930084
0.962071
0.97096
0.994802
0.67364
0.773511
0.803157
0.869257
0.913542
0.953628
0.985353
1.00947
1.01912
1.05083
0.815292
0.883204
0.913325
0.955454
0.991178
1.0209
1.04493
1.06565
1.07965
1.10804
0.9334
0.983464
1.00883
1.03645
1.0638
1.08738
1.10721
1.12644
1.14125
1.16783
1.03652
1.07327
1.09419
1.11466
1.13528
1.15455
1.17191
1.19001
1.20487
1.22855
1.13012
1.1591
1.17535
1.19053
1.20655
1.22256
1.23809
1.25499
1.26861
1.29093
1.21817
1.23857
1.25338
1.2665
1.28004
1.29379
1.30728
1.32187
1.33342
1.35305
1.30351
1.31927
1.33308
1.34488
1.35678
1.36842
1.37955
1.39122
1.3989
1.41569
1.3887
1.40124
1.41495
1.42669
1.43733
1.44712
1.45594
1.4642
1.46776
1.47899
1.47744
1.48827
1.50174
1.51126
1.51883
1.52612
1.5333
1.53977
1.54087
1.54822
1.57584
1.58046
1.58864
1.59338
1.59677
1.60125
1.60724
1.61489
1.6188
1.62868
1.68913
1.67602
1.66873
1.66302
1.66029
1.66163
1.66795
1.68031
1.69514
1.72481
1.8111
1.75505
1.72403
1.70684
1.69862
1.69855
1.70741
1.72703
1.75881
1.82809
)
;

boundaryField
{
    wall-4
    {
        type            zeroGradient;
    }
    pressure-outlet-7
    {
        type            fixedValue;
        value           uniform 0;
    }
    velocity-inlet-6
    {
        type            zeroGradient;
    }
    velocity-inlet-5
    {
        type            zeroGradient;
    }
    frontAndBackPlanes
    {
        type            empty;
    }
}


// ************************************************************************* //
