/*--------------------------------*- C++ -*----------------------------------*\
  =========                 |
  \\      /  F ield         | OpenFOAM: The Open Source CFD Toolbox
   \\    /   O peration     | Website:  https://openfoam.org
    \\  /    A nd           | Version:  10
     \\/     M anipulation  |
\*---------------------------------------------------------------------------*/
FoamFile
{
    format      ascii;
    class       surfaceScalarField;
    location    "67";
    object      phi;
}
// * * * * * * * * * * * * * * * * * * * * * * * * * * * * * * * * * * * * * //

dimensions      [0 3 -1 0 0 0 0];

internalField   nonuniform List<scalar> 
4262
(
0.107134
0.470854
0.0955704
0.70515
0.0693869
0.858486
0.0473763
1.02077
0.030998
1.21489
0.0197832
1.44943
0.0123673
1.73328
0.00716339
2.07624
0.00322037
2.48919
-0.00056842
2.98608
-0.00426874
2.98599
-0.00805763
2.48903
-0.01306
2.07604
-0.0201903
1.73299
-0.031112
1.44914
-0.047159
1.21456
-0.0689024
1.02051
-0.0951779
0.858579
-0.10706
0.705468
0.470929
0.112858
0.357997
0.13525
0.682757
0.120341
0.873396
0.0977812
1.04333
0.0745234
1.23815
0.0527936
1.47116
0.0343983
1.75167
0.0201704
2.09047
0.00886831
2.50049
-0.00103603
2.99599
-0.0111263
2.99608
-0.022371
2.50028
-0.0364819
2.09015
-0.0548065
1.75132
-0.0766556
1.47099
-0.100403
1.23831
-0.123573
1.04368
-0.137055
0.87206
-0.113579
0.681992
0.35735
0.0920409
0.265956
0.12496
0.649838
0.121078
0.877278
0.104783
1.05963
0.0861155
1.25682
0.0669674
1.49031
0.0479747
1.77067
0.0298835
2.10856
0.0132584
2.51711
-0.00282022
3.01206
-0.0185067
3.01177
-0.0343533
2.51612
-0.0518132
2.10761
-0.0702158
1.76972
-0.0885097
1.48928
-0.105685
1.25549
-0.119787
1.05778
-0.125223
0.877497
-0.0923557
0.649124
0.264994
0.0639745
0.201981
0.104782
0.60903
0.106547
0.875513
0.0951548
1.07102
0.0812062
1.27077
0.0664411
1.50508
0.0503132
1.7868
0.0331491
2.12572
0.015503
2.53476
-0.00310795
3.03067
-0.0215804
3.03024
-0.0390313
2.53357
-0.0555287
2.12411
-0.0707637
1.78496
-0.0845963
1.50312
-0.0983115
1.2692
-0.110059
1.06953
-0.107048
0.874485
-0.0649057
0.606982
0.200089
0.0374616
0.16452
0.080667
0.565825
0.0909098
0.86527
0.0836776
1.07825
0.0710474
1.2834
0.0591797
1.51695
0.0461142
1.79986
0.0310826
2.14076
0.0140142
2.55183
-0.0052342
3.04992
-0.0239819
3.04899
-0.0398248
2.54942
-0.0536472
2.13793
-0.0657176
1.79703
-0.0769402
1.51434
-0.0888674
1.28113
-0.0952051
1.07586
-0.0833428
0.862623
-0.0384511
0.562091
0.161637
0.019444
0.145076
0.0571452
0.528123
0.0725161
0.849899
0.0704068
1.08036
0.0616001
1.2922
0.0507184
1.52783
0.0395688
1.81101
0.0269736
2.15335
0.0119845
2.56682
-0.00568857
3.0676
-0.0230649
3.06637
-0.0374914
2.56384
-0.0490794
2.14952
-0.0590022
1.80695
-0.068819
1.52416
-0.0764345
1.28874
-0.0772396
1.07667
-0.0600818
0.845465
-0.0204059
0.522415
0.141232
0.0106034
0.134472
0.042282
0.496445
0.0583423
0.833839
0.058568
1.08014
0.0523667
1.29841
0.0429374
1.53726
0.0324713
1.82148
0.0209653
2.16486
0.00748423
2.5803
-0.00849898
3.08358
-0.0238336
3.0817
-0.0355472
2.57556
-0.0452037
2.15917
-0.0540918
1.81584
-0.0620167
1.53208
-0.0665486
1.29328
-0.0645286
1.07465
-0.0460384
0.826975
-0.011741
0.488117
0.129491
0.00654155
0.127931
0.0328522
0.470134
0.0490595
0.817632
0.0505218
1.07868
0.045389
1.30354
0.0369624
1.54568
0.0272913
1.83115
0.0165037
2.17564
0.00458861
2.59221
-0.00934545
3.09751
-0.022942
3.0953
-0.0339077
2.58652
-0.0431491
2.16841
-0.0507471
1.82344
-0.0572166
1.53855
-0.0603601
1.29642
-0.0566662
1.07096
-0.0374243
0.807733
-0.00793316
0.458626
0.121557
0.00468128
0.123249
0.0264469
0.448368
0.0421794
0.801899
0.0442338
1.07662
0.0395277
1.30825
0.0318004
1.55341
0.0225606
1.84039
0.0118007
2.1864
-0.000107279
2.60412
-0.0132402
3.11065
-0.0249916
3.10705
-0.0344554
2.59599
-0.0425867
2.17655
-0.0495041
1.83035
-0.0548918
1.54394
-0.0570667
1.29859
-0.0519341
1.06582
-0.0321451
0.787944
-0.00640439
0.432886
0.115153
0.00370687
0.119543
0.0215535
0.430522
0.0365859
0.786867
0.0392598
1.07395
0.034864
1.31264
0.0274752
1.5608
0.0186441
1.84922
0.00859604
2.19645
-0.0026204
2.61534
-0.0148664
3.12289
-0.0265666
3.11875
-0.0362051
2.60563
-0.0436565
2.184
-0.049455
1.83615
-0.0539998
1.54848
-0.0551278
1.29972
-0.0486426
1.05934
-0.028517
0.767818
-0.00583265
0.410201
0.10932
0.00300973
0.116533
0.0174095
0.416122
0.0312411
0.773035
0.0340924
1.0711
0.0298167
1.31692
0.0225414
1.56807
0.0138328
1.85793
0.00366172
2.20662
-0.00789682
2.6269
-0.0201994
3.1352
-0.0308364
3.12939
-0.0386886
2.61348
-0.04513
2.19044
-0.0503819
1.8414
-0.0541012
1.5522
-0.0541104
1.29973
-0.0461586
1.05139
-0.0258547
0.747514
-0.00558931
0.389936
0.103731
0.00232571
0.114207
0.0136646
0.404783
0.0261164
0.760583
0.0291408
1.06807
0.0251102
1.32095
0.0180254
1.57516
0.00952751
1.86643
-0.000142741
2.21629
-0.0109804
2.63773
-0.0229252
3.14714
-0.0337464
3.14021
-0.0420507
2.62178
-0.0478212
2.19621
-0.0519717
1.84555
-0.054572
1.5548
-0.0538578
1.29902
-0.044471
1.042
-0.0239943
0.727038
-0.00546675
0.371408
0.0982643
0.00164016
0.112567
0.0103503
0.396073
0.0209977
0.749936
0.0234448
1.06562
0.0191383
1.32525
0.0118407
1.58246
0.00302338
1.87524
-0.00710041
2.22642
-0.0183169
2.64895
-0.0300782
3.1589
-0.0396859
3.14981
-0.0460366
2.62813
-0.0507437
2.20092
-0.0544197
1.84923
-0.0561602
1.55654
-0.0544468
1.2973
-0.0436949
1.03125
-0.0228587
0.706201
-0.0054276
0.353977
0.0928367
0.00077713
0.11179
0.00691091
0.389939
0.015892
0.740955
0.0179772
1.06354
0.0135148
1.32972
0.00611012
1.58986
-0.00266783
1.88402
-0.0123994
2.23615
-0.023155
2.65971
-0.0350213
3.17077
-0.0449799
3.15977
-0.0514712
2.63462
-0.0552748
2.20472
-0.0578306
1.85179
-0.0584777
1.55719
-0.0557068
1.29453
-0.0435091
1.01905
-0.0222058
0.684898
-0.00541282
0.337184
0.0874239
0.000120184
0.11167
0.00406623
0.385993
0.0107308
0.73429
0.0116841
1.06259
0.00665972
1.33474
-0.00129139
1.59781
-0.01096
1.89369
-0.0219384
2.24713
-0.0337507
2.67152
-0.0448939
3.18191
-0.0530408
3.16792
-0.0578482
2.63943
-0.0608921
2.20776
-0.0628194
1.85371
-0.0625105
1.55688
-0.0581221
1.29014
-0.0441929
1.00512
-0.0221048
0.66281
-0.00549367
0.320573
0.0819302
-0.000888693
0.112558
0.000322986
0.384782
0.00480088
0.729812
0.0047101
1.06268
-0.00100894
1.34046
-0.00971092
1.60651
-0.0197333
1.90371
-0.0303362
2.25773
-0.0412057
2.68239
-0.0524053
3.19311
-0.0612834
3.1768
-0.065914
2.64406
-0.0677739
2.20962
-0.0686128
1.85455
-0.0674134
1.55568
-0.0613681
1.2841
-0.0455775
0.989329
-0.0224555
0.639688
-0.00564569
0.303763
0.0762845
-0.00179871
0.114357
-0.0028654
0.385848
-0.00123266
0.72818
-0.00296015
1.0644
-0.009613
1.34711
-0.0190257
1.61593
-0.0300191
1.9147
-0.0423584
2.27007
-0.0554327
2.69546
-0.0669123
3.20459
-0.0733116
3.1832
-0.0763125
2.64706
-0.0777754
2.21109
-0.077396
1.85417
-0.0744136
1.5527
-0.0663639
1.27605
-0.0481496
0.971115
-0.0234628
0.615001
-0.00596227
0.286263
0.0703223
-0.00312164
0.117479
-0.00656027
0.389287
-0.00846974
0.730089
-0.0121174
1.06805
-0.0200054
1.355
-0.0308348
1.62676
-0.0430451
1.92692
-0.0556416
2.28267
-0.0675336
2.70735
-0.0778236
3.21488
-0.0851213
3.19049
-0.0881329
2.65007
-0.0875777
2.21053
-0.0862779
1.85287
-0.0825557
1.54898
-0.0722849
1.26578
-0.0514099
0.95024
-0.024843
0.588434
-0.00632523
0.267745
0.063997
-0.00445406
0.121933
-0.0108239
0.395657
-0.0160436
0.735309
-0.0224926
1.0745
-0.0317225
1.36423
-0.0437161
1.63875
-0.0570307
1.94023
-0.0713911
2.29703
-0.0860342
2.722
-0.0987354
3.22758
-0.104046
3.19581
-0.104482
2.65051
-0.103387
2.20944
-0.0998947
1.84938
-0.0935794
1.54266
-0.0805799
1.25278
-0.0562408
0.925901
-0.0269233
0.559117
-0.00684751
0.247669
0.0571495
-0.00585896
0.127792
-0.0157955
0.405593
-0.0251367
0.74465
-0.0344798
1.08384
-0.0458779
1.37563
-0.0600643
1.65294
-0.0755767
1.95574
-0.091431
2.31288
-0.105798
2.73636
-0.115784
3.23757
-0.120281
3.2003
-0.12072
2.65095
-0.117793
2.20651
-0.113646
1.84523
-0.106192
1.53521
-0.0897522
1.23634
-0.061483
0.897632
-0.0291537
0.526787
-0.00733506
0.225851
0.0498144
-0.00824177
0.136034
-0.0228443
0.420196
-0.0377308
0.759536
-0.0505114
1.09662
-0.0636687
1.38879
-0.0795805
1.66885
-0.0967756
1.97294
-0.114306
2.33041
-0.130408
2.75247
-0.143126
3.25029
-0.147594
3.20477
-0.145079
2.64844
-0.140406
2.20184
-0.133185
1.83801
-0.122019
1.52404
-0.10167
1.21599
-0.0684396
0.864402
-0.0318926
0.49024
-0.00787802
0.201836
0.0419364
-0.0106235
0.146657
-0.0297515
0.439324
-0.050297
0.780082
-0.0682024
1.11453
-0.0852751
1.40586
-0.10445
1.68802
-0.124691
1.99318
-0.144524
2.35024
-0.161295
2.76924
-0.171019
3.26001
-0.171367
3.20512
-0.16775
2.64482
-0.161513
2.1956
-0.153231
1.82973
-0.140049
1.51086
-0.114602
1.19054
-0.0753545
0.825154
-0.0344035
0.449289
-0.00828039
0.175713
0.033656
-0.0153838
0.162041
-0.0423157
0.466256
-0.0699985
0.807765
-0.0926779
1.13721
-0.113189
1.42637
-0.13609
1.71092
-0.158933
2.01602
-0.179851
2.37116
-0.19594
2.78533
-0.204947
3.26902
-0.205585
3.20576
-0.199582
2.63882
-0.190583
2.1866
-0.179142
1.81829
-0.160902
1.49262
-0.129656
1.1593
-0.0835118
0.779009
-0.0369208
0.402698
-0.00857074
0.147363
0.0250853
-0.0195945
0.181635
-0.0553909
0.502052
-0.0929584
0.845332
-0.123725
1.16798
-0.150437
1.45308
-0.177616
1.7381
-0.203013
2.04142
-0.22481
2.39296
-0.240668
2.80118
-0.247291
3.27564
-0.242191
3.20065
-0.231562
2.62819
-0.21963
2.17467
-0.205547
1.80421
-0.184022
1.4711
-0.145147
1.12042
-0.0901873
0.72405
-0.0382762
0.350787
-0.00838639
0.117473
0.0166989
-0.0327929
0.214428
-0.0820423
0.551302
-0.129981
0.893271
-0.167182
1.20518
-0.199236
1.48514
-0.230796
1.76966
-0.257345
2.06797
-0.278134
2.41375
-0.290373
2.81342
-0.290944
3.27621
-0.281794
3.1915
-0.269569
2.61596
-0.256121
2.16122
-0.238669
1.78675
-0.209396
1.44182
-0.161469
1.07249
-0.0974616
0.660042
-0.0394718
0.292797
-0.0081164
0.0861176
0.00858252
-0.0471966
0.261625
-0.121209
0.625314
-0.185212
0.957274
-0.231009
1.25097
-0.269183
1.52331
-0.301419
1.8019
-0.325678
2.09222
-0.342554
2.43062
-0.350061
2.82093
-0.34613
3.27228
-0.332209
3.17758
-0.313791
2.59754
-0.293749
2.14118
-0.270411
1.76342
-0.234817
1.40623
-0.175474
1.01315
-0.0994837
0.584052
-0.0378741
0.231188
-0.00780883
0.0560524
0.00077368
-0.0342845
0.295909
-0.0983283
0.689358
-0.157172
1.01612
-0.205459
1.29926
-0.249537
1.56739
-0.289137
1.8415
-0.326428
2.12952
-0.36054
2.46474
-0.387642
2.84803
-0.403753
3.28839
-0.403878
3.17771
-0.395892
2.58956
-0.383194
2.12848
-0.357582
1.7378
-0.303237
1.35188
-0.214893
0.924807
-0.112898
0.482057
-0.0416807
0.15997
-0.00913446
0.0235062
-0.00836078
-0.0124738
0.308383
-0.0475938
0.724478
-0.0900502
1.05857
-0.130137
1.33935
-0.169962
1.60721
-0.205859
1.8774
-0.239636
2.16329
-0.269386
2.49449
-0.29144
2.87009
-0.300314
3.29727
-0.295682
3.17308
-0.282994
2.57687
-0.261285
2.10677
-0.229008
1.70553
-0.182188
1.30506
-0.117355
0.859974
-0.0538308
0.418533
-0.0202433
0.126383
-0.00479111
0.00805396
-0.0131519
-0.000142769
0.308526
-0.0245169
0.748852
-0.0542524
1.08831
-0.0851568
1.37025
-0.11764
1.6397
-0.149049
1.90881
-0.178399
2.19264
-0.203179
2.51927
-0.219778
2.88668
-0.224768
3.30226
-0.217105
3.16541
-0.19786
2.55762
-0.173891
2.0828
-0.144915
1.67655
-0.103454
1.2636
-0.0548594
0.81138
-0.0207307
0.384404
-0.00862379
0.114276
-0.00265155
0.00208175
-0.0158034
0.000915005
0.307611
-0.013268
0.763035
-0.0344705
1.10951
-0.0588179
1.3946
-0.084958
1.66584
-0.111664
1.93551
-0.136694
2.21767
-0.157527
2.5401
-0.170907
2.90006
-0.171829
3.30318
-0.156927
3.15051
-0.135632
2.53633
-0.110218
2.05739
-0.0769942
1.64333
-0.0431823
1.22979
-0.0151008
0.783298
-0.00155531
0.370859
-0.000631008
0.113352
-0.000878619
0.00232934
-0.0166821
0.00482467
0.302786
-0.00354755
0.771407
-0.0220043
1.12797
-0.0435799
1.41617
-0.0659778
1.68823
-0.0880179
1.95755
-0.108913
2.23857
-0.126284
2.55747
-0.136295
2.91007
-0.134378
3.30126
-0.119141
3.13528
-0.0950027
2.51219
-0.0667663
2.02915
-0.0406528
1.61721
-0.0114406
1.20058
0.0106631
0.761195
0.0129083
0.368614
0.00637238
0.119888
0.00137637
0.00732537
-0.0153057
0.00520615
0.29758
-0.000723439
0.777337
-0.016185
1.14343
-0.0340087
1.434
-0.0530709
1.7073
-0.0726402
1.97712
-0.0912698
2.2572
-0.106389
2.57259
-0.114522
2.91821
-0.110985
3.29772
-0.0930915
3.11738
-0.0689662
2.48807
-0.044147
2.00433
-0.0148592
1.58793
0.00811698
1.1776
0.0195096
0.749802
0.0183528
0.369771
0.00953893
0.128701
0.00238052
0.0144838
-0.0129252
0.00492521
0.292655
0.00132652
0.780935
-0.011848
1.15661
-0.028841
1.45099
-0.0465573
1.72501
-0.063867
1.99443
-0.0799899
2.27332
-0.0930252
2.58563
-0.0998256
2.92501
-0.0957368
3.29363
-0.0786049
3.10025
-0.0549566
2.46442
-0.0278097
1.97719
-0.00580384
1.56592
0.0138119
1.15799
0.0248988
0.738715
0.0205227
0.374147
0.0108205
0.138404
0.00291601
0.0223883
-0.0100092
0.00273358
0.289921
-0.00055641
0.784225
-0.0117731
1.16782
-0.0260508
1.46527
-0.0417669
1.74073
-0.0578701
2.01053
-0.0732485
2.2887
-0.085969
2.59835
-0.0929103
2.93195
-0.0889985
3.28972
-0.0717623
3.08301
-0.0504848
2.44314
-0.0280871
1.95479
-0.0018941
1.53973
0.0165422
1.13955
0.0231575
0.7321
0.0197946
0.37751
0.0106603
0.147538
0.00301053
0.0300381
-0.00699864
0.00163153
0.28829
-0.000779548
0.786636
-0.01144
1.17848
-0.0251314
1.47896
-0.040358
1.75595
-0.0554496
2.02563
-0.0698388
2.30309
-0.0820499
2.61056
-0.0889586
2.93886
-0.0855825
3.28635
-0.0703122
3.06774
-0.0491606
2.42199
-0.0251986
1.93083
-0.00632425
1.52085
0.0107558
1.12247
0.0203422
0.722513
0.0168963
0.380955
0.00936827
0.155066
0.00272887
0.0366775
-0.00426976
-0.000488246
0.288778
-0.00456153
0.79071
-0.0135677
1.18749
-0.0253672
1.49076
-0.0391817
1.76977
-0.0537198
2.04016
-0.068158
2.31753
-0.0807232
2.62312
-0.0882392
2.94637
-0.0860042
3.28411
-0.072335
3.05407
-0.0534056
2.40306
-0.0337977
1.91122
-0.0105088
1.49756
0.00643414
1.10553
0.0130847
0.715863
0.0126385
0.381402
0.0071682
0.160536
0.00222469
0.041621
-0.00204507
-0.00103031
0.289808
-0.00527967
0.794959
-0.0143174
1.19653
-0.0260709
1.50251
-0.0397206
1.78342
-0.0537883
2.05423
-0.0677404
2.33148
-0.0802933
2.63567
-0.0888752
2.95496
-0.0889156
3.28415
-0.0771292
3.04229
-0.0575646
2.38349
-0.0354199
1.88908
-0.0186676
1.48081
-0.00299285
1.08985
0.00750611
0.705364
0.00785341
0.381054
0.00498177
0.163408
0.00168146
0.0449213
-0.000363608
-0.0026566
0.292465
-0.0080691
0.800372
-0.016561
1.20502
-0.0272384
1.51319
-0.0398291
1.79601
-0.0534289
2.06783
-0.0676005
2.34565
-0.0810319
2.64911
-0.0909565
2.96488
-0.0925098
3.28571
-0.0820409
3.03182
-0.0654876
2.36694
-0.0474411
1.87103
-0.025243
1.45861
-0.00886137
1.07347
-0.000585438
0.697088
0.00342668
0.377042
0.00270461
0.16413
0.00110966
0.0465162
0.000746054
-0.00359653
0.296061
-0.00857208
0.805347
-0.0171373
1.21358
-0.027966
1.52402
-0.0405322
1.80858
-0.0539051
2.0812
-0.0679638
2.35971
-0.081691
2.66283
-0.092842
2.97603
-0.0973189
3.29018
-0.0899668
3.02447
-0.0732082
2.35018
-0.0505824
1.8484
-0.033448
1.44148
-0.0171723
1.0572
-0.00455581
0.684471
-0.00054617
0.373033
0.000910391
0.162673
0.000594085
0.0468325
0.00134014
-0.00415737
0.300219
-0.010401
0.811591
-0.0187954
1.22198
-0.0288639
1.53409
-0.0406801
1.82039
-0.0537164
2.09424
-0.0680073
2.374
-0.0826056
2.67743
-0.0953549
2.98878
-0.102055
3.29688
-0.0967337
3.01915
-0.0817935
2.33524
-0.0633243
1.82993
-0.0390365
1.41719
-0.0204693
1.03863
-0.00946737
0.67347
-0.00288606
0.366451
-0.000392087
0.160179
0.00023575
0.0462047
0.00157589
-0.00412049
0.304339
-0.0102974
0.817768
-0.0188033
1.23048
-0.029017
1.5443
-0.0408899
1.83226
-0.0538459
2.1072
-0.0681472
2.3883
-0.0830579
2.69234
-0.0969865
3.00271
-0.106556
3.30645
-0.104958
3.01755
-0.090685
2.32097
-0.0667524
1.806
-0.0452976
1.39574
-0.024732
1.01806
-0.00906057
0.657798
-0.00297723
0.360368
-0.000610831
0.157813
-0.000407792
0.0460017
0.00116809
-0.00430244
0.308642
-0.0113277
0.824793
-0.0196956
1.23885
-0.0293389
1.55395
-0.0406506
1.84358
-0.0533236
2.11987
-0.0677287
2.40271
-0.0833199
2.70793
-0.0987602
3.01815
-0.110729
3.31842
-0.111185
3.018
-0.0990424
2.30883
-0.0795366
1.7865
-0.0494742
1.36567
-0.0237737
0.992363
-0.00758312
0.641608
0.00205628
0.350729
0.00389641
0.155973
0.00214678
0.0477513
0.00331488
-0.00422519
0.312867
-0.0108989
0.831467
-0.0191787
1.24713
-0.0288975
1.56366
-0.040211
1.85489
-0.0527951
2.13245
-0.0671939
2.4171
-0.0830522
2.72379
-0.0994895
3.03459
-0.113814
3.33275
-0.118618
3.02281
-0.108439
2.29865
-0.0834672
1.76152
-0.0549944
1.3372
-0.0232642
0.960633
0.000762918
0.61758
0.0111382
0.340353
0.00726866
0.159842
-0.00129629
0.0563162
0.00201858
-0.00436657
0.317233
-0.011465
0.838565
-0.0195095
1.25518
-0.028694
1.57285
-0.0394748
1.86567
-0.0517496
2.14473
-0.0661195
2.43147
-0.0824519
2.74012
-0.100063
3.0522
-0.11645
3.34913
-0.123748
3.03011
-0.116245
2.29114
-0.0971599
1.74244
-0.0602855
1.30033
-0.0187491
0.919096
0.0157399
0.583091
0.0402992
0.315794
0.0464774
0.153664
0.0286597
0.0741339
0.0306783
-0.00422143
0.321455
-0.0108382
0.845182
-0.0186661
1.263
-0.0277974
1.58198
-0.0384589
1.87633
-0.0505756
2.15685
-0.0648772
2.44578
-0.0813606
2.75661
-0.0996564
3.07049
-0.117991
3.36747
-0.12927
3.04139
-0.125912
2.28779
-0.102891
1.71942
-0.0681931
1.26563
-0.0189561
0.869859
0.0287619
0.535373
0.0643155
0.28024
0.0542777
0.163702
0.0236286
0.104783
0.0543068
-0.00418112
0.325636
-0.0110507
0.852051
-0.0186092
1.27056
-0.0271862
1.59056
-0.0373463
1.88649
-0.0491259
2.16862
-0.0632844
2.45993
-0.0800033
2.77333
-0.0991043
3.08959
-0.11911
3.38747
-0.131939
3.05421
-0.132351
2.2882
-0.118507
1.70557
-0.0793002
1.22642
-0.0237016
0.814261
0.0475121
0.46416
0.143002
0.18475
0.206385
0.100319
0.186097
0.125071
0.240404
-0.00401756
0.329654
-0.0104727
0.858507
-0.0179819
1.27807
-0.0267702
1.59934
-0.0372836
1.89701
-0.0495858
2.18093
-0.0646728
2.47502
-0.0828987
2.79155
-0.104492
3.11119
-0.128805
3.41179
-0.148365
3.07377
-0.155341
2.29517
-0.139313
1.68955
-0.103658
1.19077
-0.0378472
0.74845
0.0213356
0.404977
-0.0457793
0.251865
-0.35314
0.40768
-0.945387
0.717318
0.902219
-1.6072
-0.00391703
0.333571
-0.0105848
0.865174
-0.0179352
1.28542
-0.0263944
1.6078
-0.0366701
1.90728
-0.0490368
2.19329
-0.0645384
2.49052
-0.0837857
2.8108
-0.107403
3.1348
-0.135258
3.43964
-0.158942
3.09746
-0.17036
2.30659
-0.172827
1.69201
-0.143507
1.16145
-0.106724
0.711667
-0.208626
0.506879
-0.693948
0.737187
-1.45407
1.1678
-2.05875
1.322
1.21564
-2.37217
-0.00367837
0.337249
-0.00979789
0.871294
-0.0169139
1.29254
-0.0253819
1.61627
-0.0357067
1.91761
-0.0482353
2.20582
-0.0641857
2.50647
-0.0843254
2.83094
-0.109717
3.1602
-0.141293
3.47122
-0.172442
3.12861
-0.193938
2.32809
-0.196426
1.6945
-0.175549
1.14057
-0.260977
0.797095
-0.752787
0.998689
-1.55897
1.54337
-2.11674
1.72558
-2.35414
1.5594
1.32916
-2.46767
-0.00357359
0.340823
-0.00969598
0.877416
-0.0165856
1.29943
-0.0246899
1.62438
-0.0347332
1.92765
-0.0472711
2.21836
-0.0635233
2.52273
-0.0845403
2.85196
-0.111877
3.18753
-0.14724
3.50658
-0.183654
3.16502
-0.211459
2.35589
-0.233375
1.71642
-0.305695
1.21289
-0.674428
1.16583
-1.44617
1.77043
-2.03173
2.12893
-2.27016
1.964
-2.3826
1.67184
1.39255
-2.44599
-0.00325626
0.344079
-0.00874993
0.88291
-0.0153002
1.30598
-0.0233209
1.6324
-0.0333881
1.93772
-0.0459996
2.23097
-0.0625754
2.5393
-0.08436
2.87374
-0.113363
3.21654
-0.152519
3.54574
-0.197329
3.20983
-0.239094
2.39766
-0.275107
1.75243
-0.456731
1.39451
-1.097
1.8061
-1.79401
2.46744
-2.1105
2.44543
-2.25757
2.11106
-2.33932
1.7536
1.45865
-2.40542
-0.00326338
0.347342
-0.0089799
0.888626
-0.0155561
1.31255
-0.0234707
1.64031
-0.0336403
1.94789
-0.046537
2.24387
-0.0636194
2.55638
-0.086394
2.89652
-0.117365
3.24751
-0.16035
3.58872
-0.211074
3.26056
-0.255009
2.44159
-0.340511
1.83793
-0.738469
1.79247
-1.49355
2.56118
-1.96315
2.93704
-2.16276
2.64503
-2.26861
2.21692
-2.34584
1.83082
1.52181
-2.409
-0.0033213
0.350663
-0.00894032
0.894245
-0.0158205
1.31943
-0.0243481
1.64884
-0.0351816
1.95872
-0.0487775
2.25746
-0.0667933
2.5744
-0.0908715
2.92059
-0.123877
3.28051
-0.170953
3.6358
-0.22778
3.31738
-0.288965
2.50278
-0.475004
2.02397
-1.04534
2.36281
-1.68035
3.19618
-1.95254
3.20923
-2.09885
2.79135
-2.21266
2.33073
-2.30634
1.92449
1.58335
-2.36788
-0.00346376
0.354127
-0.00984896
0.900631
-0.0172214
1.32681
-0.0260131
1.65763
-0.0371931
1.9699
-0.0514194
2.27169
-0.0702989
2.59328
-0.0956933
2.94599
-0.130871
3.31569
-0.181825
3.68675
-0.243802
3.37936
-0.327557
2.58653
-0.610194
2.30661
-1.2636
3.01622
-1.75056
3.68314
-1.95761
3.41628
-2.09683
2.93057
-2.22071
2.45461
-2.33085
2.03464
1.642
-2.3895
-0.00339738
0.357525
-0.00953876
0.906772
-0.0172814
1.33455
-0.0268807
1.66723
-0.0388612
1.98188
-0.0538475
2.28668
-0.073734
2.61317
-0.10052
2.97277
-0.137732
3.3529
-0.192232
3.74125
-0.26007
3.4472
-0.384361
2.71082
-0.772194
2.69444
-1.40986
3.65389
-1.76008
4.03336
-1.93254
3.58874
-2.03409
3.03213
-2.12269
2.54321
-2.18936
2.1013
1.63461
-2.18197
-0.00342413
0.360949
-0.0105305
0.913878
-0.0188855
1.3429
-0.0287222
1.67707
-0.0410657
1.99422
-0.0567455
2.30236
-0.0775349
2.63396
-0.105634
3.00087
-0.144932
3.3922
-0.201701
3.79802
-0.279371
3.52487
-0.448651
2.8801
-0.903382
3.14917
-1.46021
4.21072
-1.72087
4.29402
-1.87208
3.73995
-1.96561
3.12566
-1.96635
2.54394
-1.89645
2.0314
1.59709
-1.85893
-0.00319866
0.364147
-0.00974931
0.920429
-0.0183812
1.35154
-0.0291026
1.68779
-0.0422381
2.00736
-0.0584546
2.31857
-0.0797944
2.6553
-0.108466
3.02954
-0.148294
3.43203
-0.205058
3.85478
-0.290832
3.61064
-0.495181
3.08445
-0.986937
3.64093
-1.42705
4.65083
-1.59131
4.45828
-1.65792
3.80656
-1.66224
3.12998
-1.51461
2.39631
-1.01523
1.53202
0.581858
-0.00281253
0.36696
-0.0106428
0.928259
-0.0200388
1.36093
-0.0310272
1.69878
-0.0447988
2.02113
-0.0623028
2.33608
-0.085465
2.67846
-0.116773
3.06085
-0.160645
3.4759
-0.223988
3.91813
-0.326442
3.7131
-0.580544
3.33855
-1.12155
4.18194
-1.47866
5.00793
-1.5777
4.55732
-1.57573
3.8046
-1.47218
3.02642
-1.23341
2.15755
-0.630326
0.928933
-0.0484682
-0.0025213
0.369481
-0.00902612
0.934764
-0.0185268
1.37043
-0.030805
1.71105
-0.0459964
2.03632
-0.0648805
2.35496
-0.0900047
2.70358
-0.12418
3.09503
-0.172472
3.52419
-0.242504
3.98816
-0.365595
3.83619
-0.679979
3.65294
-1.24007
4.74202
-1.49936
5.26722
-1.55803
4.616
-1.53547
3.78204
-1.33365
2.8246
-0.781058
1.60496
-0.10839
0.256265
-0.156859
-0.00153234
0.371014
-0.00954441
0.942776
-0.0198579
1.38075
-0.0321844
1.72338
-0.0477806
2.05192
-0.0679211
2.3751
-0.094923
2.73058
-0.131814
3.13192
-0.18383
3.57621
-0.261345
4.06567
-0.409796
3.98464
-0.782234
4.02537
-1.31737
5.27716
-1.49322
5.44307
-1.52405
4.64683
-1.43589
3.69387
-1.09962
2.48832
-0.312445
0.817788
0.0247772
-0.0809564
-0.132081
-0.000995236
0.372009
-0.00647738
0.948258
-0.0163895
1.39066
-0.0301343
1.73713
-0.0472336
2.06902
-0.068681
2.39655
-0.0975468
2.75945
-0.137135
3.17151
-0.192461
3.63153
-0.279143
4.15236
-0.454622
4.16012
-0.892346
4.4631
-1.3627
5.74751
-1.47823
5.5586
-1.48091
4.6495
-1.25687
3.46984
-0.68519
1.91664
-0.0629349
0.195533
0.0300558
-0.173947
-0.102026
9.03411e-05
0.371918
-0.00608131
0.95443
-0.0165908
1.40117
-0.0300671
1.7506
-0.0470011
2.08595
-0.0695719
2.41912
-0.100153
2.79003
-0.141916
3.21327
-0.200116
3.68973
-0.295299
4.24754
-0.496203
4.36102
-0.984132
4.95103
-1.35728
6.12066
-1.42202
5.62335
-1.37569
4.60317
-1.08774
3.18189
-0.322598
1.1515
0.00418074
-0.131245
0.0145392
-0.184305
-0.0874864
0.00322689
0.368692
0.00068901
0.956968
-0.00968536
1.41154
-0.0246834
1.7656
-0.0429576
2.10423
-0.0666997
2.44286
-0.098638
2.82197
-0.142436
3.25707
-0.203911
3.75121
-0.308025
4.35165
-0.535673
4.58867
-1.04718
5.46253
-1.32211
6.39559
-1.36173
5.66297
-1.22243
4.46387
-0.77018
2.72964
-0.0688947
0.450214
0.0439876
-0.244128
0.0239502
-0.164268
-0.0635362
0.0042638
0.364428
0.00215463
0.959077
-0.00783602
1.42153
-0.0214355
1.7792
-0.0386132
2.1214
-0.0631092
2.46736
-0.096209
2.85507
-0.141431
3.30229
-0.204941
3.81472
-0.316096
4.46281
-0.573153
4.84573
-1.06799
5.95737
-1.25758
6.58518
-1.26748
5.67287
-1.04811
4.2445
-0.459612
2.14114
-0.0183579
0.00895969
-0.00667827
-0.255807
0.00472873
-0.175675
-0.0588075
0.00870622
0.355722
0.0104341
0.957349
0.00385248
1.42812
-0.00992308
1.79298
-0.0287638
2.14024
-0.0537979
2.49239
-0.0871547
2.88843
-0.132953
3.34809
-0.198736
3.8805
-0.31716
4.58123
-0.596353
5.12492
-1.04618
6.4072
-1.17032
6.70932
-1.15334
5.65588
-0.894034
3.9852
-0.263682
1.51079
-0.0698508
-0.184871
-0.0387233
-0.286935
-0.0143604
-0.200038
-0.0731679
0.0112367
0.344485
0.0156311
0.952955
0.0104658
1.43328
0.000467082
1.80297
-0.0175822
2.15829
-0.0418189
2.51663
-0.0750551
2.92166
-0.120834
3.39387
-0.186509
3.94618
-0.307693
4.70241
-0.593903
5.41113
-0.98146
6.79476
-1.04495
6.77281
-0.977437
5.58837
-0.675765
3.68353
-0.069996
0.905017
0.015608
-0.270476
0.000623186
-0.27195
-0.00151669
-0.197898
-0.0746846
0.0185232
0.325962
0.0305462
0.940932
0.0300213
1.43381
0.0190858
1.81391
0.00127822
2.1761
-0.0213023
2.53921
-0.0531273
2.95349
-0.097464
3.4382
-0.162304
4.01102
-0.284465
4.82457
-0.564403
5.69107
-0.870466
7.10082
-0.906218
6.80856
-0.801501
5.48365
-0.442326
3.32435
0.0688311
0.39386
0.0793694
-0.281014
0.0589664
-0.251547
0.0221847
-0.161116
-0.0524998
0.0241767
0.301785
0.0420481
0.92306
0.0449009
1.43095
0.0385063
1.8203
0.0266031
2.188
0.00533411
2.56048
-0.0244403
2.98326
-0.0660093
3.47977
-0.127085
4.07209
-0.241893
4.93938
-0.490305
5.93948
-0.712119
7.32264
-0.736498
6.83294
-0.636871
5.38402
-0.30215
2.98963
0.00452124
0.0871888
0.0210777
-0.29757
0.0321303
-0.262599
0.0154237
-0.14441
-0.0370761
0.0352171
0.266568
0.0658068
0.892471
0.0777298
1.41903
0.0746133
1.82342
0.0635448
2.19907
0.044477
2.57955
0.0177482
3.00999
-0.0203717
3.51789
-0.0758127
4.12753
-0.176582
5.04015
-0.379559
6.14246
-0.533101
7.47618
-0.559671
6.85951
-0.461134
5.28548
-0.189232
2.71773
-0.0751286
-0.0269146
-0.0530603
-0.319639
-0.0184583
-0.297202
-0.000639422
-0.162229
-0.0377155
0.044649
0.221919
0.0870322
0.850087
0.106947
1.39911
0.111892
1.81848
0.108433
2.20253
0.094765
2.59321
0.0737014
3.03105
0.0420846
3.54951
-0.00833974
4.17796
-0.0825604
5.11437
-0.220919
6.28082
-0.310735
7.566
-0.318909
6.86768
-0.259536
5.22611
-0.0856131
2.54381
-0.10179
-0.0107381
-0.0735352
-0.347893
-0.0365334
-0.334203
-0.00777537
-0.190987
-0.0454909
0.0581727
0.163746
0.121283
0.786977
0.159171
1.36123
0.172041
1.80561
0.171785
2.20279
0.16172
2.60328
0.146879
3.04589
0.123844
3.57255
0.0881699
4.21363
0.0386282
5.16391
-0.0170382
6.33648
-0.0487396
7.5977
-0.0488703
6.86781
-0.007152
5.18439
0.0563793
2.48028
-0.0742939
0.119935
-0.0876224
-0.334564
-0.0525876
-0.369238
-0.00228767
-0.241287
-0.0477786
0.0600863
0.10366
0.15095
0.696114
0.207486
1.30469
0.235142
1.77795
0.247661
2.19027
0.247266
2.60367
0.240816
3.05234
0.229343
3.58402
0.211195
4.23178
0.19042
5.18469
0.234014
6.29289
0.278544
7.55317
0.303932
6.84243
0.228711
5.25962
0.0100581
2.69893
-0.224193
0.354186
-0.279137
-0.27962
-0.206655
-0.441719
-0.0758465
-0.372096
-0.123625
0.0496167
0.0540431
0.184594
0.561137
0.281971
1.20731
0.328756
1.73116
0.348613
2.17041
0.356664
2.59562
0.355864
3.05314
0.356296
3.58359
0.357468
4.23061
0.370655
5.1715
0.519716
6.14383
0.657679
7.4152
0.644052
6.85605
0.427359
5.47631
-0.0778911
3.20418
-0.53613
0.812424
-0.597113
-0.218637
-0.464876
-0.573956
-0.229435
-0.607536
-0.35306
0.0343521
0.019691
0.219142
0.376347
0.346835
1.07962
0.425716
1.65228
0.468232
2.1279
0.490968
2.57289
0.500111
3.044
0.515422
3.56828
0.540561
4.20547
0.592258
5.1198
0.818907
5.91718
1.16309
7.07102
1.32547
6.69368
1.3684
5.43337
0.913793
3.65879
0.153074
1.57314
-0.329554
0.263991
-0.486058
-0.417452
-0.277885
-0.81571
-0.630945
0.0305764
-0.0108854
0.235179
0.171744
0.450476
0.864323
0.567666
1.53509
0.621151
2.07441
0.65441
2.53963
0.673708
3.0247
0.696527
3.54546
0.744464
4.15753
0.85197
5.0123
1.19833
5.57082
1.79635
6.473
2.15428
6.33574
2.41301
5.17464
2.3101
3.76171
1.58689
2.29635
0.865583
0.985299
0.332254
0.115878
0.0481223
-0.531578
-0.582823
0.0236176
-0.034503
0.157396
0.0379661
0.494452
0.527267
0.694117
1.33543
0.796846
1.97168
0.849037
2.48744
0.887035
2.98671
0.914318
3.51817
0.981113
4.09074
1.11264
4.88077
1.50024
5.18322
2.27488
5.69836
2.66265
5.94797
2.84375
4.99355
2.68773
3.91772
2.18563
2.79845
1.55035
1.62058
1.0078
0.658434
0.399112
0.0771083
-0.183711
0.00188485
-0.0363878
0.0771799
-0.037329
0.410573
0.193874
0.717937
1.02806
0.862556
1.82706
0.900352
2.44964
0.906493
2.98056
0.890428
3.53424
0.89011
4.09106
0.930116
4.84076
1.09096
5.02238
1.53594
5.25338
1.71022
5.77369
1.74831
4.95547
1.65726
4.00877
1.41228
3.04343
1.0125
2.02035
0.586265
1.08467
0.246458
0.416916
0.0627468
0.00382724
-0.0402151
0.0434361
-0.0769378
0.211913
0.0253976
0.549666
0.69031
0.726951
1.64978
0.793206
2.38339
0.80726
2.96651
0.800028
3.54147
0.781026
4.11006
0.799977
4.82181
0.879748
4.94261
1.18702
4.94611
1.37351
5.5872
1.38849
4.94049
1.33018
4.06707
1.16793
3.20569
0.880557
2.30772
0.553448
1.41178
0.231053
0.73931
0.2938
0.00262701
-0.0428421
0.017344
-0.0916547
0.0870058
-0.0442643
0.382189
0.395126
0.58452
1.44745
0.674556
2.29335
0.697032
2.94403
0.696315
3.54219
0.670212
4.13616
0.665194
4.82683
0.694112
4.91369
0.879617
4.7606
1.05757
5.40924
1.05833
4.93973
1.0029
4.12251
0.87948
3.32911
0.67188
2.51532
0.417178
1.66648
0.168881
0.987607
0.462681
-0.00263867
-0.0402034
0.000792254
-0.0950856
0.036429
-0.079901
0.243815
0.18774
0.460156
1.23111
0.563392
2.19011
0.583284
2.92414
0.579835
3.54564
0.552299
4.1637
0.532211
4.84692
0.537568
4.90833
0.644551
4.65362
0.786162
5.26763
0.776785
4.9491
0.717262
4.18203
0.620084
3.42628
0.472305
2.6631
0.285594
1.85319
0.107411
1.16579
0.570092
-0.00534449
-0.0348589
0.000881579
-0.101312
0.0299874
-0.109007
0.145085
0.0726431
0.327008
1.04918
0.43469
2.08243
0.469908
2.88892
0.470611
3.54494
0.446598
4.18771
0.420823
4.87269
0.406621
4.92253
0.467316
4.59292
0.563674
5.17127
0.553653
4.95913
0.494019
4.24167
0.414505