/*--------------------------------*- C++ -*----------------------------------*\
  =========                 |
  \\      /  F ield         | OpenFOAM: The Open Source CFD Toolbox
   \\    /   O peration     | Website:  https://openfoam.org
    \\  /    A nd           | Version:  10
     \\/     M anipulation  |
\*---------------------------------------------------------------------------*/
FoamFile
{
    format      ascii;
    class       volVectorField;
    location    "67";
    object      U;
}
// * * * * * * * * * * * * * * * * * * * * * * * * * * * * * * * * * * * * * //

dimensions      [0 1 -1 0 0 0 0];

internalField   nonuniform List<vector> 
2200
(
(0.878834 -0.0304118 0)
(1.00578 -0.0512797 0)
(1.00327 -0.0353993 0)
(1.00025 -0.0244391 0)
(0.999877 -0.0166639 0)
(1.00004 -0.0107335 0)
(1.00004 -0.00683891 0)
(0.999997 -0.00419047 0)
(0.99991 -0.00220141 0)
(1.00019 -0.000653414 0)
(1.0001 0.00113096 0)
(1.00038 0.00265628 0)
(1.00038 0.00453317 0)
(1.00028 0.00711566 0)
(1.00012 0.0108378 0)
(1.00004 0.0166613 0)
(1.00036 0.0243739 0)
(1.00347 0.0348579 0)
(1.00599 0.0513827 0)
(0.879054 0.0302939 0)
(0.71203 -0.03276 0)
(0.996647 -0.0630031 0)
(1.03332 -0.0561341 0)
(1.02491 -0.046399 0)
(1.01588 -0.0360868 0)
(1.00965 -0.0263481 0)
(1.00591 -0.0181106 0)
(1.00377 -0.0114135 0)
(1.00266 -0.00601993 0)
(1.00221 -0.00156532 0)
(1.00195 0.00250138 0)
(1.00207 0.00701455 0)
(1.00324 0.0123663 0)
(1.00547 0.018952 0)
(1.00939 0.0272531 0)
(1.01549 0.0369956 0)
(1.02459 0.0474872 0)
(1.03315 0.0580103 0)
(0.996704 0.0631455 0)
(0.711778 0.0330384 0)
(0.535581 -0.0238921 0)
(0.969934 -0.0569236 0)
(1.05645 -0.0547191 0)
(1.05225 -0.048732 0)
(1.03626 -0.0403901 0)
(1.02447 -0.032216 0)
(1.01592 -0.0239334 0)
(1.01039 -0.0160265 0)
(1.00712 -0.00872794 0)
(1.00543 -0.00201248 0)
(1.00565 0.00441561 0)
(1.00738 0.0108453 0)
(1.0105 0.0177604 0)
(1.01576 0.0254666 0)
(1.02406 0.0334314 0)
(1.03609 0.041396 0)
(1.05217 0.0493966 0)
(1.0563 0.0532918 0)
(0.969198 0.0576463 0)
(0.534363 0.0239427 0)
(0.392388 -0.0136435 0)
(0.911887 -0.0463786 0)
(1.05755 -0.0468624 0)
(1.06962 -0.0442812 0)
(1.05492 -0.0381313 0)
(1.03936 -0.0314419 0)
(1.02758 -0.0246388 0)
(1.01913 -0.0174295 0)
(1.01386 -0.00993306 0)
(1.01136 -0.00244545 0)
(1.01097 0.00507263 0)
(1.01294 0.0125068 0)
(1.01808 0.0198947 0)
(1.02658 0.0266864 0)
(1.0385 0.0331284 0)
(1.054 0.0395918 0)
(1.06823 0.0456661 0)
(1.05547 0.0482909 0)
(0.9099 0.0470025 0)
(0.389903 0.0137777 0)
(0.307804 -0.00450988 0)
(0.846827 -0.0323616 0)
(1.04944 -0.0398957 0)
(1.07951 -0.03813 0)
(1.06828 -0.0334621 0)
(1.05176 -0.0278478 0)
(1.03835 -0.0224432 0)
(1.02806 -0.0163426 0)
(1.02087 -0.00940574 0)
(1.01681 -0.00168221 0)
(1.01676 0.00614032 0)
(1.02068 0.0135031 0)
(1.02753 0.0197994 0)
(1.0373 0.0255171 0)
(1.0502 0.0304227 0)
(1.06664 0.0357455 0)
(1.07765 0.0401083 0)
(1.04721 0.0417855 0)
(0.842892 0.0330002 0)
(0.303669 0.00474345 0)
(0.264428 0.000104083 0)
(0.789196 -0.0200562 0)
(1.03356 -0.0314312 0)
(1.0837 -0.0320004 0)
(1.07738 -0.0287178 0)
(1.06088 -0.0238248 0)
(1.04731 -0.0193306 0)
(1.03653 -0.0142569 0)
(1.02882 -0.00821644 0)
(1.02448 -0.00130504 0)
(1.02395 0.00617208 0)
(1.02716 0.0128398 0)
(1.03432 0.0186842 0)
(1.04497 0.0231814 0)
(1.0586 0.0271417 0)
(1.07486 0.0315325 0)
(1.08033 0.0342477 0)
(1.02919 0.0333625 0)
(0.782528 0.0207485 0)
(0.258643 0.000124221 0)
(0.240505 0.00107019 0)
(0.738572 -0.0122677 0)
(1.0138 -0.0249521 0)
(1.0841 -0.0266982 0)
(1.08311 -0.0243875 0)
(1.06789 -0.0202182 0)
(1.05427 -0.0162157 0)
(1.04327 -0.0116287 0)
(1.03492 -0.00615365 0)
(1.0298 0.000354677 0)
(1.02942 0.00694667 0)
(1.03398 0.0129183 0)
(1.04164 0.0173904 0)
(1.05178 0.0213857 0)
(1.0647 0.024758 0)
(1.0794 0.0282077 0)
(1.07985 0.0297799 0)
(1.00745 0.027285 0)
(0.728716 0.0131617 0)
(0.232956 -0.000832001 0)
(0.226248 0.000964384 0)
(0.695857 -0.00801061 0)
(0.993416 -0.0206824 0)
(1.08248 -0.0230336 0)
(1.08701 -0.0211652 0)
(1.0735 -0.0175952 0)
(1.0601 -0.0137278 0)
(1.04963 -0.00946617 0)
(1.04183 -0.0045746 0)
(1.03701 0.000991208 0)
(1.03611 0.00708585 0)
(1.039 0.0123215 0)
(1.04565 0.0168268 0)
(1.05574 0.020155 0)
(1.06917 0.023149 0)
(1.08189 0.0258868 0)
(1.07554 0.0268512 0)
(0.983143 0.0235084 0)
(0.681566 0.0091537 0)
(0.216475 -0.000705413 0)
(0.216695 0.000625741 0)
(0.660457 -0.00564473 0)
(0.972794 -0.0175573 0)
(1.07965 -0.0201182 0)
(1.09041 -0.0185205 0)
(1.0784 -0.0153321 0)
(1.06491 -0.0116698 0)
(1.05423 -0.0073893 0)
(1.04604 -0.00246261 0)
(1.04074 0.00303619 0)
(1.03996 0.00836159 0)
(1.04387 0.0129835 0)
(1.0508 0.0165406 0)
(1.06011 0.0198338 0)
(1.07253 0.0225285 0)
(1.08336 0.0246799 0)
(1.07085 0.0250948 0)
(0.959071 0.021082 0)
(0.641395 0.00709241 0)
(0.204333 -0.000331656 0)
(0.209617 0.000304047 0)
(0.63216 -0.00417799 0)
(0.954234 -0.0149193 0)
(1.07678 -0.0178016 0)
(1.09361 -0.0164495 0)
(1.08312 -0.0135186 0)
(1.06974 -0.00987403 0)
(1.0594 -0.00581644 0)
(1.05183 -0.00115781 0)
(1.04698 0.00381116 0)
(1.04537 0.00894187 0)
(1.04737 0.0135032 0)
(1.05305 0.0173444 0)
(1.06245 0.0200395 0)
(1.07546 0.0223717 0)
(1.08428 0.0240397 0)
(1.06364 0.0239927 0)
(0.934076 0.0192249 0)
(0.606284 0.00597185 0)
(0.19381 4.83964e-05 0)
(0.203801 8.85504e-05 0)
(0.608856 -0.00312146 0)
(0.93623 -0.0124938 0)
(1.07359 -0.0154742 0)
(1.09694 -0.0142756 0)
(1.08786 -0.0114335 0)
(1.07433 -0.00785717 0)
(1.06345 -0.00372045 0)
(1.05501 0.00102967 0)
(1.04939 0.00624455 0)
(1.04798 0.0110793 0)
(1.05096 0.0150268 0)
(1.05709 0.0179781 0)
(1.06593 0.0206459 0)
(1.0778 0.0227129 0)
(1.08453 0.0239221 0)
(1.05693 0.0231781 0)
(0.910239 0.0177076 0)
(0.575907 0.00532174 0)
(0.184118 0.000328806 0)
(0.199359 1.49534e-05 0)
(0.590952 -0.00224856 0)
(0.921123 -0.0101337 0)
(1.07089 -0.013287 0)
(1.10045 -0.0122112 0)
(1.09281 -0.00950124 0)
(1.07916 -0.00591187 0)
(1.06829 -0.00199956 0)
(1.06024 0.00254819 0)
(1.05486 0.00741591 0)
(1.05232 0.0122276 0)
(1.05342 0.0163307 0)
(1.05851 0.0195349 0)
(1.06749 0.0215157 0)
(1.08005 0.0232071 0)
(1.08422 0.0240296 0)
(1.04752 0.0227067 0)
(0.885318 0.0165393 0)
(0.547991 0.00495915 0)
(0.17455 0.000500356 0)
(0.195824 3.68524e-05 0)
(0.576309 -0.00151975 0)
(0.906633 -0.00800089 0)
(1.06805 -0.0108587 0)
(1.10397 -0.0096971 0)
(1.0978 -0.00685208 0)
(1.08415 -0.00319131 0)
(1.07273 0.000914004 0)
(1.0636 0.00562308 0)
(1.0569 0.0106526 0)
(1.05445 0.0151417 0)
(1.05658 0.0185698 0)
(1.06208 0.0208197 0)
(1.07066 0.0228094 0)
(1.08142 0.0241257 0)
(1.08339 0.0245327 0)
(1.03845 0.022597 0)
(0.861225 0.0157212 0)
(0.522638 0.00481095 0)
(0.165276 0.000588536 0)
(0.19384 6.87217e-05 0)
(0.566046 -0.000728527 0)
(0.895649 -0.00581314 0)
(1.06609 -0.00854106 0)
(1.10788 -0.00726214 0)
(1.10317 -0.00439914 0)
(1.08933 -0.000647778 0)
(1.07758 0.0032951 0)
(1.06837 0.00772886 0)
(1.06191 0.0126136 0)
(1.05814 0.0173982 0)
(1.05824 0.020884 0)
(1.06267 0.0232766 0)
(1.07149 0.0244458 0)
(1.08261 0.0253709 0)
(1.08128 0.0252955 0)
(1.0262 0.0227944 0)
(0.835457 0.0152547 0)
(0.497846 0.00476282 0)
(0.155845 0.000624779 0)
(0.19304 0.000104504 0)
(0.558652 -0.000192383 0)
(0.885477 -0.00379802 0)
(1.06442 -0.00592239 0)
(1.11187 -0.0043938 0)
(1.1086 -0.00124694 0)
(1.09486 0.00268992 0)
(1.08269 0.00712178 0)
(1.07263 0.0121282 0)
(1.06459 0.0172969 0)
(1.06041 0.0212291 0)
(1.06118 0.0240778 0)
(1.06597 0.025674 0)
(1.07406 0.0268963 0)
(1.08241 0.0272561 0)
(1.07868 0.0266804 0)
(1.01407 0.02347 0)
(0.810053 0.0151432 0)
(0.474247 0.00483216 0)
(0.14656 0.000648995 0)
(0.193703 8.53413e-05 0)
(0.554675 0.000904244 0)
(0.879468 -0.00144559 0)
(1.06408 -0.00303753 0)
(1.11646 -0.00111634 0)
(1.11445 0.00224252 0)
(1.10051 0.00648701 0)
(1.0878 0.0108706 0)
(1.0771 0.0155484 0)
(1.06851 0.0202114 0)
(1.06323 0.0247323 0)
(1.06214 0.0276818 0)
(1.06535 0.0291039 0)
(1.07356 0.0294667 0)
(1.08229 0.029627 0)
(1.07381 0.0284948 0)
(0.99831 0.0244444 0)
(0.78242 0.0153636 0)
(0.449978 0.00498911 0)
(0.136866 0.000664877 0)
(0.195926 0.000287092 0)
(0.555088 0.00156531 0)
(0.875016 0.000804151 0)
(1.06498 0.000118891 0)
(1.12171 0.00242143 0)
(1.12092 0.0061318 0)
(1.10698 0.0106228 0)
(1.0938 0.015643 0)
(1.08242 0.0211867 0)
(1.07292 0.0268402 0)
(1.06652 0.0306036 0)
(1.06486 0.0323515 0)
(1.06822 0.0333278 0)
(1.0752 0.0338643 0)
(1.08037 0.0329281 0)
(1.06842 0.0311406 0)
(0.982344 0.026095 0)
(0.75438 0.0159928 0)
(0.425703 0.00529708 0)
(0.126976 0.000695608 0)
(0.200257 0.000678872 0)
(0.557974 0.00241186 0)
(0.875642 0.003487 0)
(1.06773 0.00361845 0)
(1.1278 0.00667439 0)
(1.1279 0.0108543 0)
(1.11351 0.0160829 0)
(1.09963 0.0214419 0)
(1.08718 0.0268303 0)
(1.07569 0.031483 0)
(1.06766 0.0353007 0)
(1.06486 0.0377045 0)
(1.0664 0.0382556 0)
(1.07314 0.0374049 0)
(1.07869 0.0368928 0)
(1.06045 0.0342624 0)
(0.961886 0.0280093 0)
(0.723207 0.0169587 0)
(0.399595 0.00567064 0)
(0.116294 0.000713849 0)
(0.206879 0.000888326 0)
(0.565224 0.00356115 0)
(0.87978 0.00591952 0)
(1.07278 0.00779011 0)
(1.13498 0.0113909 0)
(1.13608 0.0162073 0)
(1.12127 0.0218006 0)
(1.10635 0.0278026 0)
(1.09267 0.0340923 0)
(1.08058 0.0402711 0)
(1.07159 0.0444266 0)
(1.067 0.0451354 0)
(1.06787 0.044945 0)
(1.07355 0.0442574 0)
(1.07445 0.0420929 0)
(1.05119 0.0384406 0)
(0.940511 0.0309383 0)
(0.690427 0.0183752 0)
(0.372232 0.00618669 0)
(0.105039 0.000747316 0)
(0.215336 0.00105899 0)
(0.576236 0.00482795 0)
(0.887914 0.00910415 0)
(1.08055 0.012364 0)
(1.14365 0.0171161 0)
(1.14517 0.0227263 0)
(1.12946 0.0294305 0)
(1.11356 0.0361984 0)
(1.09867 0.0429198 0)
(1.08397 0.0482999 0)
(1.07139 0.0511371 0)
(1.06586 0.0523163 0)
(1.06529 0.0519063 0)
(1.06927 0.0498809 0)
(1.0708 0.0481352 0)
(1.03886 0.0433013 0)
(0.913255 0.0339538 0)
(0.652989 0.0200354 0)
(0.341873 0.00669381 0)
(0.092699 0.000757566 0)
(0.228054 0.0014333 0)
(0.595459 0.00680074 0)
(0.903772 0.0135884 0)
(1.09184 0.0188303 0)
(1.15398 0.0243151 0)
(1.1558 0.0308041 0)
(1.13912 0.0381501 0)
(1.12146 0.0457215 0)
(1.10401 0.0530356 0)
(1.08716 0.0593863 0)
(1.07438 0.0636036 0)
(1.06674 0.0636323 0)
(1.06499 0.061864 0)
(1.06855 0.0594736 0)
(1.06316 0.0556503 0)
(1.02387 0.0492437 0)
(0.884099 0.0382471 0)
(0.612751 0.0220999 0)
(0.309355 0.00725592 0)
(0.0796758 0.000766308 0)
(0.243702 0.00197874 0)
(0.618456 0.0085644 0)
(0.924448 0.017912 0)
(1.10736 0.0254242 0)
(1.16677 0.0329716 0)
(1.16808 0.0407295 0)
(1.14963 0.0496153 0)
(1.13015 0.0582124 0)
(1.11096 0.0664676 0)
(1.09174 0.0725764 0)
(1.07407 0.0745359 0)
(1.06421 0.0734291 0)
(1.06098 0.0716225 0)
(1.06108 0.0681929 0)
(1.0564 0.0639723 0)
(1.00518 0.0563451 0)
(0.846817 0.0424262 0)
(0.565442 0.0241718 0)
(0.272825 0.00769616 0)
(0.0655428 0.000749525 0)
(0.266022 0.00282105 0)
(0.652023 0.0124431 0)
(0.95378 0.0250246 0)
(1.1275 0.0353446 0)
(1.1823 0.0438883 0)
(1.18236 0.0537335 0)
(1.16158 0.0637924 0)
(1.13922 0.0734102 0)
(1.11612 0.0816374 0)
(1.09273 0.0872671 0)
(1.07372 0.0893398 0)
(1.06303 0.0883087 0)
(1.05859 0.0846964 0)
(1.05888 0.0802952 0)
(1.04402 0.0742958 0)
(0.981619 0.063948 0)
(0.806048 0.0478339 0)
(0.514634 0.0264263 0)
(0.234209 0.00801494 0)
(0.0511147 0.00072542 0)
(0.297517 0.0037673 0)
(0.697756 0.0155715 0)
(0.993298 0.0332119 0)
(1.1543 0.0471062 0)
(1.20152 0.0588038 0)
(1.19904 0.070685 0)
(1.17461 0.0823945 0)
(1.14886 0.0926935 0)
(1.12283 0.101233 0)
(1.09695 0.106453 0)
(1.07426 0.107074 0)
(1.05941 0.102998 0)
(1.05224 0.0981597 0)
(1.04787 0.0922009 0)
(1.0322 0.0849695 0)
(0.95343 0.0730048 0)
(0.754389 0.052547 0)
(0.453707 0.0280373 0)
(0.19125 0.00794475 0)
(0.0359562 0.000619625 0)
(0.33416 0.00712235 0)
(0.755704 0.024885 0)
(1.04246 0.0466662 0)
(1.18708 0.0649396 0)
(1.22488 0.0780501 0)
(1.21802 0.0931236 0)
(1.18886 0.105853 0)
(1.15885 0.116363 0)
(1.12804 0.123903 0)
(1.09688 0.127193 0)
(1.07026 0.125184 0)
(1.05472 0.120263 0)
(1.04783 0.114346 0)
(1.04328 0.107533 0)
(1.01343 0.0981345 0)
(0.916887 0.0817864 0)
(0.696845 0.0581419 0)
(0.390662 0.029662 0)
(0.148549 0.00768989 0)
(0.0222908 0.0005738 0)
(0.414631 0.0107971 0)
(0.843792 0.0357508 0)
(1.10958 0.0678228 0)
(1.22785 0.0906088 0)
(1.25209 0.106957 6.13372e-34)
(1.23801 0.123884 -2.77272e-34)
(1.20225 0.136649 0)
(1.16705 0.146038 0)
(1.13176 0.151829 0)
(1.09718 0.152701 0)
(1.06844 0.148621 0)
(1.04985 0.141103 0)
(1.03879 0.132263 0)
(1.02733 0.12253 0)
(0.992717 0.110559 0)
(0.873912 0.0914201 0)
(0.625324 0.0616404 0)
(0.312931 0.028943 0)
(0.0995476 0.00706039 0)
(0.00742356 0.000743778 0)
(0.48609 0.0259955 4.46165e-20)
(0.9462 0.0603613 -3.3828e-20)
(1.18007 0.102363 0)
(1.26955 0.129729 2.63937e-20)
(1.28098 0.145618 -2.14033e-20)
(1.2576 0.164325 2.9255e-34)
(1.21499 0.175061 0)
(1.17487 0.182195 1.56556e-20)
(1.13454 0.185234 -5.14512e-20)
(1.09471 0.183005 1.05217e-20)
(1.06105 0.175318 0)
(1.03949 0.164434 -2.68075e-20)
(1.02885 0.154616 -3.22889e-20)
(1.01606 0.144444 5.65692e-20)
(0.956944 0.128663 -4.46788e-20)
(0.803203 0.100835 0)
(0.522908 0.0639362 -1.6054e-20)
(0.222338 0.0269087 0)
(0.0505962 0.00667735 -8.87698e-20)
(-0.00850821 0.000345341 1.04618e-19)
(0.522503 0.0540452 -5.9024e-21)
(1.01243 0.102665 9.93706e-20)
(1.23245 0.153304 -5.03824e-21)
(1.30429 0.177725 -6.38713e-20)
(1.30641 0.195199 -4.51711e-20)
(1.27397 0.21217 7.34916e-20)
(1.22491 0.220206 0)
(1.17895 0.224731 0)
(1.13289 0.225387 8.16801e-20)
(1.08814 0.220167 0)
(1.05091 0.208864 9.64395e-20)
(1.02857 0.19702 2.87648e-20)
(1.0119 0.184892 5.66184e-22)
(0.98406 0.169219 -6.12758e-20)
(0.913067 0.147858 0)
(0.733871 0.113942 0)
(0.440037 0.065906 -2.61042e-19)
(0.161923 0.024423 6.56454e-19)
(0.0176877 0.0045535 -3.88017e-19)
(-0.0201331 -0.00150717 -4.56967e-19)
(0.529541 0.0773018 -5.29631e-20)
(1.04705 0.160006 2.0719e-20)
(1.26766 0.213519 1.16983e-20)
(1.3309 0.237042 1.10938e-19)
(1.32605 0.25346 1.46368e-20)
(1.28634 0.265751 -1.90998e-19)
(1.23178 0.269624 6.53515e-20)
(1.18072 0.270687 0)
(1.12942 0.267351 -1.72345e-19)
(1.07939 0.258062 1.5362e-19)
(1.03863 0.244662 -2.60199e-19)
(1.01042 0.230029 1.22014e-19)
(0.991784 0.214044 -7.91298e-20)
(0.96604 0.197759 1.78491e-19)
(0.877766 0.172051 0)
(0.683067 0.126534 -6.49413e-20)
(0.389036 0.0690817 0)
(0.137757 0.0238866 3.57498e-19)
(0.00473898 0.00241036 -8.46943e-19)
(-0.0254552 -0.00349952 5.30122e-19)
(0.526799 0.108416 1.36124e-19)
(1.07207 0.218615 -6.07577e-20)
(1.29188 0.279771 -1.33487e-20)
(1.34887 0.302138 0)
(1.33889 0.315654 -8.23505e-20)
(1.29394 0.322908 1.0177e-19)
(1.23463 0.322165 -6.97554e-20)
(1.17855 0.318871 0)
(1.12244 0.311586 1.22375e-19)
(1.06824 0.298508 -1.07868e-19)
(1.02322 0.280655 2.24865e-19)
(0.993678 0.261182 0)
(0.971415 0.244044 -1.68049e-19)
(0.932444 0.223305 9.47423e-20)
(0.843934 0.19001 2.38126e-19)
(0.647762 0.140084 -2.0949e-19)
(0.366867 0.0758175 3.30567e-19)
(0.132524 0.0259909 -7.31321e-19)
(0.00103705 0.00101233 4.62508e-19)
(-0.028285 -0.00570194 -5.78462e-19)
(0.512405 0.132531 -3.94712e-20)
(1.07447 0.270413 2.78576e-20)
(1.30078 0.344229 -4.46153e-20)
(1.35772 0.367749 9.24695e-20)
(1.34463 0.37996 -8.93708e-20)
(1.29613 0.381893 3.17061e-20)
(1.23342 0.376017 3.78948e-21)
(1.17367 0.368275 -1.37127e-19)
(1.11333 0.35642 -1.27857e-19)
(1.05439 0.338516 -2.3104e-19)
(1.00568 0.316701 -4.83248e-19)
(0.972309 0.29508 -1.49136e-19)
(0.947773 0.2739 2.23199e-21)
(0.914739 0.251621 -3.23907e-19)
(0.818622 0.217071 -5.00807e-21)
(0.625013 0.15588 3.046e-19)
(0.360346 0.0850099 -9.13094e-20)
(0.135747 0.030714 -5.2908e-20)
(0.00578944 0.000285856 0)
(-0.027372 -0.00691614 1.22882e-18)
(0.497465 0.154178 0)
(1.07363 0.322601 3.56192e-22)
(1.30487 0.409194 -5.81215e-21)
(1.36039 0.432336 -1.2977e-20)
(1.34486 0.442386 8.50468e-20)
(1.29402 0.439989 -7.46498e-20)
(1.22843 0.430081 7.57991e-20)
(1.16518 0.418025 2.25354e-19)
(1.10153 0.40176 -7.10944e-20)
(1.04037 0.379832 1.1405e-19)
(0.988815 0.353692 2.59626e-19)
(0.952488 0.327652 3.25183e-19)
(0.925429 0.305353 -1.95894e-19)
(0.881927 0.279246 3.50699e-19)
(0.790543 0.237184 -2.77929e-19)
(0.604856 0.175434 0)
(0.355737 0.0982662 -6.93324e-19)
(0.144376 0.0378073 9.33259e-19)
(0.0153624 0.00260985 6.96407e-20)
(-0.023491 -0.00723659 -1.29946e-18)
(0.479808 0.173223 -5.15367e-21)
(1.06038 0.36797 -2.39969e-20)
(1.29993 0.468353 4.16631e-20)
(1.35745 0.494016 -6.5678e-20)
(1.34008 0.503999 7.20305e-20)
(1.28734 0.497476 -7.15156e-20)
(1.21985 0.483145 1.49196e-19)
(1.15468 0.466754 -6.68983e-20)
(1.08856 0.446079 -2.86602e-19)
(1.0231 0.41938 -2.64028e-22)
(0.966531 0.388706 -2.82492e-19)
(0.927286 0.360216 -3.50186e-19)
(0.89992 0.334791 2.16644e-19)
(0.863601 0.307251 -1.26118e-19)
(0.768267 0.265969 3.02585e-19)
(0.589869 0.193708 0)
(0.355167 0.113063 -4.31145e-19)
(0.153841 0.0465092 6.36805e-19)
(0.0257468 0.00645826 1.20412e-18)
(-0.0187556 -0.00683175 -1.41619e-18)
(0.467066 0.191769 -1.0481e-19)
(1.05163 0.415143 4.71964e-20)
(1.29404 0.527691 -2.17482e-20)
(1.35096 0.553705 6.71822e-20)
(1.33202 0.562114 1.22234e-20)
(1.27821 0.552058 -1.39114e-19)
(1.20912 0.534485 -8.70434e-20)
(1.14163 0.514446 -8.65517e-20)
(1.07261 0.490018 -1.62501e-19)
(1.00455 0.459507 2.61224e-19)
(0.946282 0.425046 2.85053e-19)
(0.906401 0.393088 5.55615e-19)
(0.875651 0.366023 0)
(0.830251 0.335707 6.44346e-21)
(0.742659 0.285549 -8.32442e-19)
(0.574169 0.21467 1.95623e-19)
(0.353728 0.128006 9.36443e-19)
(0.162552 0.0564959 -2.76358e-19)
(0.0362892 0.0115194 5.73063e-19)
(-0.0135199 -0.00566926 -4.77526e-20)
(0.45397 0.208065 5.867e-21)
(1.0351 0.454877 6.52152e-20)
(1.28294 0.580888 -2.68475e-21)
(1.34136 0.609819 6.15612e-20)
(1.32114 0.618457 -1.30934e-19)
(1.26608 0.605161 1.37153e-19)
(1.19566 0.584043 9.00294e-20)
(1.1267 0.560369 2.57692e-19)
(1.05562 0.532287 3.24952e-19)
(0.984687 0.497591 -3.03128e-19)
(0.923329 0.45875 0)
(0.880331 0.424149 -2.10799e-19)
(0.849122 0.393745 2.42022e-19)
(0.811536 0.361772 3.059e-19)
(0.721411 0.314526 -1.77101e-19)
(0.559981 0.233039 -4.29953e-19)
(0.351855 0.143709 -1.28009e-19)
(0.16957 0.0669229 -2.03248e-21)
(0.0454157 0.0172269 0)
(-0.0086713 -0.00414034 0)
(0.44626 0.225071 -9.03903e-20)
(1.02482 0.49707 0)
(1.27242 0.634211 1.29488e-20)
(1.32982 0.664001 -1.82984e-20)
(1.30846 0.671148 1.51415e-19)
(1.2528 0.654924 -3.78989e-20)
(1.18128 0.631278 9.15191e-20)
(1.11069 0.604741 -1.73996e-19)
(1.03787 0.573512 2.46486e-19)
(0.965616 0.53543 -1.00599e-19)
(0.902585 0.493012 1.63674e-19)
(0.858285 0.455966 6.69515e-19)
(0.825475 0.423297 1.43007e-20)
(0.779075 0.387984 -3.1952e-19)
(0.696728 0.331563 5.91425e-19)
(0.543702 0.253726 3.35415e-21)
(0.347545 0.158224 1.36952e-19)
(0.173849 0.0774119 -6.52775e-19)
(0.0522685 0.0227584 6.72604e-19)
(-0.00463603 -0.00255195 -7.9222e-19)
(0.438133 0.240594 2.54452e-23)
(1.00979 0.532454 0)
(1.25873 0.681336 0)
(1.31668 0.714403 3.96461e-21)
(1.29444 0.721754 -4.31307e-20)
(1.23782 0.702986 6.31069e-20)
(1.1654 0.676511 -1.68524e-19)
(1.09415 0.646965 0)
(1.01996 0.612776 -3.63908e-19)
(0.944517 0.571213 4.39757e-19)
(0.878132 0.525406 4.68766e-19)
(0.831616 0.484551 -2.45867e-19)
(0.798499 0.447876 -2.98306e-19)
(0.760774 0.410837 6.99838e-19)
(0.675325 0.358694 -2.10458e-19)
(0.527425 0.269637 -2.5059e-19)
(0.341281 0.172103 -1.49756e-19)
(0.174912 0.0865281 -7.05791e-19)
(0.0565973 0.0275755 1.03462e-19)
(-0.00153714 -0.00110412 8.58299e-19)
(0.432858 0.257876 -4.32576e-20)
(0.999839 0.570262 -5.85852e-20)
(1.24622 0.728663 2.3827e-20)
(1.30259 0.762951 -2.05938e-22)
(1.27956 0.768915 -4.98915e-20)
(1.22268 0.747732 9.82416e-20)
(1.14978 0.71921 0)
(1.07743 0.687454 1.05807e-19)
(1.00154 0.650945 -8.34294e-20)
(0.924665 0.60672 7.34861e-19)
(0.857232 0.557573 -1.05638e-19)
(0.809565 0.513414 1.21877e-19)
(0.774867 0.475687 0)
(0.72825 0.434425 -3.79138e-19)
(0.650212 0.371375 4.59479e-19)
(0.509418 0.287423 0)
(0.332235 0.183343 -3.22377e-19)
(0.173254 0.0943388 9.49061e-19)
(0.0584746 0.03143 1.1282e-19)
(0.00058142 3.737e-05 -1.05863e-18)
(0.42881 0.275119 -1.06908e-19)
(0.987003 0.602253 1.35471e-19)
(1.23165 0.770096 0)
(1.288 0.807569 2.853e-20)
(1.26443 0.813799 0)
(1.20687 0.790666 -1.30895e-19)
(1.13335 0.759929 0)
(1.06046 0.725797 0)
(0.983367 0.686963 -1.11641e-19)
(0.903815 0.639989 -6.98835e-19)
(0.832939 0.588157 -8.67307e-19)
(0.782561 0.540558 1.43069e-19)
(0.746736 0.497072 5.17153e-19)
(0.709585 0.453255 4.18125e-19)
(0.628084 0.395116 -1.47506e-18)
(0.491784 0.298483 -5.89088e-19)
(0.322115 0.19364 3.45501e-19)
(0.16945 0.100133 0)
(0.05833 0.0341672 9.70088e-19)
(0.0017862 0.00081522 -1.14189e-18)
(0.426782 0.290696 1.25847e-19)
(0.978525 0.636423 -1.55971e-19)
(1.21867 0.812044 0)
(1.27319 0.850522 -1.13976e-20)
(1.24899 0.855569 -5.8679e-21)
(1.19131 0.830532 0)
(1.11756 0.798176 5.22383e-20)
(1.04377 0.762324 7.42287e-20)
(0.965121 0.721842 -2.0925e-19)
(0.884043 0.673094 9.23606e-20)
(0.811481 0.618409 0)
(0.759966 0.566941 5.93279e-19)
(0.723105 0.522542 6.19302e-21)
(0.676373 0.473709 2.2574e-19)
(0.602841 0.401828 2.67621e-19)
(0.472643 0.311548 0)
(0.310527 0.200389 -5.62412e-19)
(0.163742 0.104536 1.10247e-18)
(0.057001 0.0356592 -1.1717e-18)
(0.00216508 0.00132521 2.46038e-18)
(0.42495 0.30549 0)
(0.967278 0.664988 0)
(1.20444 0.848258 -7.72669e-20)
(1.25853 0.889621 0)
(1.23389 0.895047 0)
(1.17564 0.868555 -1.03874e-19)
(1.10138 0.834507 5.34289e-20)
(1.02716 0.796862 1.79057e-20)
(0.947505 0.754622 -4.75692e-20)
(0.864061 0.703816 0)
(0.788076 0.647054 -1.32745e-19)
(0.732897 0.59268 -4.84014e-19)
(0.693295 0.541265 -5.83611e-19)
(0.656701 0.487439 -2.34891e-19)
(0.580145 0.421159 2.89852e-19)
(0.454378 0.31569 -6.8263e-19)
(0.300043 0.205278 1.20986e-18)
(0.157808 0.10611 1.5261e-21)
(0.0549836 0.0368599 -1.11907e-18)
(0.00245621 0.00204087 -1.65965e-19)
(0.423783 0.319502 0)
(0.959716 0.695894 -1.25781e-19)
(1.19201 0.885263 9.34016e-20)
(1.24399 0.927381 0)
(1.21871 0.931805 0)
(1.16037 0.903841 2.06141e-19)
(1.08609 0.868563 0)
(1.01125 0.829608 0)
(0.930297 0.786309 -4.60136e-19)
(0.845221 0.734526 1.28879e-19)
(0.766592 0.675686 -1.17734e-18)
(0.709551 0.617275 0)
(0.669121 0.564508 -6.36009e-19)
(0.621566 0.504604 9.97098e-21)
(0.553648 0.419914 -9.33894e-19)
(0.435426 0.321341 3.67011e-19)
(0.289871 0.204501 1.22622e-21)
(0.155846 0.104717 -1.26315e-18)
(0.0544412 0.0349923 6.02033e-19)
(0.000648313 -0.000442672 1.77504e-19)
(0.422376 0.333309 0)
(0.949835 0.721701 -1.69734e-19)
(1.17869 0.91684 9.8252e-20)
(1.22989 0.961502 1.39022e-19)
(1.20422 0.966351 -5.12157e-21)
(1.14543 0.937299 2.03705e-20)
(1.07084 0.900774 -2.98898e-20)
(0.995754 0.860585 4.33679e-19)
(0.913892 0.816017 4.92214e-19)
(0.826508 0.762889 9.80481e-19)
(0.744497 0.702653 9.78183e-19)
(0.682713 0.642425 1.72467e-19)
(0.637004 0.581455 9.1465e-19)
(0.599422 0.513241 5.65601e-19)
(0.528299 0.433335 6.70089e-19)
(0.417013 0.314561 -4.0145e-19)
(0.280274 0.197329 -4.61465e-19)
(0.15791 0.102787 5.44831e-19)
(0.0634593 0.0443434 -3.23646e-19)
(0.00874898 0.00992829 5.75536e-19)
(0.421407 0.346619 2.3655e-19)
(0.94326 0.74985 2.66157e-19)
(1.16713 0.949617 5.61848e-20)
(1.21609 0.994665 1.54352e-20)
(1.1898 0.998576 -1.78381e-20)
(1.13103 0.968382 -5.67863e-20)
(1.05663 0.930979 2.84779e-20)
(0.981116 0.889823 -1.90481e-20)
(0.898059 0.844636 -5.73895e-19)
(0.809074 0.791183 -1.06459e-18)
(0.724029 0.729784 6.79086e-20)
(0.659005 0.665884 0)
(0.612144 0.603639 0)
(0.560285 0.529001 -2.95366e-19)
(0.496595 0.422666 -1.09966e-18)
(0.396318 0.307988 8.64841e-19)
(0.279617 0.179483 5.05949e-19)
(0.171272 0.0809694 0)
(0.0811134 0.0134987 1.03576e-18)
(0.00248963 -0.0175523 -6.13052e-19)
(0.420199 0.359568 -1.25565e-19)
(0.934589 0.773012 1.10624e-19)
(1.15478 0.977175 -1.33981e-19)
(1.20288 1.0244 -1.13443e-19)
(1.17632 1.02872 -2.20754e-20)
(1.11725 0.997694 -1.81641e-20)
(1.04268 0.959389 0)
(0.966998 0.917469 -5.45558e-19)
(0.883092 0.871402 6.92233e-20)
(0.791932 0.817168 0)
(0.70369 0.75552 0)
(0.632995 0.691455 1.10752e-19)
(0.577388 0.620725 1.48919e-19)
(0.53341 0.534369 -3.19683e-19)
(0.464271 0.432151 7.89034e-19)
(0.369346 0.285848 -9.42937e-19)
(0.264741 0.154054 -1.08627e-18)
(0.195285 0.0706359 9.62648e-19)
(0.151516 0.0679685 -3.68087e-19)
(0.109765 0.0745582 2.14125e-19)
(0.419368 0.371667 1.55414e-19)
(0.928806 0.798387 0)
(1.14411 1.00626 0)
(1.19006 1.05352 -3.1963e-20)
(1.16298 1.05691 2.58752e-20)
(1.10402 1.02497 -1.97733e-20)
(1.02974 0.98607 1.31171e-19)
(0.953723 0.943441 5.57964e-19)
(0.868778 0.897096 1.04227e-18)
(0.776265 0.843072 -8.06506e-20)
(0.685037 0.781209 1.67273e-19)
(0.60995 0.714067 -9.92731e-19)
(0.552437 0.64344 -9.92452e-19)
(0.4882 0.55287 -1.72082e-19)
(0.417561 0.414191 0)
(0.334499 0.273684 -4.23859e-21)
(0.247887 0.0796487 6.00096e-19)
(0.242007 -0.0340733 -1.00677e-18)
(0.209259 -0.111188 7.64852e-19)
(0.0884318 -0.100139 6.32833e-19)
(0.418103 0.383515 -3.42498e-19)
(0.920887 0.818852 -1.53866e-19)
(1.1326 1.03028 6.89888e-21)
(1.17779 1.07955 6.23303e-20)
(1.1505 1.08343 0)
(1.0913 1.05093 -4.42466e-20)
(1.01688 1.01144 -1.90902e-19)
(0.940708 0.968536 -2.26855e-21)
(0.855045 0.921791 -5.46077e-19)
(0.760518 0.867517 -7.92584e-20)
(0.666074 0.806498 7.36194e-20)
(0.585081 0.74188 8.72361e-19)
(0.514319 0.664054 9.6794e-19)
(0.454652 0.558317 1.6821e-19)
(0.37608 0.431455 8.57468e-19)
(0.272408 0.237341 0)
(0.146261 0.0603969 0)
(-0.0125345 0.173641 6.8719e-19)
(-0.0786734 0.629624 -2.6922e-20)
(0.00983117 1.54523 -8.54041e-19)
(0.417318 0.394576 1.8877e-19)
(0.91571 0.841862 4.35008e-19)
(1.1227 1.0565 -6.0298e-19)
(1.16577 1.10567 3.08361e-19)
(1.13794 1.10882 -1.15722e-20)
(1.07879 1.0758 5.96341e-21)
(1.00463 1.03618 0)
(0.928124 0.993043 -4.64557e-19)
(0.841524 0.946679 0)
(0.745672 0.893447 1.11336e-18)
(0.648022 0.833423 -9.0421e-20)
(0.561652 0.766653 1.01391e-19)
(0.48926 0.692286 1.11637e-18)
(0.399555 0.59132 -3.65554e-19)
(0.286385 0.414444 -4.35111e-19)
(0.182371 0.286647 0)
(0.0737385 0.457517 0)
(0.0241921 1.36268 0)
(0.0710787 2.47418 -3.89916e-19)
(0.0971935 2.91596 -2.41e-19)
(0.415773 0.405178 0)
(0.90834 0.859849 0)
(1.11191 1.07755 2.19385e-19)
(1.15434 1.12882 -2.51154e-19)
(1.12628 1.13272 1.17857e-19)
(1.06687 1.0995 3.37368e-21)
(0.99254 1.05975 2.51591e-20)
(0.915926 1.01698 -1.9588e-20)
(0.828739 0.970955 7.77293e-20)
(0.730976 0.918301 -1.27784e-18)
(0.630057 0.860278 1.63617e-19)
(0.538271 0.799631 8.78656e-19)
(0.44743 0.722175 -1.1116e-18)
(0.361304 0.598812 -1.22897e-18)
(0.263446 0.470831 4.12608e-19)
(0.179528 0.618454 0)
(0.112505 1.58984 5.60303e-19)
(0.117668 2.70165 6.03621e-19)
(0.125065 3.0907 -6.743e-19)
(0.11785 3.2235 7.17502e-19)
(0.414764 0.415503 0)
(0.903703 0.880581 3.7988e-19)
(1.1028 1.10121 -5.49728e-20)
(1.1432 1.15228 3.46275e-19)
(1.11456 1.15562 -1.23711e-19)
(1.0552 1.12223 0)
(0.981155 1.08275 0)
(0.904284 1.04016 0)
(0.816346 0.995105 4.34443e-19)
(0.717521 0.944373 5.86759e-20)
(0.613699 0.888616 0)
(0.515867 0.82643 -8.73143e-19)
(0.429205 0.754852 0)
(0.304881 0.643619 8.79296e-19)
(0.199328 0.692004 -5.96575e-19)
(0.143987 1.46683 -4.77556e-19)
(0.148405 2.68814 -1.09646e-18)
(0.172027 3.12601 -5.75775e-19)
(0.162629 3.26515 -7.72689e-19)
(0.149793 3.30534 5.60496e-19)
(0.413126 0.424801 -1.32087e-19)
(0.896765 0.896103 1.47616e-20)
(1.09272 1.11945 -6.08969e-20)
(1.13267 1.17275 -2.68638e-19)
(1.10383 1.17711 0)
(1.04423 1.14382 0)
(0.970025 1.10452 0)
(0.89313 1.06281 3.28892e-20)
(0.804779 1.01869 -5.49555e-19)
(0.704325 0.969316 0)
(0.597664 0.916501 0)
(0.497512 0.863283 0)
(0.385167 0.787487 0)
(0.308714 0.73613 6.46557e-19)
(0.264938 1.13743 1.58474e-18)
(0.2376 2.40176 4.6457e-19)
(0.25508 3.08137 9.28469e-19)
(0.249681 3.2783 -7.10911e-19)
(0.201544 3.34365 2.59776e-19)
(0.169955 3.35689 0)
(0.411958 0.433969 1.35653e-19)
(0.892504 0.9153 -8.40222e-19)
(1.0842 1.14151 -2.2687e-19)
(1.12219 1.19448 -5.03966e-20)
(1.09276 1.19836 2.87083e-20)
(1.03325 1.16514 -1.15997e-19)
(0.959389 1.12643 -4.57966e-22)
(0.882322 1.08513 -3.59012e-19)
(0.793441 1.04241 0)
(0.69241 0.995677 -7.54144e-20)
(0.584032 0.946359 6.86059e-20)
(0.47783 0.89088 0)
(0.382813 0.8284 0)
(0.32103 0.9289 -8.10215e-19)
(0.265593 1.85188 1.01901e-19)
(0.262064 2.94491 -3.49522e-19)
(0.287234 3.28129 7.3064e-19)
(0.258522 3.37949 5.22361e-19)
(0.19421 3.40411 -7.05508e-19)
(0.169866 3.41435 3.47809e-19)
(0.409867 0.443392 2.65533e-19)
(0.884926 0.930053 8.17042e-19)
(1.07362 1.159 2.73054e-19)
(1.11147 1.21453 0)
(1.08194 1.21967 0)
(1.02229 1.1866 8.98837e-20)
(0.948377 1.14808 5.17599e-20)
(0.871507 1.10791 3.1958e-19)
(0.782548 1.06643 2.12209e-20)
(0.680423 1.02153 9.60028e-19)
(0.570115 0.975518 -1.14651e-18)
(0.459147 0.926258 0)
(0.379831 0.908149 0)
(0.333136 1.30617 -5.53029e-19)
(0.32816 2.49615 -6.63591e-19)
(0.373209 3.19377 0)
(0.398423 3.36157 -7.37903e-19)
(0.327601 3.42454 5.12313e-20)
(0.259463 3.47022 3.38161e-19)
(0.237414 3.49572 -1.09614e-19)
(0.408062 0.453141 -5.0443e-19)
(0.880091 0.951308 -3.91834e-19)
(1.06405 1.18344 0)
(1.09976 1.238 0)
(1.0697 1.24232 0)
(1.01033 1.20919 0)
(0.937029 1.17124 -6.27845e-20)
(0.860244 1.13129 2.77832e-19)
(0.771158 1.0912 0)
(0.669262 1.0492 -8.7372e-19)
(0.55924 1.00712 2.05804e-18)
(0.448543 0.965119 8.44644e-20)
(0.395868 1.02833 1.1406e-19)
(0.384764 1.74071 9.00977e-19)
(0.395422 2.90139 -4.84411e-19)
(0.435583 3.31294 0)
(0.418591 3.43425 2.07471e-19)
(0.332757 3.52346 9.11185e-20)
(0.259207 3.5878 1.49065e-19)
(0.183703 3.56725 -1.62339e-20)
(0.40507 0.463437 2.3961e-19)
(0.870504 0.966959 -3.98405e-19)
(1.05141 1.20193 0)
(1.08739 1.25951 -7.38024e-20)
(1.05741 1.26525 2.55055e-19)
(0.998069 1.23206 0)
(0.924943 1.19401 0)
(0.848765 1.15522 -4.81475e-19)
(0.760137 1.11637 -5.56163e-20)
(0.658052 1.07627 8.57236e-19)
(0.544379 1.03702 -9.77718e-19)
(0.451968 1.01605 5.75857e-19)
(0.412312 1.21834 0)
(0.419942 2.18615 -4.77839e-19)
(0.461776 3.14204 3.13273e-19)
(0.526969 3.41462 1.96552e-19)
(0.517976 3.51007 0)
(0.455503 3.59251 -3.70995e-20)
(0.386779 3.63207 -4.09839e-19)
(0.30644 3.6043 -9.66629e-20)
(0.402327 0.473927 -4.75667e-19)
(0.864596 0.991224 5.70068e-19)