/*--------------------------------*- C++ -*----------------------------------*\
  =========                 |
  \\      /  F ield         | OpenFOAM: The Open Source CFD Toolbox
   \\    /   O peration     | Website:  https://openfoam.org
    \\  /    A nd           | Version:  10
     \\/     M anipulation  |
\*---------------------------------------------------------------------------*/
FoamFile
{
    format      ascii;
    class       volScalarField;
    location    "73";
    object      p;
}
// * * * * * * * * * * * * * * * * * * * * * * * * * * * * * * * * * * * * * //

dimensions      [0 2 -2 0 0 0 0];

internalField   nonuniform List<scalar> 
8800
(
0.814036
0.766251
0.727565
0.698575
0.677719
0.6629
0.652322
0.644867
0.640084
0.638076
0.639397
0.643633
0.650311
0.659652
0.672449
0.690195
0.71498
0.748926
0.791481
0.850183
0.645277
0.652956
0.660438
0.66375
0.662252
0.657185
0.650713
0.644658
0.639967
0.637168
0.636943
0.639501
0.644031
0.650006
0.656796
0.663091
0.666741
0.66601
0.660598
0.651913
0.623668
0.629829
0.63396
0.636911
0.63897
0.639587
0.6385
0.636424
0.634448
0.633595
0.634617
0.637049
0.639886
0.642094
0.642721
0.641536
0.639205
0.63582
0.631264
0.627504
0.617837
0.620489
0.623245
0.625656
0.627301
0.628478
0.629241
0.62939
0.629139
0.62915
0.629969
0.631194
0.632076
0.632172
0.631586
0.630511
0.628707
0.626145
0.623748
0.622244
0.612427
0.613853
0.615638
0.617678
0.619474
0.620833
0.621846
0.62268
0.623346
0.623979
0.624706
0.625265
0.625413
0.625162
0.624492
0.623263
0.621583
0.619746
0.618444
0.617612
0.607314
0.608235
0.609482
0.611059
0.612705
0.61425
0.615563
0.616672
0.617695
0.618669
0.619446
0.619849
0.619864
0.619468
0.618619
0.617444
0.616135
0.614889
0.614072
0.61352
0.602361
0.603031
0.604
0.605314
0.606739
0.60822
0.609692
0.611062
0.612329
0.61353
0.614455
0.614911
0.614895
0.614438
0.613672
0.612754
0.611766
0.610858
0.61028
0.609873
0.597521
0.598038
0.598828
0.599971
0.601267
0.602667
0.604151
0.605678
0.607184
0.60863
0.609759
0.610335
0.610392
0.610071
0.609517
0.608829
0.608085
0.60742
0.606994
0.606675
0.59272
0.59313
0.593794
0.594814
0.596041
0.597399
0.598887
0.600507
0.602219
0.603944
0.605334
0.606118
0.606381
0.60629
0.605967
0.605497
0.604963
0.604494
0.604179
0.60392
0.58787
0.588204
0.588779
0.589722
0.590904
0.592251
0.593781
0.595507
0.59742
0.59945
0.601178
0.602275
0.602831
0.603006
0.602923
0.602685
0.602352
0.602047
0.601817
0.601599
0.58288
0.583157
0.583672
0.584571
0.585738
0.587115
0.588726
0.590602
0.592758
0.595142
0.597296
0.598794
0.599701
0.60018
0.600363
0.600362
0.600231
0.60007
0.599908
0.599718
0.577661
0.577893
0.578368
0.579255
0.580447
0.581897
0.583632
0.585714
0.588178
0.591004
0.593677
0.595657
0.596976
0.597807
0.598287
0.598528
0.598605
0.598579
0.598474
0.598305
0.572115
0.572312
0.572769
0.573671
0.574931
0.576499
0.578414
0.580769
0.583626
0.587001
0.590303
0.592858
0.594659
0.595893
0.596709
0.597219
0.597517
0.597619
0.597561
0.597405
0.566139
0.566307
0.566762
0.567709
0.569078
0.570815
0.572978
0.575686
0.579041
0.583093
0.587157
0.590399
0.59277
0.594469
0.595671
0.596501
0.597023
0.597248
0.597231
0.597082
0.559609
0.559753
0.560222
0.561244
0.562768
0.564734
0.567221
0.57038
0.574357
0.579238
0.584223
0.588285
0.591333
0.593582
0.595225
0.596407
0.597186
0.597541
0.597561
0.597415
0.552383
0.552504
0.553
0.554127
0.555857
0.558123
0.561023
0.564753
0.569502
0.575395
0.58149
0.586531
0.590378
0.593277
0.595441
0.597029
0.598097
0.598586
0.598641
0.598494
0.54427
0.544379
0.544914
0.546179
0.548173
0.550817
0.554245
0.558691
0.564392
0.57152
0.578949
0.585154
0.589944
0.593606
0.596397
0.598463
0.599853
0.600482
0.600569
0.600416
0.535037
0.535136
0.535732
0.537161
0.53949
0.542625
0.546721
0.55206
0.558937
0.567567
0.576596
0.584178
0.590084
0.594641
0.598174
0.600798
0.602553
0.60333
0.603444
0.603283
0.524363
0.524442
0.525126
0.526783
0.529551
0.533313
0.538248
0.544707
0.55304
0.563495
0.574433
0.583637
0.590851
0.596466
0.600842
0.604131
0.606294
0.607223
0.60736
0.607185
0.511862
0.511927
0.512712
0.51468
0.518007
0.522572
0.52858
0.536455
0.546597
0.559269
0.572471
0.583572
0.592297
0.599142
0.604506
0.608554
0.611157
0.612236
0.612387
0.612197
0.496964
0.497018
0.497947
0.500332
0.5044
0.510019
0.517423
0.527109
0.539509
0.554868
0.570737
0.58403
0.594479
0.602727
0.609233
0.614128
0.617192
0.618405
0.618559
0.618349
0.478878
0.47892
0.480065
0.483039
0.488122
0.495167
0.504429
0.516468
0.531704
0.550306
0.569278
0.585061
0.597458
0.607283
0.615036
0.620874
0.624388
0.625703
0.625844
0.625614
0.456418
0.456459
0.457955
0.461818
0.468364
0.477416
0.489226
0.504369
0.52317
0.545654
0.568182
0.586735
0.601274
0.612836
0.621942
0.62875
0.632659
0.634018
0.634124
0.633874
0.427797
0.427859
0.429953
0.43525
0.444082
0.456081
0.471486
0.490751
0.514004
0.541061
0.567584
0.589138
0.605959
0.619355
0.629909
0.637631
0.641811
0.643127
0.643178
0.642912
0.38991
0.390079
0.393406
0.401354
0.414039
0.430563
0.451093
0.475772
0.504466
0.536783
0.567659
0.592368
0.611551
0.626812
0.63882
0.647287
0.651532
0.652699
0.652675
0.6524
0.336815
0.337831
0.344459
0.357874
0.377268
0.400797
0.428402
0.459924
0.495025
0.533168
0.568609
0.596511
0.618047
0.635136
0.648449
0.657366
0.661402
0.662319
0.662218
0.661946
0.259404
0.266889
0.282244
0.305916
0.335303
0.368212
0.404463
0.443852
0.486035
0.530454
0.570741
0.602018
0.626064
0.645086
0.659578
0.668682
0.672333
0.67299
0.67284
0.672606
0.176242
0.193926
0.218801
0.253345
0.293128
0.335538
0.380463
0.427861
0.477453
0.528726
0.574624
0.609912
0.63687
0.658096
0.67379
0.682545
0.685395
0.685757
0.68563
0.685469
0.106875
0.12772
0.160443
0.204214
0.253153
0.304506
0.357838
0.413077
0.469909
0.527794
0.578968
0.617907
0.647378
0.670244
0.686285
0.6943
0.696612
0.696912
0.69684
0.696713
0.050055
0.0725782
0.110901
0.161194
0.21736
0.276232
0.336995
0.399423
0.463045
0.5272
0.583328
0.625636
0.657316
0.681412
0.697622
0.705224
0.707282
0.707572
0.707539
0.707441
0.002786
0.0265007
0.0686609
0.12412
0.186093
0.251172
0.31831
0.387125
0.456964
0.526991
0.587822
0.633304
0.667054
0.692366
0.708919
0.716252
0.718172
0.718489
0.718497
0.718422
-0.0372043
-0.0128411
0.0322209
0.0917635
0.15862
0.228983
0.301667
0.376174
0.451701
0.527229
0.592558
0.641127
0.67695
0.703493
0.72044
0.727838
0.72981
0.730098
0.73013
0.730072
-0.0719729
-0.0472022
0.000134829
0.0630526
0.134041
0.20901
0.286624
0.366284
0.447069
0.527796
0.597469
0.649087
0.68698
0.714798
0.732376
0.740081
0.742048
0.742339
0.74237
0.742338
-0.103043
-0.077928
-0.0287408
0.0370564
0.11162
0.190637
0.272684
0.357067
0.442771
0.528469
0.602371
0.657005
0.696992
0.72618
0.744525
0.752541
0.754624
0.754897
0.754923
0.754895
-0.131414
-0.106
-0.0552369
0.0130535
0.0907608
0.173378
0.259431
0.34817
0.43851
0.528989
0.607048
0.664687
0.706784
0.737333
0.756437
0.764824
0.76705
0.767324
0.767337
0.767321
-0.157916
-0.132163
-0.0800056
-0.00951542
0.071006
0.156849
0.246541
0.339307
0.434024
0.529138
0.611315
0.671952
0.716104
0.748014
0.767844
0.776591
0.778968
0.779253
0.77923
0.779213
-0.182947
-0.156858
-0.103377
-0.0310326
0.0520189
0.140766
0.233766
0.330261
0.429125
0.528755
0.615032
0.678667
0.724864
0.758041
0.778506
0.787555
0.790028
0.790299
0.790245
0.790217
-0.206983
-0.180475
-0.125959
-0.051742
0.033556
0.124916
0.220936
0.320881
0.423665
0.527685
0.618087
0.684772
0.73299
0.76735
0.788316
0.797527
0.800047
0.800295
0.800205
0.800164
-0.230165
-0.203199
-0.147745
-0.0718417
0.0154603
0.109173
0.207933
0.311061
0.417532
0.525828
0.620404
0.690245
0.740515
0.775938
0.797224
0.806498
0.808969
0.80918
0.809061
0.809004
-0.252653
-0.225297
-0.168816
-0.0914543
-0.00235262
0.0934654
0.194694
0.30073
0.410656
0.523097
0.621907
0.695076
0.747499
0.783926
0.805366
0.81448
0.816858
0.817017
0.816869
0.816798
-0.274585
-0.246755
-0.189307
-0.110638
-0.0199357
0.0777606
0.1812
0.289877
0.403002
0.51942
0.622522
0.69926
0.754066
0.7915
0.812875
0.821627
0.823788
0.823884
0.823709
0.823628
-0.296038
-0.267628
-0.209305
-0.129414
-0.0372838
0.0620606
0.16747
0.278511
0.39456
0.51474
0.622174
0.702782
0.760316
0.798878
0.820008
0.828104
0.829885
0.829869
0.829687
0.829601
-0.31688
-0.287919
-0.228749
-0.147776
-0.0543878
0.0464085
0.153538
0.266677
0.385358
0.509049
0.620775
0.705582
0.766309
0.806329
0.827121
0.834179
0.835276
0.835076
0.834897
0.834818
-0.337094
-0.307605
-0.247643
-0.165692
-0.0712097
0.0308443
0.139473
0.254432
0.37545
0.502345
0.61825
0.707543
0.772035
0.814081
0.834725
0.840403
0.840272
0.839618
0.839472
0.839461
-0.356758
-0.326667
-0.265981
-0.183147
-0.0877002
0.0154367
0.125348
0.241863
0.364906
0.494664
0.614523
0.708502
0.777364
0.822216
0.843392
0.847785
0.845726
0.843907
0.843707
0.844059
-0.37572
-0.345094
-0.283716
-0.200094
-0.103812
0.000258277
0.111246
0.229066
0.353825
0.486078
0.609548
0.708252
0.782037
0.830519
0.853398
0.857595
0.853761
0.849633
0.848114
0.848329
-0.394074
-0.362886
-0.300873
-0.216572
-0.11958
-0.0147352
0.097112
0.215987
0.342144
0.476518
0.60319
0.706514
0.785777
0.838593
0.864429
0.870508
0.866776
0.85936
0.852075
0.838964
-0.411756
-0.380032
-0.317566
-0.23278
-0.135283
-0.0298614
0.082549
0.202173
0.329364
0.465397
0.594864
0.702598
0.788164
0.845968
0.875203
0.88504
0.881772
0.867659
0.846313
0.836701
-0.428605
-0.396697
-0.333616
-0.248528
-0.150565
-0.0447848
0.0677715
0.187929
0.315764
0.45293
0.584552
0.695909
0.788173
0.851361
0.881701
0.891742
0.889601
0.863453
0.796541
0.766847
-0.443967
-0.414167
-0.348725
-0.263345
-0.164621
-0.0590022
0.0530997
0.173483
0.301555
0.439223
0.572138
0.686026
0.784117
0.853872
0.878332
0.883316
0.866528
0.80913
0.739628
0.697195
-0.498328
-0.429543
-0.362355
-0.278367
-0.179142
-0.0740255
0.0384567
0.158538
0.286344
0.423778
0.55694
0.672124
0.771819
0.848788
0.847948
0.844887
0.787935
0.713525
0.635475
0.59206
-0.459917
-0.443987
-0.382667
-0.297569
-0.200626
-0.0955288
0.0159333
0.135431
0.262374
0.398651
0.530332
0.64458
0.737819
0.820932
0.800845
0.67922
0.569064
0.49248
0.417257
0.445358
-0.489896
-0.46093
-0.398759
-0.314511
-0.217622
-0.11264
-0.000878366
0.118013
0.243942
0.378524
0.507584
0.617686
0.701003
0.744855
0.691032
0.534473
0.401917
0.307355
0.207055
0.254776
-0.512945
-0.481068
-0.417821
-0.333458
-0.236453
-0.131583
-0.0198946
0.0981749
0.22273
0.354957
0.480344
0.584116
0.658177
0.666907
0.554042
0.376001
0.219382
0.0976186
-0.0351582
-0.00359223
-0.535413
-0.502083
-0.437741
-0.352492
-0.255424
-0.150719
-0.0395672
0.0775363
0.2005
0.329944
0.450614
0.546124
0.604225
0.58113
0.416369
0.215806
0.0226054
-0.147357
-0.336873
-0.357133
-0.55727
-0.523544
-0.458374
-0.37239
-0.275214
-0.170757
-0.0602809
0.0557158
0.176804
0.303017
0.418163
0.505149
0.543212
0.48242
0.285056
0.0709031
-0.148568
-0.339199
-0.581618
-0.876579
-0.579404
-0.545706
-0.480055
-0.393637
-0.296317
-0.192065
-0.0822048
0.0326321
0.151707
0.274372
0.383552
0.461918
0.477586
0.364843
0.170534
-0.0427528
-0.249277
-0.422967
-0.493735
-0.571653
-0.602754
-0.569033
-0.503132
-0.416545
-0.31922
-0.215278
-0.106136
0.00735133
0.124069
0.242604
0.345347
0.412278
0.402171
0.25552
0.0684499
-0.125774
-0.29114
-0.385644
-0.410086
-0.425849
-0.627624
-0.593816
-0.527771
-0.441186
-0.344052
-0.240601
-0.132431
-0.0206136
0.0933013
0.207013
0.302838
0.354821
0.326627
0.153765
-0.0242661
-0.193294
-0.322163
-0.362066
-0.374854
-0.37615
-0.654214
-0.620224
-0.554038
-0.467555
-0.370762
-0.268041
-0.16111
-0.0513138
0.0593388
0.167619
0.255537
0.292702
0.243384
0.0597492
-0.109206
-0.260601
-0.338228
-0.355363
-0.356792
-0.356619
-0.68258
-0.648319
-0.581962
-0.495653
-0.399368
-0.297588
-0.192179
-0.0847643
0.0221928
0.1245
0.203571
0.228497
0.14228
-0.0261844
-0.186614
-0.311463
-0.34876
-0.347091
-0.346199
-0.345625
-0.712438
-0.677935
-0.611441
-0.525398
-0.429788
-0.32919
-0.225608
-0.120939
-0.018095
0.0777753
0.147892
0.155301
0.0506205
-0.105758
-0.247904
-0.325935
-0.336215
-0.338799
-0.339457
-0.339187
-0.743245
-0.708605
-0.642224
-0.556567
-0.461839
-0.362696
-0.261248
-0.159704
-0.0613341
0.0278116
0.088971
0.081079
-0.0315912
-0.173111
-0.292736
-0.324949
-0.333669
-0.335134
-0.334889
-0.334591
-0.774541
-0.739804
-0.673853
-0.588773
-0.495181
-0.397788
-0.298822
-0.20077
-0.107232
-0.0246779
0.0259282
0.0107408
-0.106838
-0.227945
-0.323001
-0.341384
-0.332567
-0.331528
-0.331483
-0.331257
-0.805429
-0.770835
-0.705496
-0.621415
-0.529283
-0.434002
-0.337884
-0.24366
-0.155305
-0.0790264
-0.0384127
-0.0534691
-0.172483
-0.26982
-0.325636
-0.334831
-0.332001
-0.330602
-0.33002
-0.329784
-0.834397
-0.800527
-0.736181
-0.653584
-0.56339
-0.470647
-0.377789
-0.287693
-0.204742
-0.134628
-0.0976907
-0.123554
-0.22467
-0.308853
-0.313715
-0.330297
-0.332982
-0.330843
-0.330043
-0.329559
-0.859831
-0.827017
-0.764808
-0.684137
-0.596482
-0.506802
-0.417682
-0.33202
-0.254414
-0.190582
-0.153657
-0.190246
-0.267298
-0.328354
-0.349303
-0.340455
-0.33729
-0.335869
-0.335003
-0.334415
-0.879629
-0.848552
-0.789199
-0.711687
-0.627289
-0.541358
-0.456492
-0.375628
-0.303197
-0.245531
-0.210819
-0.243076
-0.296853
-0.353601
-0.383212
-0.357063
-0.344242
-0.342065
-0.340925
-0.340411
-0.891598
-0.863221
-0.807682
-0.73431
-0.654344
-0.573013
-0.493052
-0.417324
-0.350045
-0.29788
-0.265398
-0.285374
-0.305193
-0.340563
-0.336087
-0.33679
-0.338692
-0.339433
-0.339785
-0.340051
-0.89316
-0.868805
-0.818227
-0.750274
-0.675977
-0.60037
-0.526058
-0.455881
-0.393838
-0.346321
-0.310428
-0.320766
-0.307272
-0.296361
-0.309251
-0.32792
-0.33563
-0.338342
-0.339568
-0.339852
-0.882067
-0.862479
-0.818691
-0.758022
-0.690755
-0.621988
-0.554196
-0.490039
-0.433406
-0.389925
-0.348573
-0.354892
-0.344086
-0.332658
-0.346729
-0.350273
-0.351404
-0.351692
-0.351595
-0.351528
-0.8565
-0.841826
-0.80732
-0.756323
-0.697699
-0.636905
-0.576326
-0.518496
-0.467381
-0.428065
-0.383007
-0.38473
-0.399489
-0.4378
-0.419391
-0.386197
-0.370323
-0.364697
-0.362496
-0.36184
-0.819043
-0.809596
-0.78499
-0.745343
-0.696818
-0.644869
-0.591805
-0.540231
-0.494139
-0.458963
-0.427959
-0.405128
-0.391866
-0.419059
-0.405328
-0.372069
-0.356048
-0.351237
-0.349136
-0.348088
-0.776374
-0.770993
-0.756519
-0.72791
-0.690058
-0.646676
-0.600801
-0.554722
-0.512334
-0.479034
-0.448417
-0.398651
-0.320889
-0.276878
-0.289582
-0.307437
-0.31239
-0.316165
-0.319042
-0.319513
-0.738161
-0.734884
-0.727999
-0.709397
-0.680312
-0.644229
-0.604394
-0.562456
-0.521358
-0.486382
-0.459221
-0.399007
-0.317399
-0.187992
-0.0885574
-0.138216
-0.244502
-0.311493
-0.338354
-0.346681
-0.710834
-0.708791
-0.705276
-0.694025
-0.671398
-0.640595
-0.604646
-0.564756
-0.522636
-0.483471
-0.454733
-0.437978
-0.479876
-0.642041
-0.894276
-1.07475
-1.14472
-1.09574
-0.964588
-0.923538
-0.69036
-0.689614
-0.688463
-0.682888
-0.665956
-0.638402
-0.603547
-0.563186
-0.518457
-0.47054
-0.436103
-0.427388
-0.56678
-0.838229
-1.20191
-1.34293
-1.28126
-1.143
-0.992646
-0.936191
-0.678527
-0.678258
-0.677651
-0.675096
-0.663366
-0.637643
-0.602048
-0.559715
-0.51016
-0.453191
-0.407403
-0.368571
-0.366693
-0.373525
-0.378255
-0.372611
-0.28212
-0.168213
-0.0676483
-0.0198013
-0.670614
-0.670428
-0.669859
-0.668951
-0.662026
-0.638392
-0.601633
-0.555591
-0.500676
-0.436176
-0.365162
-0.290348
-0.149392
0.103864
0.388075
0.676247
0.912279
1.04218
1.10599
1.12651
-0.665886
-0.665872
-0.665798
-0.666117
-0.661722
-0.641175
-0.602915
-0.552545
-0.492412
-0.416866
-0.325172
-0.233768
-0.0161026
0.355208
0.765197
1.16226
1.45623
1.60356
1.65571
1.66522
-0.661867
-0.661939
-0.662002
-0.661909
-0.660906
-0.645102
-0.606365
-0.55222
-0.486188
-0.40361
-0.303215
-0.197929
0.00517097
0.371529
0.754074
1.10885
1.37733
1.50718
1.54409
1.54819
-0.658821
-0.658911
-0.658818
-0.657953
-0.657285
-0.649447
-0.612042
-0.555223
-0.485149
-0.399925
-0.298707
-0.19592
-0.0366889
0.270158
0.567951
0.823659
1.00463
1.09019
1.12144
1.12952
-0.657609
-0.658625
-0.661378
-0.666297
-0.671474
-0.660893
-0.61947
-0.560805
-0.491476
-0.405775
-0.309763
-0.213312
-0.0910484
0.144504
0.367079
0.537987
0.655058
0.71692
0.747743
0.759465
-0.657253
-0.658888
-0.66309
-0.672972
-0.684418
-0.66738
-0.622615
-0.570426
-0.504658
-0.419078
-0.329905
-0.245735
-0.152301
0.0309809
0.208309
0.344877
0.446326
0.505404
0.534376
0.543491
-0.681679
-0.682159
-0.676582
-0.648651
-0.610289
-0.598923
-0.605692
-0.584661
-0.522455
-0.436843
-0.353911
-0.277672
-0.202729
-0.0581162
0.088419
0.205826
0.296758
0.352518
0.377353
0.383393
-0.730587
-0.729084
-0.714305
-0.663762
-0.599501
-0.58773
-0.628631
-0.616108
-0.54716
-0.45704
-0.374582
-0.308325
-0.250972
-0.134623
-0.0116019
0.0869619
0.165618
0.214085
0.234176
0.237384
-0.811531
-0.813632
-0.837894
-0.874198
-0.879769
-0.849483
-0.805086
-0.696675
-0.582003
-0.475604
-0.391677
-0.330832
-0.283641
-0.189695
-0.0891409
-0.0101914
0.0519217
0.0883874
0.102234
0.103934
-0.975917
-1.00194
-1.06526
-1.12904
-1.14973
-1.10768
-0.982724
-0.783641
-0.616226
-0.48769
-0.398736
-0.341148
-0.296409
-0.226257
-0.148463
-0.0858156
-0.037991
-0.0110471
-0.000217025
0.000141218
-1.07236
-1.09986
-1.1485
-1.19254
-1.20905
-1.16603
-1.02018
-0.799086
-0.614985
-0.480091
-0.393912
-0.340994
-0.301911
-0.248418
-0.191363
-0.143736
-0.108716
-0.0888142
-0.0821883
-0.0828785
-0.97118
-0.99418
-1.03166
-1.06947
-1.08443
-1.04219
-0.895214
-0.712536
-0.558864
-0.444801
-0.371497
-0.327476
-0.298144
-0.262545
-0.221536
-0.187834
-0.163439
-0.150584
-0.146595
-0.148003
-0.68047
-0.699446
-0.735423
-0.77745
-0.801394
-0.774275
-0.675165
-0.560779
-0.461451
-0.385581
-0.334008
-0.303126
-0.284972
-0.261478
-0.237327
-0.219372
-0.208129
-0.20378
-0.202872
-0.204063
-0.316526
-0.328286
-0.353099
-0.387413
-0.421042
-0.431705
-0.416976
-0.386325
-0.350837
-0.315196
-0.287072
-0.268414
-0.258268
-0.248375
-0.241274
-0.239232
-0.240567
-0.244094
-0.245601
-0.246154
-0.0349997
-0.0410162
-0.0577446
-0.0882832
-0.130563
-0.176252
-0.212601
-0.236061
-0.24672
-0.24506
-0.237243
-0.227476
-0.220853
-0.223236
-0.230954
-0.24125
-0.251781
-0.25914
-0.261326
-0.261523
0.108568
0.104905
0.0927157
0.0662984
0.0228268
-0.0327811
-0.087882
-0.133763
-0.166475
-0.186314
-0.19338
-0.191222
-0.18844
-0.199488
-0.214793
-0.229283
-0.241103
-0.247647
-0.249343
-0.249623
0.149369
0.14686
0.137644
0.116492
0.0801767
0.0316196
-0.0212822
-0.0714811
-0.112636
-0.143029
-0.161746
-0.170774
-0.175899
-0.187754
-0.199279
-0.20971
-0.217704
-0.220999
-0.221871
-0.222325
0.140771
0.139011
0.132368
0.116888
0.0899005
0.0526174
0.0092024
-0.0353122
-0.0764425
-0.112371
-0.141516
-0.166367
-0.181932
-0.184675
-0.187549
-0.189295
-0.190607
-0.19078
-0.191059
-0.191626
0.115515
0.114392
0.109885
0.0991786
0.080172
0.0530865
0.0195481
-0.017074
-0.0536512
-0.0893557
-0.124406
-0.161112
-0.183731
-0.178585
-0.170312
-0.166217
-0.164286
-0.163517
-0.163715
-0.164323
0.0878021
0.0871939
0.0843261
0.0772431
0.0642972
0.0452284
0.0205558
-0.00776525
-0.0380394
-0.0697765
-0.102811
-0.137471
-0.154924
-0.149639
-0.143494
-0.14191
-0.141518
-0.141979
-0.142457
-0.142938
0.0624135
0.0621081
0.0604242
0.0559965
0.0475635
0.034697
0.0174131
-0.00303
-0.0258327
-0.0501231
-0.0740567
-0.0961842
-0.105162
-0.106211
-0.109304
-0.114665
-0.119483
-0.122498
-0.123376
-0.123528
0.0404546
0.0403412
0.0394898
0.0369581
0.0318464
0.0237796
0.0126071
-0.000807122
-0.0159544
-0.0316549
-0.0446361
-0.0520337
-0.0532403
-0.0602299
-0.0715033
-0.0832402
-0.0920624
-0.0967422
-0.0977697
-0.0976092
0.021133
0.0211914
0.0209145
0.0197807
0.0173667
0.0132429
0.00734216
0.00019366
-0.00777122
-0.0154199
-0.0190763
-0.0135583
-0.00795597
-0.0220383
-0.0355417
-0.0470683
-0.0552772
-0.0593142
-0.0601131
-0.0597884
0.00329415
0.00338603
0.00346042
0.00386169
0.00402148
0.00366139
0.00275223
0.00148699
-0.000119585
-0.00182399
-0.0022
6.57358e-05
0.00319854
0.00205342
-0.00319747
-0.00757472
-0.0103493
-0.0117185
-0.0121258
-0.0119332
-0.112972
0.0520969
0.244291
0.411957
0.545188
0.64918
0.734632
0.807465
0.840952
0.817771
0.184279
0.303455
0.431464
0.541764
0.634328
0.710574
0.77224
0.816092
0.838047
0.850299
0.399421
0.480998
0.568436
0.645429
0.711478
0.766693
0.810632
0.842797
0.866167
0.884269
0.557817
0.616286
0.676707
0.73297
0.781761
0.823226
0.85734
0.884618
0.9072
0.925573
0.681564
0.724023
0.769401
0.812582
0.850775
0.884161
0.912782
0.936654
0.956908
0.974786
0.784828
0.817322
0.855038
0.890198
0.922509
0.951507
0.976876
0.998231
1.016
1.03337
0.876721
0.905194
0.938901
0.970811
1.00057
1.02759
1.05121
1.07085
1.0863
1.10338
0.964916
0.993982
1.02783
1.05974
1.08923
1.11572
1.13851
1.15694
1.17028
1.18731
1.05999
1.09311
1.12967
1.16316
1.19314
1.21926
1.24117
1.25841
1.27025
1.28765
1.17485
1.21262
1.25121
1.28541
1.31471
1.33942
1.35976
1.37563
1.38708
1.40514
1.31971
1.35822
1.39432
1.42498
1.45063
1.47271
1.49174
1.50726
1.51967
1.53766
1.49473
1.52634
1.5525
1.57492
1.59488
1.61359
1.63129
1.64776
1.66311
1.68117
1.68331
1.7005
1.71553
1.73175
1.74764
1.76217
1.77537
1.78929
1.80682
1.82698
1.86501
1.87455
1.88608
1.89688
1.90617
1.91574
1.92652
1.93788
1.94924
1.9646
2.07223
2.07589
2.06095
2.04614
2.03986
2.04553
2.064
2.09431
2.12649
2.15314
2.37856
2.24369
2.16705
2.12466
2.10723
2.1112
2.13859
2.19501
2.29762
2.52199
0.704632
0.702505
0.698023
0.689402
0.677184
0.665064
0.654848
0.646973
0.641382
0.638165
0.637856
0.640637
0.645775
0.653022
0.662426
0.673977
0.686636
0.697676
0.70379
0.706847
0.629074
0.634921
0.641257
0.645755
0.648231
0.647916
0.645193
0.641403
0.637922
0.635701
0.635602
0.637845
0.641543
0.645857
0.649682
0.651577
0.65065
0.647175
0.642015
0.635395
0.620629
0.622925
0.626332
0.629333
0.631416
0.632923
0.633694
0.6334
0.632406
0.631566
0.631793
0.633269
0.635122
0.636456
0.636656
0.635781
0.634242
0.631914
0.628656
0.625738
0.615089
0.616175
0.618011
0.620396
0.622428
0.623869
0.624907
0.625684
0.626121
0.626392
0.626942
0.627804
0.628445
0.628543
0.628154
0.627323
0.625867
0.623792
0.621713
0.620332
0.609847
0.61051
0.611621
0.613333
0.615126
0.616772
0.618088
0.619133
0.620057
0.620903
0.6217
0.622315
0.622559
0.62243
0.621891
0.620857
0.619445
0.617914
0.616604
0.615826
0.604822
0.605282
0.606072
0.607378
0.608878
0.610412
0.611901
0.613232
0.614416
0.615536
0.616531
0.617174
0.617378
0.617149
0.616486
0.615523
0.614418
0.6133
0.612394
0.611879
0.599933
0.600277
0.600891
0.601969
0.603277
0.604671
0.606137
0.607622
0.60905
0.610405
0.611609
0.61239
0.612638
0.612418
0.611861
0.611118
0.610292
0.609444
0.608783
0.608407
0.595123
0.59539
0.595886
0.596806
0.597992
0.599311
0.600738
0.602271
0.603875
0.605483
0.606942
0.607918
0.608307
0.608254
0.607914
0.607395
0.606779
0.606164
0.605685
0.605398
0.590309
0.590521
0.590934
0.591744
0.592853
0.594128
0.59555
0.597137
0.598883
0.600741
0.602504
0.603761
0.604405
0.604607
0.604508
0.604219
0.603816
0.603398
0.603061
0.602837
0.585401
0.585571
0.585926
0.586664
0.587729
0.588987
0.590442
0.592122
0.594035
0.596164
0.598291
0.599927
0.600913
0.601417
0.601584
0.601536
0.601355
0.601115
0.600896
0.600718
0.580308
0.580445
0.580759
0.581454
0.582505
0.583791
0.58532
0.587134
0.589272
0.59173
0.594301
0.596407
0.597803
0.59866
0.59913
0.599342
0.59938
0.599317
0.599199
0.599056
0.574938
0.575048
0.575334
0.576011
0.577083
0.578444
0.58009
0.582095
0.584524
0.587398
0.590516
0.593187
0.595069
0.596335
0.597149
0.597645
0.597919
0.598031
0.598002
0.597886
0.569191
0.569278
0.569548
0.570231
0.571361
0.572838
0.574658
0.576922
0.579722
0.58312
0.586907
0.590257
0.592715
0.594456
0.595661
0.59649
0.597027
0.597308
0.597358
0.597262
0.562955
0.563021
0.563285
0.563997
0.565222
0.566863
0.568919
0.571522
0.574795
0.578843
0.583445
0.587611
0.590754
0.593056
0.594714
0.595918
0.596743
0.59721
0.597336
0.597257
0.556097
0.556142
0.556406
0.55717
0.558531
0.560393
0.562759
0.565794
0.569663
0.574512
0.580103
0.585249
0.589206
0.592172
0.594362
0.595991
0.597152
0.597818
0.598018
0.597952
0.548461
0.548482
0.548749
0.549587
0.551128
0.553273
0.556037
0.55962
0.564233
0.570065
0.576855
0.583174
0.588095
0.591842
0.594667
0.596801
0.598343
0.599227
0.599501
0.599444
0.539813
0.539825
0.540108
0.541046
0.542821
0.545315
0.548588
0.552863
0.558398
0.565437
0.573677
0.581392
0.587456
0.592122
0.595694
0.598439
0.600415
0.601535
0.601884
0.601833
0.529876
0.529858
0.530191
0.531275
0.533341
0.536297
0.540215
0.545356
0.55204
0.560558
0.570546
0.579921
0.587332
0.593082
0.597529
0.600983
0.603465
0.604843
0.605264
0.605215
0.51833
0.518288
0.51867
0.519947
0.522383
0.525933
0.53067
0.536906
0.545024
0.55536
0.567448
0.578785
0.587766
0.594784
0.600258
0.604527
0.607588
0.609239
0.609727
0.609675
0.50468
0.50461
0.505073
0.506604
0.509528
0.513848
0.519643
0.527282
0.537208
0.549778
0.56438
0.578015
0.588808
0.597279
0.603954
0.609159
0.612856
0.614784
0.615328
0.615267
0.488252
0.488154
0.488745
0.490631
0.494207
0.499559
0.506756
0.516225
0.528449
0.543771
0.561363
0.577655
0.590515
0.600634
0.608658
0.614922
0.619304
0.621494
0.622072
0.621994
0.468082
0.467957
0.468754
0.47116
0.475657
0.482442
0.491554
0.503459
0.518634
0.537341
0.558454
0.577769
0.592945
0.604897
0.614393
0.621825
0.626901
0.629309
0.629889
0.629787
0.442713
0.442574
0.44371
0.446923
0.452818
0.461702
0.473532
0.488751
0.507733
0.53057
0.555769
0.578456
0.596149
0.610083
0.621176
0.629831
0.635536
0.63807
0.638608
0.638474
0.409774
0.40966
0.41142
0.416036
0.424258
0.436425
0.452243
0.472012
0.495865
0.523659
0.553491
0.579839
0.600188
0.616202
0.628946
0.638807
0.64498
0.647502
0.647946
0.647778
0.365016
0.365074
0.368211
0.37576
0.388303
0.40583
0.427566
0.453468
0.483384
0.516951
0.551875
0.582056
0.605126
0.623229
0.637615
0.64853
0.654879
0.6572
0.657505
0.657306
0.300472
0.301729
0.309412
0.323512
0.343979
0.37004
0.400115
0.433835
0.470921
0.51091
0.551191
0.585236
0.61097
0.631087
0.646925
0.658534
0.664723
0.666606
0.666736
0.666522
0.224011
0.225862
0.240581
0.264825
0.296386
0.332506
0.371653
0.413662
0.458372
0.505348
0.551711
0.590379
0.619388
0.64194
0.659373
0.671532
0.677277
0.678778
0.678855
0.678721
0.145188
0.151559
0.1733
0.207953
0.250036
0.295931
0.344102
0.394433
0.446819
0.500841
0.553375
0.596699
0.628925
0.653826
0.672929
0.685011
0.689805
0.690774
0.690792
0.690724
0.0806587
0.0894221
0.11578
0.157563
0.207886
0.262093
0.318384
0.376492
0.436186
0.496963
0.55535
0.602977
0.638072
0.664829
0.684714
0.696487
0.70083
0.701692
0.701748
0.701733
0.0281844
0.0375518
0.0675123
0.114598
0.171132
0.232032
0.295185
0.360153
0.426509
0.493597
0.55751
0.609185
0.646932
0.675373
0.695939
0.7076
0.71167
0.712441
0.712542
0.712579
-0.0156744
-0.00602299
0.0264148
0.0775385
0.13917
0.205625
0.274596
0.34556
0.417916
0.490841
0.559979
0.615519
0.655805
0.685907
0.707307
0.718971
0.722802
0.723697
0.72383
0.723924
-0.0532951
-0.0435425
-0.00925932
0.0450908
0.110946
0.182143
0.256193
0.332485
0.410293
0.488643
0.562748
0.62205
0.66486
0.696624
0.718858
0.730767
0.734774
0.735713
0.735894
0.736009
-0.0863772
-0.076608
-0.0409186
0.0161508
0.085552
0.160846
0.239402
0.320503
0.403333
0.486782
0.565662
0.628645
0.673967
0.707437
0.730673
0.743108
0.747278
0.748256
0.74838
0.748521
-0.116231
-0.106448
-0.0696143
-0.0101987
0.0622475
0.141137
0.223713
0.309196
0.396693
0.484988
0.568492
0.635103
0.682939
0.718153
0.742463
0.755464
0.759903
0.760907
0.761032
0.761121
-0.143776
-0.133971
-0.0961635
-0.0346705
0.0404589
0.122542
0.20873
0.298221
0.390074
0.482992
0.571017
0.641235
0.691575
0.728513
0.753861
0.767429
0.772156
0.773187
0.77328
0.773339
-0.169605
-0.159752
-0.12105
-0.0578111
0.0197497
0.104697
0.194148
0.287312
0.383235
0.480587
0.573063
0.646877
0.699698
0.738305
0.764658
0.77872
0.783719
0.784758
0.784802
0.784825
-0.194216
-0.184263
-0.14469
-0.0799451
-0.000178821
0.0873307
0.17974
0.276273
0.376011
0.477614
0.574483
0.651929
0.707237
0.747453
0.774699
0.789134
0.794274
0.79532
0.79533
0.79532
-0.217925
-0.207789
-0.167472
-0.101267
-0.0195355
0.0702616
0.16535
0.264976
0.368267
0.473942
0.575168
0.656317
0.71416
0.755939
0.783937
0.798589
0.803786
0.804784
0.804758
0.804717
-0.240849
-0.230526
-0.189547
-0.121929
-0.0384645
0.0533922
0.150889
0.25333
0.359915
0.46947
0.575028
0.660003
0.720488
0.763815
0.792394
0.80711
0.81221
0.81316
0.813094
0.813028
-0.263192
-0.252617
-0.210926
-0.142043
-0.0570378
0.0366572
0.136308
0.241294
0.350915
0.464145
0.573975
0.662937
0.72627
0.771224
0.800256
0.814814
0.819684
0.820519
0.820414
0.820332
-0.284929
-0.274105
-0.231747
-0.161683
-0.0752834
0.0200413
0.12161
0.228875
0.341256
0.457916
0.571937
0.665067
0.731566
0.778327
0.807714
0.821858
0.826316
0.826976
0.826829
0.82673
-0.306121
-0.295033
-0.251969
-0.180852
-0.0932034
0.00355364
0.106813
0.216104
0.33096
0.450774
0.56885
0.666321
0.736386
0.785299
0.815072
0.828506
0.832249
0.832618
0.832423
0.83232
-0.326655
-0.315359
-0.271592
-0.199519
-0.11077
-0.0127533
0.0919633
0.20303
0.320076
0.442751
0.564662
0.666605
0.740689
0.792278
0.822699
0.835199
0.837764
0.837553
0.837281
0.837212
-0.34666
-0.335053
-0.290624
-0.217681
-0.127967
-0.0288553
0.0771369
0.189717
0.308672
0.433901
0.559355
0.665796
0.744349
0.799289
0.83097
0.842657
0.843547
0.842091
0.841544
0.841591
-0.365987
-0.354096
-0.309047
-0.235309
-0.144727
-0.0446781
0.0624037
0.176273
0.296843
0.424269
0.552941
0.66376
0.747163
0.806182
0.840053
0.851748
0.850984
0.847495
0.845585
0.845196
-0.38471
-0.372546
-0.326817
-0.252362
-0.161024
-0.0601605
0.0478391
0.162768
0.284689
0.413976
0.545463
0.660358
0.748862
0.812599
0.849612
0.862858
0.861997
0.856427
0.850349
0.842919
-0.40275
-0.39036
-0.344032
-0.268996
-0.177062
-0.075564
0.0331254
0.148828
0.271794
0.402566
0.536447
0.655116
0.749059
0.818375
0.859275
0.875789
0.877269
0.870682
0.859168
0.855037
-0.420066
-0.407463
-0.360678
-0.285188
-0.192856
-0.0908876
0.0182683
0.134426
0.258102
0.3899
0.525663
0.647591
0.746892
0.822707
0.867158
0.886735
0.890024
0.885422
0.84694
0.795511
-0.436389
-0.423073
-0.376609
-0.300871
-0.208515
-0.106302
0.00320328