/*--------------------------------*- C++ -*----------------------------------*\
  =========                 |
  \\      /  F ield         | OpenFOAM: The Open Source CFD Toolbox
   \\    /   O peration     | Website:  https://openfoam.org
    \\  /    A nd           | Version:  10
     \\/     M anipulation  |
\*---------------------------------------------------------------------------*/
FoamFile
{
    format      ascii;
    class       volScalarField;
    location    "72";
    object      p;
}
// * * * * * * * * * * * * * * * * * * * * * * * * * * * * * * * * * * * * * //

dimensions      [0 2 -2 0 0 0 0];

internalField   nonuniform List<scalar> 
2200
(
0.772605
0.751107
0.735205
0.719544
0.704941
0.692436
0.6821
0.674019
0.668336
0.665459
0.665997
0.669812
0.676208
0.6848
0.695498
0.708285
0.723087
0.739021
0.755069
0.776568
0.705022
0.701765
0.698843
0.694731
0.689279
0.68282
0.676222
0.6703
0.66584
0.663526
0.664071
0.66741
0.672617
0.679095
0.686101
0.692869
0.698543
0.702645
0.705497
0.708861
0.665076
0.665298
0.667367
0.668722
0.669124
0.668284
0.666324
0.66368
0.661181
0.659735
0.660353
0.662884
0.666205
0.669462
0.671814
0.672823
0.672556
0.671562
0.669924
0.669676
0.642573
0.644028
0.646625
0.649079
0.651535
0.653573
0.65475
0.655011
0.654683
0.654459
0.655143
0.656608
0.65786
0.658286
0.657629
0.655979
0.653835
0.651658
0.649052
0.647649
0.62817
0.630142
0.632967
0.635817
0.638694
0.641547
0.644037
0.645941
0.647214
0.64806
0.648875
0.64942
0.649246
0.648194
0.646368
0.644021
0.641493
0.63878
0.635994
0.634072
0.620773
0.622372
0.624584
0.627127
0.629812
0.632504
0.635127
0.637589
0.639666
0.641252
0.642222
0.642338
0.641573
0.640116
0.638264
0.636156
0.633851
0.631518
0.629425
0.62785
0.617289
0.618311
0.61959
0.621473
0.623641
0.62584
0.628077
0.630425
0.632723
0.634666
0.635801
0.635919
0.635223
0.634081
0.632739
0.631219
0.629546
0.627987
0.626881
0.625864
0.614551
0.61522
0.61586
0.61718
0.618819
0.620541
0.622346
0.624342
0.626501
0.628572
0.629955
0.630385
0.630164
0.62962
0.628903
0.628006
0.62699
0.626088
0.625654
0.624975
0.61121
0.611654
0.61206
0.613077
0.614369
0.615795
0.61735
0.619099
0.621068
0.623167
0.62484
0.625771
0.62615
0.626187
0.625976
0.625562
0.625024
0.624523
0.62435
0.623884
0.607049
0.607344
0.607711
0.608599
0.609739
0.611054
0.612549
0.614242
0.616168
0.618362
0.620416
0.621904
0.62282
0.62332
0.623498
0.623436
0.623197
0.622908
0.622796
0.622469
0.602191
0.602391
0.602769
0.603619
0.604748
0.606106
0.607699
0.609537
0.611641
0.614074
0.616565
0.618593
0.619981
0.620835
0.621293
0.621478
0.62143
0.621299
0.621213
0.620972
0.596851
0.596996
0.597377
0.598209
0.599384
0.600864
0.602643
0.604731
0.607171
0.610034
0.613093
0.615666
0.617482
0.618673
0.619388
0.61976
0.619929
0.619951
0.619899
0.619703
0.591039
0.591147
0.591531
0.592369
0.593628
0.595274
0.597304
0.599743
0.602667
0.606145
0.609847
0.613011
0.615289
0.61684
0.617858
0.6185
0.618893
0.619055
0.619047
0.618873
0.584803
0.584864
0.585258
0.586141
0.587523
0.589368
0.591681
0.594527
0.598016
0.602244
0.606773
0.610614
0.613445
0.615455
0.616875
0.617841
0.618484
0.618801
0.618836
0.618667
0.578027
0.578061
0.578491
0.57941
0.580931
0.582979
0.58559
0.588897
0.593064
0.598157
0.60372
0.608433
0.611937
0.614543
0.616466
0.617837
0.618757
0.619238
0.619322
0.619152
0.57057
0.570527
0.570964
0.572
0.573752
0.576086
0.579097
0.582974
0.587938
0.594089
0.600736
0.606534
0.610923
0.614245
0.616752
0.618566
0.619803
0.620459
0.620594
0.620417
0.562183
0.562187
0.562623
0.563745
0.565752
0.568422
0.571919
0.57647
0.582343
0.589747
0.597827
0.604887
0.610385
0.614564
0.617751
0.620109
0.621706
0.622537
0.622726
0.622534
0.552636
0.552651
0.553111
0.554387
0.556693
0.559794
0.563921
0.569335
0.57636
0.585215
0.595016
0.603613
0.610361
0.615578
0.619561
0.622504
0.62451
0.625539
0.625782
0.625571
0.541586
0.541556
0.54213
0.543629
0.54629
0.549982
0.55494
0.561445
0.569896
0.580612
0.592378
0.602827
0.610999
0.61735
0.622209
0.625866
0.628339
0.629555
0.629842
0.629603
0.528435
0.528367
0.529061
0.530937
0.534155
0.538625
0.54466
0.552594
0.562867
0.575823
0.589997
0.60244
0.612245
0.619905
0.625808
0.630234
0.633202
0.634621
0.634936
0.634667
0.512817
0.512705
0.513487
0.515734
0.519739
0.525336
0.532837
0.542661
0.555282
0.570947
0.587911
0.602697
0.614333
0.623383
0.630392
0.635674
0.639161
0.640746
0.64107
0.640768
0.493871
0.493793
0.494814
0.497597
0.502569
0.509615
0.519083
0.531402
0.547011
0.565997
0.586092
0.603495
0.617059
0.627705
0.635986
0.642196
0.646193
0.647929
0.648221
0.647888
0.470486
0.47034
0.47168
0.475317
0.481766
0.490936
0.503156
0.51882
0.538158
0.561069
0.584784
0.605001
0.620729
0.632996
0.642546
0.649697
0.654155
0.655987
0.656203
0.655852
0.440319
0.440348
0.44248
0.447597
0.456463
0.468891
0.485011
0.504986
0.528806
0.55621
0.583959
0.607265
0.625226
0.639194
0.650093
0.658109
0.66289
0.664737
0.664839
0.664477
0.400663
0.400913
0.404491
0.412563
0.425443
0.442825
0.464299
0.489734
0.518948
0.551553
0.583704
0.610191
0.630449
0.646196
0.658372
0.667156
0.672101
0.673829
0.673797
0.67345
0.347797
0.348295
0.355473
0.36884
0.388307
0.413004
0.441558
0.473723
0.509249
0.547573
0.58429
0.614007
0.636563
0.653974
0.667377
0.67665
0.681353
0.682639
0.682476
0.682195
0.278837
0.281544
0.296926
0.318889
0.347413
0.381045
0.417824
0.457489
0.499871
0.544445
0.586227
0.619639
0.644854
0.66431
0.678908
0.688522
0.692815
0.693476
0.69336
0.693142
0.200464
0.210306
0.235952
0.267564
0.306285
0.349185
0.394266
0.441623
0.491231
0.542539
0.589877
0.627434
0.655651
0.677072
0.692924
0.702517
0.706146
0.706264
0.706282
0.706141
0.130387
0.145013
0.177507
0.218321
0.266809
0.318604
0.371748
0.426872
0.483741
0.54159
0.594285
0.635697
0.666602
0.689785
0.706459
0.715682
0.718747
0.718612
0.718761
0.71867
0.0769405
0.0908335
0.127808
0.174688
0.230712
0.290181
0.350856
0.413299
0.477021
0.54117
0.599146
0.644275
0.677456
0.702102
0.719508
0.728942
0.731343
0.731467
0.731714
0.73167
0.0328067
0.045863
0.0868481
0.137746
0.199318
0.264837
0.331984
0.400896
0.470914
0.541124
0.60413
0.652789
0.688309
0.714565
0.732773
0.742458
0.745076
0.745565
0.745637
0.745716
-0.00438844
0.00857111
0.0522505
0.106173
0.172102
0.242446
0.315068
0.389682
0.46544
0.541245
0.608936
0.661051
0.699105
0.726893
0.746302
0.756524
0.759682
0.760192
0.760174
0.76026
-0.036965
-0.0237423
0.0220965
0.0786383
0.148236
0.222639
0.299976
0.379561
0.460441
0.541346
0.613565
0.669113
0.709511
0.739017
0.759665
0.770191
0.773599
0.774039
0.774066
0.774116
-0.0655638
-0.0525057
-0.00488962
0.0540791
0.126882
0.204786
0.28619
0.370119
0.455618
0.541332
0.618152
0.67703
0.719441
0.750259
0.771858
0.78284
0.786429
0.786948
0.786973
0.787014
-0.0916775
-0.0785887
-0.0296294
0.0316712
0.107308
0.188314
0.273321
0.361099
0.4509
0.541409
0.622627
0.684355
0.728643
0.760793
0.782829
0.794202
0.798127
0.798706
0.798732
0.798753
-0.115608
-0.102517
-0.0526857
0.0108199
0.0889847
0.172779
0.260993
0.35232
0.446223
0.541135
0.626218
0.690926
0.737234
0.770276
0.792624
0.804554
0.808563
0.80923
0.809235
0.809237
-0.138154
-0.124741
-0.0743062
-0.00883181
0.0715198
0.157842
0.249016
0.343615
0.441141
0.539902
0.628994
0.69686
0.744939
0.779068
0.801635
0.813688
0.817822
0.818531
0.818521
0.818505
-0.159441
-0.145666
-0.0947311
-0.027545
0.0546929
0.143314
0.237137
0.334594
0.4353
0.537795
0.63118
0.702217
0.75225
0.787212
0.809913
0.822006
0.825968
0.826713
0.826676
0.826642
-0.179538
-0.165759
-0.11413
-0.0454808
0.0383496
0.128985
0.225125
0.325104
0.428767
0.535001
0.632579
0.706981
0.759195
0.795236
0.817831
0.829342
0.833161
0.833857
0.833824
0.833769
-0.198724
-0.184868
-0.132671
-0.0628165
0.022361
0.114743
0.212898
0.315161
0.421637
0.531435
0.633089
0.711198
0.766173
0.803196
0.825448
0.836326
0.839663
0.840167
0.840097
0.840023
-0.217435
-0.203164
-0.150503
-0.07964
0.00667321
0.100545
0.20048
0.304871
0.413973
0.527061
0.632749
0.714843
0.772996
0.811686
0.833552
0.843099
0.845519
0.845534
0.845507
0.845505
-0.235703
-0.220757
-0.167759
-0.096029
-0.00873552
0.0864378
0.187962
0.294291
0.405757
0.521838
0.631474
0.717906
0.779805
0.820756
0.842551
0.850491
0.85082
0.850394
0.850018
0.849896
-0.253575
-0.237911
-0.184537
-0.111983
-0.0238187
0.0724833
0.175392
0.283426
0.396999
0.515783
0.629161
0.720188
0.786384
0.830742
0.853619
0.85933
0.85727
0.855772
0.855776
0.85678
-0.270834
-0.254618
-0.200845
-0.127506
-0.0385579
0.0587255
0.162812
0.272297
0.387711
0.508906
0.625719
0.721476
0.792679
0.841444
0.866941
0.871902
0.866775
0.859823
0.855381
0.854851
-0.287527
-0.270897
-0.216657
-0.142555
-0.0529051
0.0452033
0.150247
0.260935
0.377958
0.501297
0.621116
0.72143
0.79799
0.852672
0.882864
0.888917
0.88319
0.873382
0.874244
0.878421
-0.303565
-0.286602
-0.231897
-0.157106
-0.0668489
0.0319411
0.137752
0.24943
0.367831
0.493012
0.615343
0.719822
0.80205
0.863441
0.900346
0.910756
0.903354
0.8742
0.837866
0.806622
-0.318963
-0.301769
-0.246601
-0.171221
-0.0804791
0.0188221
0.125193
0.237636
0.35715
0.483853
0.608235
0.716219
0.803682
0.872917
0.919059
0.936687
0.942269
0.91409
0.931773
0.994961
-0.33364
-0.316358
-0.260833
-0.185056
-0.0940005
0.00561215
0.112312
0.225242
0.345489
0.47325
0.599148
0.709778
0.801926
0.878085
0.930693
0.953483
0.950162
0.919243
0.873737
0.89202
-0.347611
-0.330404
-0.274574
-0.198553
-0.107322
-0.00757754
0.0992378
0.212369
0.332945
0.461236
0.588008
0.700122
0.794376
0.874312
0.928873
0.952625
0.928561
0.867048
0.800025
0.786685
-0.360838
-0.343836
-0.287797
-0.211721
-0.120456
-0.0207505
0.0859833
0.199039
0.319523
0.447769
0.574663
0.68686
0.780661
0.857611
0.907311
0.905076
0.863075
0.779878
0.702285
0.67529
-0.373382
-0.356715
-0.300543
-0.224565
-0.1334
-0.0339012
0.0725507
0.185243
0.305232
0.432851
0.558984
0.669626
0.758976
0.824845
0.849902
0.83038
0.762902
0.656831
0.566626
0.541406
-0.385656
-0.36936
-0.313156
-0.23744
-0.146506
-0.047346
0.0586631
0.170758
0.2899
0.416319
0.540726
0.647901
0.730228
0.779528
0.771364
0.73104
0.61158
0.484642
0.374235
0.344286
-0.398516
-0.382625
-0.326348
-0.250927
-0.160291
-0.0615289
0.0439345
0.155255
0.273276
0.397976
0.519612
0.621128
0.696128
0.719557
0.684479
0.589437
0.428285
0.271762
0.13926
0.109149
-0.412443
-0.396757
-0.340351
-0.265256
-0.174952
-0.0765951
0.02827
0.138703
0.255371
0.377836
0.495576
0.590271
0.654508
0.648188
0.594576
0.438719
0.235409
0.0200099
-0.162057
-0.212848
-0.42758
-0.412016
-0.355315
-0.28044
-0.190435
-0.0924906
0.0117163
0.121135
0.236238
0.355993
0.468612
0.556705
0.605581
0.567363
0.477296
0.28576
0.0527697
-0.237515
-0.558721
-0.709155
-0.443972
-0.428308
-0.371258
-0.296594
-0.206855
-0.109321
-0.0058195
0.102491
0.215831
0.332455
0.438922
0.520217
0.550552
0.481985
0.341695
0.134445
-0.0999315
-0.444121
-1.02847
-1.59886
-0.461736
-0.44594
-0.388375
-0.313765
-0.224188
-0.127043
-0.0242776
0.0828429
0.194294
0.307598
0.407693
0.480781
0.491376
0.40672
0.211736
-0.022591
-0.225441
-0.459607
-1.0099
-2.50724
-0.480865
-0.46474
-0.406632
-0.332109
-0.242659
-0.145906
-0.0439313
0.0619113
0.1713
0.281059
0.374805
0.43805
0.426994
0.347345
0.117994
-0.119902
-0.268303
-0.306039
-0.295055
-0.678208
-0.50132
-0.485153
-0.426362
-0.351886
-0.262588
-0.166343
-0.0653564
0.0389346
0.145906
0.251529
0.339292
0.39169
0.364109
0.295826
0.0679233
-0.134335
-0.24562
-0.254268
-0.201783
-0.241728
-0.522963
-0.506698
-0.447371
-0.373202
-0.284159
-0.188568
-0.0887836
0.0137139
0.117892
0.218818
0.301356
0.343262
0.308847
0.240654
0.035008
-0.125349
-0.208071
-0.216488
-0.264223
-0.26825
-0.545766
-0.529672
-0.469798
-0.396015
-0.307259
-0.212522
-0.114196
-0.0137978
0.0872378
0.183311
0.260754
0.292665
0.260847
0.178356
0.00651207
-0.116314
-0.187159
-0.164128
-0.18458
-0.186269
-0.569431
-0.553056
-0.493264
-0.42027
-0.331872
-0.238241
-0.141608
-0.0435198
0.0540799
0.145375
0.217841
0.238512
0.218971
0.110352
-0.0291373
-0.111992
-0.151594
-0.19951
-0.17373
-0.182386
-0.593932
-0.577135
-0.517876
-0.445737
-0.357637
-0.26547
-0.170759
-0.0752171
0.0185672
0.105334
0.173491
0.183465
0.175494
0.0490465
-0.0663796
-0.130457
-0.108598
-0.16809
-0.148596
-0.153657
-0.618036
-0.601059
-0.5433
-0.472082
-0.384386
-0.294103
-0.20146
-0.108589
-0.0190692
0.0636113
0.128875
0.131109
0.12295
-0.0023147
-0.0937004
-0.145267
-0.132531
-0.148365
-0.153495
-0.151807
-0.641571
-0.624738
-0.569031
-0.49859
-0.41163
-0.32366
-0.233233
-0.143222
-0.0583001
0.0205392
0.084343
0.0828054
0.0656405
-0.0449129
-0.107305
-0.139594
-0.177298
-0.149121
-0.154668
-0.1491
-0.663346
-0.647235
-0.59358
-0.524375
-0.439245
-0.353737
-0.265637
-0.178595
-0.0983
-0.023539
0.0397825
0.038944
0.00962978
-0.0794465
-0.12014
-0.114505
-0.186786
-0.129282
-0.144361
-0.136461
-0.682867
-0.667882
-0.616355
-0.548499
-0.466552
-0.383433
-0.29797
-0.214141
-0.138124
-0.0681588
-0.00524987
-0.00163331
-0.035643
-0.098097
-0.126931
-0.0877417
-0.133748
-0.115235
-0.121238
-0.117892
-0.6984
-0.685024
-0.636168
-0.570553
-0.492574
-0.411959
-0.32947
-0.249063
-0.176833
-0.11253
-0.0505563
-0.0396021
-0.0671996
-0.0991092
-0.114861
-0.0925007
-0.106313
-0.110471
-0.111807
-0.111884
-0.709234
-0.697995
-0.652567
-0.589641
-0.515612
-0.438213
-0.359246
-0.282602
-0.21372
-0.155473
-0.0949505
-0.0746731
-0.0898664
-0.0959561
-0.104374
-0.113559
-0.107569
-0.112219
-0.111407
-0.112484
-0.713913
-0.705044
-0.663807
-0.604531
-0.534716
-0.461225
-0.386199
-0.313531
-0.247902
-0.195281
-0.136058
-0.108452
-0.11714
-0.0965803
-0.106249
-0.13242
-0.117439
-0.12265
-0.117697
-0.119059
-0.71255
-0.705746
-0.66894
-0.613743
-0.548398
-0.479533
-0.409182
-0.340876
-0.278788
-0.23014
-0.172548
-0.140393
-0.139984
-0.109712
-0.118244
-0.156427
-0.127558
-0.136542
-0.13015
-0.131748
-0.704189
-0.696949
-0.665188
-0.615817
-0.556072
-0.492358
-0.426902
-0.362878
-0.30437
-0.258482
-0.203401
-0.168352
-0.152538
-0.117944
-0.0791051
-0.0697729
-0.0692845
-0.077206
-0.0790713
-0.0821052
-0.682943
-0.67465
-0.651276
-0.609571
-0.556305
-0.498418
-0.438587
-0.378726
-0.322999
-0.278384
-0.226062
-0.184766
-0.160197
-0.149276
-0.139892
-0.170019
-0.180133
-0.177082
-0.174717
-0.169946
-0.640003
-0.632295
-0.624187
-0.594632
-0.550112
-0.49855
-0.443685
-0.386975
-0.332443
-0.287445
-0.236665
-0.186383
-0.208482
-0.279347
-0.446258
-0.596281
-0.620375
-0.607052
-0.55604
-0.50761
-0.600193
-0.597552
-0.595981
-0.573645
-0.538083
-0.493621
-0.443245
-0.388528
-0.332184
-0.282649
-0.233048
-0.161616
-0.17556
-0.252969
-0.373653
-0.420454
-0.383481
-0.323399
-0.279054
-0.258135
-0.576931
-0.578771
-0.568486
-0.555811
-0.527548
-0.486954
-0.438233
-0.384028
-0.323407
-0.263163
-0.206758
-0.100325
0.0229166
0.198764
0.363166
0.533537
0.663623
0.738495
0.780909
0.817232
-0.546617
-0.5461
-0.543629
-0.54267
-0.519007
-0.48196
-0.434038
-0.377517
-0.311264
-0.236496
-0.161094
-0.0327894
0.163555
0.461559
0.747783
0.990591
1.16671
1.26657
1.31249
1.32718
-0.535426
-0.533586
-0.537052
-0.528683
-0.512023
-0.478747
-0.430499
-0.371388
-0.300682
-0.214283
-0.120599
0.00350879
0.227866
0.541243
0.846428
1.1031
1.29439
1.40388
1.45198
1.46851
-0.520854
-0.519364
-0.52292
-0.514561
-0.511065
-0.478
-0.42779
-0.366221
-0.29296
-0.200132
-0.0970908
0.00949997
0.227572
0.506199
0.779951
1.01596
1.20106
1.31199
1.36122
1.37479
-0.509445
-0.509318
-0.508515
-0.507779
-0.506182
-0.477306
-0.429643
-0.366872
-0.291142
-0.196853
-0.0940804
-0.00906523
0.177782
0.415968
0.643362
0.838656
0.9966
1.09327
1.13553
1.14598
-0.505667
-0.506422
-0.504157
-0.50787
-0.501203
-0.475991
-0.430105
-0.369549
-0.295726
-0.205199
-0.106783
-0.0391179
0.1093
0.309763
0.492823
0.644959
0.767904
0.844546
0.877066
0.884781
-0.501022
-0.501989
-0.500876
-0.505213
-0.50063
-0.481969
-0.436792
-0.376124
-0.30442
-0.220353
-0.127652
-0.0706204
0.0402825
0.205563
0.3505
0.465776
0.557318
0.615631
0.640354
0.646383
-0.490703
-0.490255
-0.487954
-0.487415
-0.480637
-0.479786
-0.444119
-0.385395
-0.315194
-0.237678
-0.150506
-0.0995346
-0.0203095
0.113551
0.226834
0.313367
0.38028
0.423689
0.440845
0.444538
-0.49686
-0.4935
-0.488327
-0.481839
-0.478402
-0.481603
-0.447087
-0.391178
-0.322293
-0.252045
-0.17123
-0.124177
-0.0703353
0.0369374
0.124495
0.188946
0.23847
0.270715
0.282658
0.286669
-0.528734
-0.52562
-0.523555
-0.523192
-0.525414
-0.51639
-0.460594
-0.395816
-0.324515
-0.260661
-0.187076
-0.143393
-0.107638
-0.0223089
0.0443663
0.0926127
0.130577
0.155571
0.164921
0.167343
-0.585882
-0.588655
-0.596664
-0.60543
-0.603211
-0.569837
-0.480723
-0.401356
-0.322691
-0.262302
-0.197012
-0.156764
-0.131367
-0.0638695
-0.0136957
0.0223393
0.0507287
0.0682051
0.0759297
0.0780546
-0.590176
-0.595597
-0.610142
-0.624104
-0.621875
-0.574077
-0.480892
-0.393638
-0.31365
-0.25545
-0.19942
-0.163232
-0.142158
-0.0902708
-0.0534484
-0.026852
-0.00691323
0.00453641
0.00923416
0.00997718
-0.491817
-0.498256
-0.516445
-0.527653
-0.527797
-0.492117
-0.42642
-0.358216
-0.290568
-0.237608
-0.192863
-0.162449
-0.1422
-0.104556
-0.0784497
-0.0602467
-0.0476753
-0.0411302
-0.0391008
-0.0395543
-0.327713
-0.333833
-0.342663
-0.351426
-0.354527
-0.341622
-0.315586
-0.283535
-0.243773
-0.207299
-0.176395
-0.153739
-0.135378
-0.109414
-0.0922268
-0.081138
-0.0744632
-0.0719582
-0.0721009
-0.0731589
-0.164487
-0.167433
-0.172871
-0.181947
-0.191029
-0.195949
-0.196992
-0.193628
-0.18131
-0.1667
-0.150602
-0.136932
-0.124121
-0.107457
-0.0974851
-0.0921425
-0.0899624
-0.0902332
-0.0916423
-0.0929651
-0.0410899
-0.0427375
-0.0466693
-0.0551984
-0.0686478
-0.0844423
-0.100518
-0.114088
-0.120364
-0.123164
-0.119181
-0.114422
-0.109014
-0.100167
-0.096054
-0.094961
-0.0957437
-0.0977054
-0.0996165
-0.100997
0.03369
0.0325258
0.0296932
0.0214866
0.00584507
-0.0149832
-0.0368567
-0.0569096
-0.0715495
-0.0840332
-0.08766
-0.0898468
-0.091164
-0.0881983
-0.0891229
-0.0914627
-0.0941265
-0.0967765
-0.0987021
-0.100012
0.0683057
0.0675777
0.0654867
0.0582527
0.0432464
0.0220524
-0.000856523
-0.0225196
-0.0392901
-0.0544927
-0.0607927
-0.0665511
-0.0726162
-0.074242
-0.0788411
-0.0833366
-0.0870745
-0.0899412
-0.0917074
-0.0928966
0.078463
0.0779195
0.0763044
0.070448
0.0578758
0.0393496
0.0181352
-0.00303705
-0.0198894
-0.035196
-0.0417347
-0.0478318
-0.0553073
-0.0606338
-0.0672285
-0.0727609
-0.076921
-0.0798587
-0.0813805
-0.0824132
0.0752709
0.0749002
0.0736927
0.0692775
0.0596106
0.0449682
0.0272016
0.00807271
-0.00788034
-0.0229177
-0.0294732
-0.0347326
-0.0417999
-0.0485847
-0.0556882
-0.0613552
-0.0655685
-0.0684595
-0.0696879
-0.0705222
0.0659475
0.0657208
0.0648333
0.0616583
0.0545534
0.043646
0.0299134
0.0141313
0.000269688
-0.0141538
-0.0210251
-0.0257135
-0.0320833
-0.0385777
-0.0452199
-0.0504469
-0.0543257
-0.0569683
-0.0579404
-0.058592
0.0543876
0.054275
0.0536442
0.0514721
0.0464318
0.0385852
0.0284927
0.0164288
0.0056938
-0.00715443
-0.0141664
-0.0188667
-0.0245016
-0.0300062
-0.0358198
-0.0403458
-0.0437087
-0.0460053
-0.0467522
-0.0472424
0.0426228
0.0426028
0.0421661
0.0407637
0.0373239
0.0318397
0.0246187
0.015689
0.00812702
-0.00214651
-0.00809998
-0.0125843
-0.0176868
-0.0223216
-0.027299
-0.0311438
-0.0339897
-0.035932
-0.0365502
-0.0369235
0.0315434
0.0315496
0.0312497
0.0303867
0.0281377
0.0244797
0.0194903
0.012999
0.00799127
0.000440139
-0.00351555
-0.00694398
-0.0112445
-0.0152977
-0.0196594
-0.0228704
-0.0251872
-0.0267283
-0.0271933
-0.0274705
0.0214394
0.0214551
0.0212721
0.0207941
0.0194054
0.0171416
0.0139544
0.00944456
0.0064156
0.00114054
-0.00102973
-0.00310588
-0.00618841
-0.00929334
-0.0129038
-0.0154583
-0.0172483
-0.0183936
-0.0187577
-0.0189842
0.0121506
0.0121722
0.0121301
0.011998
0.0113055
0.0101121
0.00847634
0.00564931
0.00419017
0.000810085
-0.000179506
-0.00106253
-0.00288532
-0.0047056
-0.0074701
-0.00917764
-0.0103609
-0.0110415
-0.0111329
-0.0112883
0.00382471
0.00384644
0.00387281
0.00397812
0.00387624
0.00353523
0.00314841
0.00184497
0.00164477
7.06499e-05
0.000121877
0.000157694
-0.000788358
-0.00133797
-0.00322849
-0.00416035
-0.00508567
-0.00554096
-0.00530964
-0.00528436
-1.07675
-0.242731
0.0270356
0.300915
0.479149
0.631073
0.751303
0.874353
1.01198
1.09779
-0.102706
0.301002
0.314621
0.501008
0.621141
0.728888
0.821081
0.903682
0.930214
0.889264
0.26847
0.480027
0.512304
0.647448
0.730528
0.808015
0.872006
0.920174
0.921796
0.936496
0.494033
0.634477
0.668544
0.767939
0.824051
0.87984
0.923781
0.955668
0.96451
0.988414
0.66886
0.768243
0.797843
0.863467
0.907683
0.94749
0.979093
1.00317
1.01279
1.04454
0.809987
0.877613
0.907664
0.949556
0.985161
1.01476
1.03872
1.05943
1.07339
1.10182
0.927756
0.977662
1.00297
1.03048
1.05773
1.08125
1.10103
1.12026
1.13505
1.16165
1.03067
1.06734
1.08821
1.10863
1.12919
1.14843
1.16577
1.18387
1.19872
1.22241
1.12415
1.15309
1.1693
1.18446
1.20045
1.21645
1.23197
1.24886
1.26248
1.28481
1.21214
1.23252
1.24731
1.26042
1.27395
1.28768
1.30118
1.31577
1.32731
1.34694
1.29744
1.3132
1.327
1.33879
1.35069
1.36232
1.37346
1.38512
1.3928
1.40959
1.38262
1.39516
1.40886
1.4206
1.43124
1.44103
1.44985
1.4581
1.46167
1.47289
1.47135
1.48218
1.49566
1.50517
1.51273
1.52003
1.52721
1.53366
1.53478
1.54212
1.56975
1.57436
1.58255
1.58728
1.59067
1.59514
1.60114
1.60878
1.61269
1.62257
1.68303
1.66991
1.66262
1.65692
1.6542
1.65553
1.66183
1.6742
1.68903
1.71871
1.80499
1.74894
1.71792
1.70073
1.69251
1.69243
1.70131
1.72094
1.7527
1.82199
)
;

boundaryField
{
    wall-4
    {
        type            zeroGradient;
    }
    pressure-outlet-7
    {
        type            fixedValue;
        value           uniform 0;
    }
    velocity-inlet-6
    {
        type            zeroGradient;
    }
    velocity-inlet-5
    {
        type            zeroGradient;
    }
    frontAndBackPlanes
    {
        type            empty;
    }
}


// ************************************************************************* //
