/*--------------------------------*- C++ -*----------------------------------*\
  =========                 |
  \\      /  F ield         | OpenFOAM: The Open Source CFD Toolbox
   \\    /   O peration     | Website:  https://openfoam.org
    \\  /    A nd           | Version:  10
     \\/     M anipulation  |
\*---------------------------------------------------------------------------*/
FoamFile
{
    format      ascii;
    class       surfaceScalarField;
    location    "72";
    object      phi;
}
// * * * * * * * * * * * * * * * * * * * * * * * * * * * * * * * * * * * * * //

dimensions      [0 3 -1 0 0 0 0];

internalField   nonuniform List<scalar> 
4262
(
0.107133
0.470856
0.0955671
0.705151
0.0693758
0.858494
0.0473498
1.02079
0.0309587
1.21491
0.0197464
1.44943
0.0123156
1.73329
0.00707455
2.07628
0.00312049
2.4892
-0.000702191
2.98611
-0.00444415
2.98603
-0.00813983
2.48894
-0.0130874
2.07598
-0.0202321
1.73301
-0.0311446
1.44913
-0.0471883
1.21456
-0.0689266
1.0205
-0.095193
0.858569
-0.107064
0.705457
0.470924
0.112858
0.357998
0.135249
0.68276
0.120349
0.873394
0.0978142
1.04332
0.0745688
1.23815
0.0528296
1.47117
0.0344555
1.75167
0.0203012
2.09043
0.00907694
2.50042
-0.000869864
2.99606
-0.0109348
2.9961
-0.0223116
2.50032
-0.0364588
2.09013
-0.0547481
1.7513
-0.0765924
1.47098
-0.100349
1.23832
-0.123535
1.04369
-0.137039
0.872073
-0.113576
0.681995
0.357348
0.0920333
0.265965
0.124948
0.649846
0.121062
0.87728
0.104739
1.05965
0.0860598
1.25683
0.0668955
1.49034
0.0478654
1.7707
0.0296874
2.10861
0.0129775
2.51713
-0.0029239
3.01196
-0.0185596
3.01173
-0.0344113
2.51617
-0.0518745
2.10759
-0.0703156
1.76974
-0.0886498
1.48931
-0.105816
1.25548
-0.119874
1.05775
-0.125272
0.877471
-0.0923774
0.649101
0.26497
0.0639454
0.202019
0.104726
0.609066
0.106481
0.875524
0.0951078
1.07102
0.0811885
1.27075
0.06645
1.50507
0.0503412
1.78681
0.0332486
2.1257
0.0156476
2.53473
-0.00303349
3.03064
-0.0217363
3.03044
-0.0392211
2.53365
-0.0557168
2.12409
-0.0708594
1.78488
-0.0845959
1.50305
-0.0982782
1.26916
-0.110053
1.06952
-0.10705
0.874468
-0.0649106
0.606961
0.20006
0.037462
0.164557
0.0806633
0.565864
0.0908804
0.865307
0.0836269
1.07827
0.0709559
1.28342
0.0590442
1.51699
0.045945
1.79991
0.030828
2.14082
0.0136656
2.5519
-0.00555332
3.04986
-0.0240367
3.04892
-0.0397304
2.54935
-0.0535608
2.13792
-0.0657168
1.79704
-0.077001
1.51433
-0.0889262
1.28109
-0.095245
1.07584
-0.0833621
0.862586
-0.0384509
0.56205
0.161609
0.0194305
0.145127
0.0570916
0.528203
0.0724263
0.849972
0.0702827
1.08042
0.0614657
1.29224
0.0505982
1.52785
0.0394707
1.81103
0.0269313
2.15336
0.0119607
2.56687
-0.00577687
3.0676
-0.0233666
3.06651
-0.0379156
2.5639
-0.0494304
2.14944
-0.0592466
1.80685
-0.0690201
1.52411
-0.0766291
1.2887
-0.0773969
1.07661
-0.0601782
0.845367
-0.0204395
0.522311
0.141169
0.010583
0.134544
0.0422211
0.496565
0.0582608
0.833933
0.058463
1.08022
0.0521925
1.29851
0.0426659
1.53738
0.0321067
1.82159
0.0205415
2.16492
0.0070673
2.58034
-0.00891746
3.08359
-0.0239992
3.08159
-0.0355531
2.57545
-0.045278
2.15916
-0.0541935
1.81577
-0.062113
1.53202
-0.0666206
1.29321
-0.0645846
1.07457
-0.0460852
0.826868
-0.01176
0.487986
0.129409
0.00652561
0.128018
0.0327895
0.470301
0.0489396
0.817783
0.050384
1.07877
0.0452982
1.3036
0.0369702
1.54571
0.0273793
1.83118
0.0165627
2.17574
0.00450975
2.59239
-0.00952413
3.09762
-0.0232688
3.09534
-0.0343604
2.58654
-0.0435131
2.16831
-0.0510583
1.82331
-0.0574387
1.5384
-0.0605361
1.2963
-0.0567918
1.07083
-0.0374881
0.807564
-0.00794737
0.458445
0.121462
0.00466028
0.123358
0.0263855
0.448576
0.042072
0.802096
0.044054
1.07679
0.0392495
1.3084
0.0313981
1.55356
0.0220233
1.84056
0.0111732
2.18659
-0.000677915
2.60424
-0.0136414
3.11058
-0.0252886
3.10698
-0.034696
2.59595
-0.0428655
2.17648
-0.0497693
1.83022
-0.0551385
1.54377
-0.0572747
1.29844
-0.0520968
1.06565
-0.0322565
0.787723
-0.00644274
0.432631
0.115019
0.00368147
0.119676
0.0214642
0.430793
0.0364414
0.787119
0.039075
1.07416
0.0346541
1.31282
0.027267
1.56095
0.0185083
1.84932
0.00857689
2.19652
-0.00268508
2.61551
-0.0152378
3.12314
-0.0270959
3.11884
-0.03661
2.60546
-0.0439119
2.18378
-0.0496478
1.83595
-0.054203
1.54833
-0.0553334
1.29957
-0.048824
1.05914
-0.0286256
0.767525
-0.00585971
0.409865
0.10916
0.00298394
0.116692
0.0173128
0.416464
0.0310751
0.773357
0.0339047
1.07133
0.0296044
1.31712
0.0222644
1.56829
0.0133944
1.85819
0.00294611
2.20697
-0.00877163
2.62722
-0.0206828
3.13505
-0.0309967
3.12916
-0.0389353
2.6134
-0.0454902
2.19034
-0.05084
1.8413
-0.054546
1.55204
-0.0544898
1.29951
-0.0464488
1.0511
-0.0260229
0.747099
-0.00563873
0.389481
0.103521
0.00227206
0.11442
0.013506
0.405231
0.0257997
0.761063
0.028646
1.06848
0.0244743
1.32129
0.0172581
1.5755
0.00870548
1.86674
-0.000780225
2.21646
-0.0112488
2.63769
-0.0234642
3.14726
-0.0346686
3.14036
-0.0427767
2.62151
-0.0483697
2.19593
-0.0524569
1.84539
-0.0550629
1.55464
-0.0543162
1.29877
-0.0448249
1.04161
-0.0241917
0.726466
-0.00552146
0.370811
0.0979993
0.00162962
0.112791
0.0102851
0.396575
0.0209316
0.750416
0.0234533
1.06596
0.0192165
1.32553
0.0120093
1.58271
0.0031956
1.87555
-0.00722101
2.22687
-0.0191786
2.64965
-0.0312864
3.15937
-0.0407232
3.1498
-0.047165
2.62795
-0.0519382
2.20071
-0.0554212
1.84887
-0.0569552
1.55618
-0.0551402
1.29695
-0.044198
1.03067
-0.0231276
0.705396
-0.00550507
0.353188
0.0924943
0.000718788
0.112072
0.00671013
0.390584
0.0154524
0.741674
0.0172744
1.06414
0.0126228
1.33018
0.00498982
1.59034
-0.00409304
1.88464
-0.0139939
2.23677
-0.0243495
2.66001
-0.0356148
3.17064
-0.0456932
3.15988
-0.0522869
2.63454
-0.0560368
2.20446
-0.0586071
1.85144
-0.0592204
1.55679
-0.0563132
1.29405
-0.0439811
1.01833
-0.0224591
0.683874
-0.00547628
0.336206
0.087018
4.11949e-05
0.112031
0.00381142
0.386813
0.010324
0.735161
0.0112362
1.06322
0.00619971
1.33522
-0.00166996
1.59821
-0.0110846
1.89405
-0.0218332
2.24752
-0.0339817
2.67215
-0.0462263
3.18288
-0.0548677
3.16852
-0.0596764
2.63935
-0.0625423
2.20732
-0.0641933
1.85309
-0.0637376
1.55633
-0.0591666
1.28947
-0.0449424
1.00411
-0.0224911
0.661422
-0.00559349
0.319308
0.0814245
-0.000892152
0.112923
0.000298444
0.385623
0.00469157
0.730768
0.00439156
1.06352
-0.00156635
1.34118
-0.0105779
1.60722
-0.0210788
1.90455
-0.03232
2.25876
-0.0435403
2.68337
-0.0541081
3.19345
-0.062191
3.1766
-0.0667872
2.64395
-0.0688841
2.20942
-0.0699973
1.85421
-0.0687475
1.55508
-0.0625255
1.28325
-0.0464101
0.987993
-0.0228935
0.637906
-0.00575555
0.30217
0.0756689
-0.00188719
0.11481
-0.00312624
0.386862
-0.00187126
0.729513
-0.00377249
1.06543
-0.0105421
1.34795
-0.0200646
1.61675
-0.0310269
1.91551
-0.04297
2.27071
-0.0555336
2.69594
-0.0679536
3.20587
-0.0758279
3.18447
-0.0789157
2.64704
-0.0798292
2.21033
-0.0791939
1.85357
-0.0761716
1.55206
-0.0679035
1.27498
-0.0492442
0.969334
-0.0239909
0.612652
-0.00607886
0.284258
0.0695901
-0.00317907
0.117989
-0.00678413
0.390467
-0.00882604
0.731555
-0.0125514
1.06915
-0.0205403
1.35593
-0.0315287
1.62773
-0.0440554
1.92804
-0.0574497
2.2841
-0.070714
2.7092
-0.0812403
3.21639
-0.0869492
3.19018
-0.0896418
2.64973
-0.0898829
2.21057
-0.0887023
1.85239
-0.0848036
1.54816
-0.0741727
1.26435
-0.0527161
0.947877
-0.0254738
0.58541
-0.00647038
0.265255
0.0631197
-0.00458541
0.122575
-0.0112403
0.397122
-0.0168018
0.737117
-0.0235476
1.0759
-0.0328553
1.36524
-0.044981
1.63986
-0.0585222
1.94158
-0.0728528
2.29843
-0.0867364
2.72309
-0.0987706
3.22843
-0.105907
3.19732
-0.1073
2.65112
-0.106022
2.20929
-0.102534
1.8489
-0.0960793
1.54171
-0.0826844
1.25096
-0.0577136
0.922907
-0.0275732
0.55527
-0.00696452
0.244646
0.0561552
-0.0059902
0.128565
-0.0160547
0.407186
-0.0255449
0.746607
-0.0352296
1.08558
-0.0469384
1.37695
-0.0612977
1.65422
-0.0770168
1.9573
-0.0934301
2.31484
-0.109164
2.73882
-0.121356
3.24062
-0.125532
3.2015
-0.125087
2.65068
-0.122026
2.20623
-0.117478
1.84436
-0.109708
1.53394
-0.0926961
1.23395
-0.0633672
0.893578
-0.0299385
0.521841
-0.00747491
0.222182
0.0486803
-0.00828829
0.136853
-0.0230962
0.421994
-0.038181
0.761692
-0.0511548
1.09855
-0.0646468
1.39044
-0.0810985
1.67067
-0.0988548
1.97506
-0.116825
2.33281
-0.132802
2.7548
-0.144051
3.25187
-0.14829
3.20573
-0.147517
2.6499
-0.143716
2.20243
-0.137141
1.83778
-0.125856
1.52265
-0.104834
1.21292
-0.0704506
0.859194
-0.0326601
0.48405
-0.00798517
0.197507
0.0406951
-0.0107968
0.14765
-0.0303279
0.441525
-0.051345
0.782709
-0.0696064
1.11682
-0.0870245
1.40786
-0.106538
1.69018
-0.127034
1.99555
-0.147082
2.35286
-0.164388
2.7721
-0.176029
3.26351
-0.178676
3.20838
-0.174243
2.64547
-0.167078
2.19527
-0.158289
1.82899
-0.144768
1.50913
-0.118411
1.18657
-0.0776057
0.818389
-0.0351079
0.441553
-0.00832434
0.170724
0.0323708
-0.0155266
0.163177
-0.0425862
0.468585
-0.0704788
0.810602
-0.0935825
1.13992
-0.114571
1.42885
-0.137884
1.7135
-0.161167
2.01884
-0.18277
2.37447
-0.199984
2.78932
-0.209637
3.27316
-0.209065
3.20781
-0.203835
2.64024
-0.196299
2.18773
-0.185384
1.81808
-0.166821
1.49057
-0.134218
1.15396
-0.085983
0.770154
-0.0375232
0.393093
-0.00856287
0.141763
0.0238079
-0.0196908
0.182867
-0.055747
0.504641
-0.0934275
0.848282
-0.124249
1.17074
-0.151345
1.45595
-0.179264
1.74142
-0.205551
2.04512
-0.228215
2.39713
-0.244559
2.80566
-0.25141
3.28001
-0.248296
3.2047
-0.239229
2.63117
-0.227145
2.17565
-0.212955
1.80389
-0.190652
1.46827
-0.15001
1.11332
-0.0924846
0.712628
-0.0384953
0.339104
-0.0082465
0.111515
0.0155614
-0.0331517
0.216019
-0.082882
0.554371
-0.131351
0.896751
-0.16911
1.2085
-0.201537
1.48837
-0.233208
1.77309
-0.260072
2.07199
-0.281487
2.41854
-0.294836
2.81901
-0.297715
3.28289
-0.290033
3.19701
-0.277837
2.61898
-0.264945
2.16276
-0.247423
1.78636
-0.217219
1.43806
-0.166825
1.06293
-0.0993912
0.645195
-0.0391865
0.278899
-0.00785792
0.080186
0.00770347
-0.0474595
0.263479
-0.121802
0.628714
-0.186065
0.961013
-0.231973
1.25441
-0.27051
1.52691
-0.303488
1.80607
-0.328665
2.09717
-0.346602
2.43648
-0.355262
2.82767
-0.35163
3.27926
-0.337768
3.18315
-0.321433
2.60264
-0.303004
2.14433
-0.280084
1.76344
-0.242961
1.40094
-0.180302
1.00027
-0.1003
0.565193
-0.0369539
0.215553
-0.00742671
0.0506587
0.000276757
-0.0345556
0.298034
-0.0990818
0.69324
-0.158025
1.01996
-0.206803
1.30319
-0.25175
1.57186
-0.291957
1.84627
-0.330027
2.13524
-0.365217
2.47167
-0.393592
2.85605
-0.412389
3.29806
-0.418114
3.18888
-0.412027
2.59656
-0.400129
2.13243
-0.374611
1.73793
-0.317893
1.34422
-0.223272
0.905648
-0.114072
0.455993
-0.0407884
0.142269
-0.00864949
0.0185198
-0.00837273
-0.0126651
0.310699
-0.0481942
0.728769
-0.091102
1.06286
-0.131509
1.34359
-0.171586
1.61193
-0.208134
1.88282
-0.242902
2.17
-0.273656
2.50243
-0.297409
2.8798
-0.309648
3.31029
-0.305654
3.18488
-0.294718
2.58562
-0.27676
2.11447
-0.245461
1.70663
-0.196104
1.29486
-0.125965
0.835509
-0.0573151
0.387343
-0.0214898
0.106444
-0.00486567
0.00189571
-0.0132384
-0.000384573
0.311084
-0.0238193
0.752204
-0.0538313
1.09288
-0.0855833
1.37535
-0.119004
1.64535
-0.151174
1.91499
-0.180991
2.19982
-0.206681
2.52812
-0.224927
2.89805
-0.231069
3.31644
-0.223909
3.17772
-0.208419
2.57013
-0.187559
2.09361
-0.160706
1.67977
-0.11767
1.25183
-0.0639776
0.781816
-0.025578
0.348944
-0.0110984
0.091964
-0.00317322
-0.00602949
-0.0164116
0.00122738
0.309856
-0.0142007
0.767632
-0.0355504
1.11423
-0.0597886
1.39958
-0.0859323
1.6715
-0.112931
1.94199
-0.138715
2.2256
-0.160568
2.54997
-0.174951
2.91243
-0.177434
3.31892
-0.166732
3.16702
-0.14871
2.55211
-0.125494
2.0704
-0.0930062
1.64729
-0.0570179
1.21584
-0.0247079
0.749506
-0.00820953
0.332445
-0.00470908
0.0884636
-0.00209277
-0.00864579
-0.0185044
0.0052857
0.304571
-0.00234906
0.775267
-0.0210818
1.13296
-0.0431891
1.42169
-0.0662129
1.69452
-0.0889624
1.96474
-0.110371
2.24701
-0.128202
2.5678
-0.139141
2.92337
-0.138389
3.31817
-0.124656
3.15329
-0.10301
2.53046
-0.0762593
2.04365
-0.050308
1.62133
-0.0209523
1.18648
0.00243554
0.726119
0.00622427
0.328657
0.00240414
0.0922837
-2.47022e-05
-0.00621696
-0.0185291
0.00510779
0.299463
-0.000915713
0.78129
-0.0164515
1.14849
-0.0343929
1.43963
-0.0535152
1.71364
-0.0730691
1.98429
-0.0918169
2.26576
-0.107472
2.58346
-0.116376
2.93227
-0.113286
3.31508
-0.0978592
3.13786
-0.0764551
2.50906
-0.0512073
2.0184
-0.0208131
1.59094
0.00413571
1.16154
0.0163928
0.713862
0.0151297
0.32992
0.00733706
0.100076
0.00162318
-0.000503081
-0.0169059
0.00534708
0.294116
0.00190193
0.784735
-0.0109902
1.16139
-0.0279138
1.45656
-0.0457874
1.73152
-0.0635004
2.00201
-0.0801808
2.28244
-0.0937892
2.59706
-0.100929
2.93941
-0.0972868
3.31144
-0.0815971
3.12217
-0.0577727
2.48523
-0.0310434
1.99167
-0.00913768
1.56903
0.0106897
1.14171
0.0220732
0.702478
0.017884
0.334109
0.00906108
0.108899
0.00232271
0.00623528
-0.0145832
0.0027824
0.291333
-0.0002776
0.787795
-0.0115328
1.17264
-0.0259074
1.47093
-0.0416583
1.74727
-0.0577502
2.0181
-0.0731315
2.29782
-0.085905
2.60984
-0.092658
2.94616
-0.0887978
3.30758
-0.0727539
3.10613
-0.0514205
2.4639
-0.0289481
1.9692
-0.00235246
1.54244
0.016336
1.12302
0.0225765
0.696238
0.01853
0.338156
0.0096638
0.117765
0.00262059
0.0132785
-0.0119626
0.00218476
0.289149
1.01067e-05
0.78997
-0.0103964
1.18305
-0.0239823
1.48452
-0.0391771
1.76246
-0.0544206
2.03334
-0.0690374
2.31244
-0.0811945
2.62199
-0.0878919
2.95286
-0.0851003
3.30478
-0.07026
3.09129
-0.0476853
2.44133
-0.0229779
1.94449
-0.00450229
1.52396
0.0120458
1.10647
0.0211008
0.687182
0.0169599
0.342297
0.00915826
0.125567
0.00260962
0.0198271
-0.009353
-0.000448581
0.289597
-0.00405305
0.793575
-0.013009
1.192
-0.02485
1.49636
-0.0386439
1.77626
-0.053021
2.04772
-0.0671148
2.32653
-0.079486
2.63437
-0.0871786
2.96055
-0.0850983
3.3027
-0.0700704
3.07626
-0.0505529
2.42181
-0.0309884
1.92492
-0.00728141
1.50026
0.00965313
1.08954
0.0155295
0.681306
0.0138026
0.344023
0.00765224
0.131717
0.00229673
0.0251826
-0.00705627
-0.000688921
0.290286
-0.00444667
0.797332
-0.0132942
1.20085
-0.0248407
1.5079
-0.0382605
1.78968
-0.0522005
2.06166
-0.0663011
2.34063
-0.0790004
2.64706
-0.0872314
2.96879
-0.0869183
3.30239
-0.0744979
3.06384
-0.0543513
2.40166
-0.0316207
1.90219
-0.0145718
1.48321
0.00102321
1.07394
0.0106941
0.671635
0.00988749
0.34483
0.00591316
0.135692
0.00188838
0.0292074
-0.00516789
-0.00218313
0.292469
-0.00755113
0.8027
-0.0158882
1.20919
-0.0264494
1.51847
-0.038963
1.80219
-0.0524898
2.07518
-0.0664246
2.35457
-0.0794237
2.66006
-0.0889366
2.9783
-0.0904882
3.30394
-0.0784833
3.05184
-0.0611276
2.38431
-0.0430689
1.88413
-0.0204704
1.46061
-0.00375615
1.05723
0.00368556
0.664194
0.00613818
0.342377
0.00403961
0.13779
0.00143648
0.0318105
-0.00373141
-0.00328678
0.295756
-0.00785354
0.807267
-0.0161515
1.21749
-0.026782
1.5291
-0.0391523
1.81456
-0.0523673
2.0884
-0.0663729
2.36857
-0.0799518
2.67364
-0.0907344
2.98908
-0.0947766
3.30798
-0.086331
3.04339
-0.0690386
2.36701
-0.0456793
1.86078
-0.0280578
1.44299
-0.0121302
1.0413
-0.000379065
0.652442
0.00273086
0.339267
0.0025807
0.13794
0.00104363
0.0333476
-0.00268778
-0.00399924
0.299755
-0.00993756
0.813205
-0.0181164
1.22567
-0.0280653
1.53904
-0.0398037
1.8263
-0.052749
2.10134
-0.0667144
2.38254
-0.0807472
2.68768
-0.0929708
3.0013
-0.0989893
3.314
-0.092175
3.03658
-0.0762394
2.35108
-0.057476
1.84201
-0.0329886
1.4185
-0.0142436
1.02256
-0.00423541
0.642434
0.000657582
0.334374
0.00142648
0.137172
0.000790181
0.0339839
-0.0018976
-0.00400019
0.303756
-0.00975737
0.818963
-0.0179886
1.2339
-0.0280274
1.54908
-0.0396981
1.83797
-0.0523961
2.11404
-0.0664617
2.39661
-0.0811451
2.70236
-0.0947274
3.01489
-0.103562
3.32284
-0.101043
3.03406
-0.0858187
2.33585
-0.0605549
1.81675
-0.0385189
1.39646
-0.018607
1.00264
-0.0047632
0.62859
-0.000162723
0.329774
0.000700668
0.136308
-0.000185868
0.0348705
-0.00208347
-0.00418548
0.307941
-0.0109593
0.825736
-0.0191404
1.24208
-0.0286207
1.55856
-0.0397764
1.84913
-0.0523007
2.12657
-0.0664084
2.41071
-0.0814854
2.71744
-0.0962845
3.02969
-0.107107
3.33366
-0.106252
3.0332
-0.0928601
2.32246
-0.0726051
1.79649
-0.0421633
1.36602
-0.0161324
0.976613
-0.00215599
0.614614
0.00527076
0.322347
0.0056256
0.135953
0.00277412
0.0377219
0.00069065
-0.00408475
0.312026
-0.0104604
0.832112
-0.0185156
1.25013
-0.0280528
1.5681
-0.0391637
1.86024
-0.0514866
2.13889
-0.0656139
2.42484
-0.0811865
2.73301
-0.0972087
3.04571
-0.110741
3.34719
-0.114565
3.03703
-0.103057
2.31095
-0.0764438
1.76988
-0.0469505
1.33653
-0.0157745
0.945437
0.00743428
0.591405
0.0146182
0.315163
0.00769833
0.142873
-0.00168097
0.0471012
-0.000990322
-0.0042305
0.316256
-0.0111325
0.839014
-0.0190205
1.25802
-0.0280324
1.57711
-0.0386474
1.87085
-0.0507808
2.15102
-0.0649
2.43896
-0.0807472
2.74886
-0.0976858
3.06265
-0.112831
3.36234
-0.118756
3.04295
-0.109952
2.30215
-0.0896848
1.74961
-0.051619
1.29846
-0.00962422
0.903442
0.0228001
0.558981
0.0453939
0.29257
0.0498664
0.138401
0.0297204
0.0672473
0.0287301
-0.00408695
0.320343
-0.0104525
0.84538
-0.0180815
1.26565
-0.0270618
1.58609
-0.0375751
1.88137
-0.0494724
2.16292
-0.0634798
2.45297
-0.0796224
2.765
-0.0975085
3.08053
-0.11507
3.3799
-0.12552
3.0534
-0.120414
2.29704
-0.0954176
1.72462
-0.058972
1.26202
-0.00955209
0.854022
0.0369717
0.512457
0.0698417
0.259699
0.0566605
0.151582
0.0244629
0.099445
0.0531929
-0.00406189
0.324405
-0.0107513
0.852069
-0.018168
1.27307
-0.0265972
1.59452
-0.0366095
1.89138
-0.0482493
2.17456
-0.0621732
2.46689
-0.0784642
2.78129
-0.096965
3.09903
-0.11577
3.3987
-0.127363
3.06499
-0.126495
2.29618
-0.110965
1.70909
-0.0696982
1.22075
-0.0126985
0.797022
0.0572051
0.442553
0.151408
0.165497
0.211142
0.0918474
0.187725
0.122862
0.240918
-0.00390651
0.328312
-0.0101428
0.858305
-0.0174694
1.28039
-0.0261308
1.60318
-0.0365246
1.90177
-0.0486205
2.18666
-0.0633904
2.48166
-0.0812627
2.79916
-0.102451
3.12022
-0.125996
3.42225
-0.144465
3.08346
-0.149763
2.30147
-0.131156
1.69048
-0.0928217
1.18242
-0.0253741
0.729575
0.0346976
0.382482
-0.0373152
0.23751
-0.351247
0.405779
-0.946346
0.717961
0.902849
-1.60828
-0.00381855
0.33213
-0.0103323
0.864819
-0.0175547
1.28762
-0.0258733
1.6115
-0.0359903
1.91189
-0.0481934
2.19886
-0.0634676
2.49693
-0.0823356
2.81803
-0.105343
3.14323
-0.131951
3.44886
-0.154296
3.10581
-0.164683
2.31186
-0.16448
1.69028
-0.13133
1.14927
-0.0920259
0.690271
-0.19775
0.488205
-0.693988
0.733748
-1.45771
1.1695
-2.06149
1.32174
1.21525
-2.3739
-0.00358811
0.335718
-0.00952644
0.870757
-0.0164775
1.29457
-0.0248259
1.61985
-0.0350429
1.92211
-0.0473815
2.2112
-0.0630251
2.51258
-0.0828156
2.83782
-0.107796
3.16821
-0.138701
3.47976
-0.168825
3.13593
-0.188371
2.33141
-0.187798
1.6897
-0.163563
1.12503
-0.24974
0.776448
-0.752835
0.991301
-1.5638
1.54472
-2.11898
1.72467
-2.35571
1.55848
1.32854
-2.469
-0.00349603
0.339214
-0.0094891
0.87675
-0.0162663
1.30134
-0.0242346
1.62782
-0.0341127
1.93198
-0.0464758
2.22356
-0.0625231
2.52863
-0.0832171
2.85851
-0.109989
3.19498
-0.144262
3.51403
-0.179353
3.17102
-0.20618
2.35823
-0.225212
1.70874
-0.295423
1.19524
-0.670859
1.15188
-1.44953
1.76997
-2.0334
2.12858
-2.27141
1.96269
-2.38357
1.67063
1.39161
-2.44664
-0.0031839
0.342398
-0.00852507
0.882092
-0.0149257
1.30775
-0.0228332
1.63573
-0.0328075
1.94196
-0.0452563
2.23601
-0.0615474
2.54492
-0.0829871
2.87995
-0.1116
3.2236
-0.150233
3.55267
-0.194242
3.21503
-0.233881
2.39787
-0.267291
1.74215
-0.450446
1.3784
-1.09858
1.80002
-1.7963
2.46768
-2.1113
2.44359
-2.25799
2.10939
-2.33966
1.75229
1.45782
-2.40586
-0.003195
0.345593
-0.00879875
0.887695
-0.0152721
1.31422
-0.0230548
1.64351
-0.0330525
1.95196
-0.0457648
2.24872
-0.0626542
2.56181
-0.0851546
2.90245
-0.115637
3.25408
-0.157721
3.59475
-0.207333
3.26464
-0.249979
2.44052
-0.333901
1.82607
-0.735291
1.77979
-1.49501
2.55974
-1.96325
2.93592
-2.16273
2.64307
-2.26846
2.21512
-2.34573
1.82956
1.52086
-2.40877
-0.00324926
0.348842
-0.00870987
0.893156
-0.0154279
1.32094
-0.0238425
1.65192
-0.0346032
1.96272
-0.0480616
2.26218
-0.0657979
2.57954
-0.0895345
2.92619
-0.122192
3.28674
-0.168871
3.64143
-0.22519
3.32096
-0.284217
2.49955
-0.469394
2.01124
-1.04506
2.35545
-1.68125
3.19593
-1.95221
3.20688
-2.09833
2.78919
-2.21217
2.32897
-2.30591
1.92329
1.58236
-2.36741
-0.00339274
0.352235
-0.00966107
0.899424
-0.0169313
1.32821
-0.0255802
1.66057
-0.0365573
1.97369
-0.0505646
2.27619
-0.0692575
2.59824
-0.0944387
2.95137
-0.129194
3.32149
-0.17942
3.69166
-0.240268
3.38181
-0.323127
2.5824
-0.606988
2.29511
-1.26387
3.01233
-1.74979
3.68185
-1.95684
3.41392
-2.09584
2.9282
-2.21983
2.45296
-2.32992
2.03337
1.64105
-2.38861
-0.00332421
0.355559
-0.00928743
0.905388
-0.0168419
1.33576
-0.0263248
1.67006
-0.0382652
1.98563
-0.0531539
2.29108
-0.0727775
2.61786
-0.099224
2.97782
-0.136122
3.35839
-0.19037
3.7459
-0.257897
3.44934
-0.380899
2.70541
-0.769785
2.68399
-1.4096
3.65215
-1.75895
4.0312
-1.93129
3.58626
-2.03283
3.02973
-2.12154
2.54167
-2.18805
2.09988
1.63363
-2.18063
-0.00335374
0.358913
-0.0103419
0.912376
-0.0185988
1.34402
-0.0282818
1.67974
-0.0403787
1.99773
-0.0557864
2.30648
-0.0763914
2.63846
-0.104352
3.00578
-0.143309
3.39735
-0.199621
3.80221
-0.276047
3.52576
-0.445217
2.87458
-0.902307
3.14108
-1.4594
4.20924
-1.71952
4.29133
-1.87064
3.73738
-1.96435
3.12345
-1.96491
2.54223
-1.89479
2.02976
1.59548
-1.85664
-0.00312997
0.362043
-0.00948315
0.918729
-0.0178954
1.35243
-0.0284925
1.69034
-0.0416287
2.01087
-0.0578141
2.32267
-0.0789382
2.65959
-0.107282
3.03412
-0.146863
3.43693
-0.203625
3.85898
-0.288867
3.61101
-0.492272
3.07798
-0.985553
3.63436
-1.42559
4.64928
-1.58984
4.45557
-1.6564
3.80394
-1.66078
3.12782
-1.51323
2.39468
-1.01418
1.53072
0.581299
-0.00274672
0.36479
-0.0104613
0.926443
-0.0197635
1.36173
-0.0305898
1.70116
-0.0440566
2.02433
-0.0612073
2.33982
-0.0841646
2.68255
-0.115417
3.06538
-0.159081
3.48059
-0.221719
3.92161
-0.323766
3.71305
-0.577815
3.33203
-1.1205
4.17705
-1.4773
5.00608
-1.57601
4.55428
-1.57415
3.80209
-1.47073
3.0244
-1.23219
2.15613
-0.629644
0.928174
-0.0483454
-0.0024556
0.367245
-0.00874158
0.932729
-0.0179709
1.37096
-0.0301002
1.71329
-0.0453405
2.03957
-0.0642907
2.35877
-0.0892629
2.70752
-0.123078
3.09919
-0.171107
3.52862
-0.241056
3.99156
-0.363688
3.83569
-0.67767
3.64601
-1.23844
4.73781
-1.49691
5.26455
-1.55591
4.61328
-1.53374
3.77992
-1.33224
2.8229
-0.780304
1.6042
-0.108302
0.256172
-0.156647
-0.00148899
0.368734
-0.00937189
0.940612
-0.0195926
1.38118
-0.0317633
1.72546
-0.0469758
2.05479
-0.0666232
2.37842
-0.0933345
2.73423
-0.130229
3.13608
-0.182134
3.58053
-0.25915
4.06858
-0.407313
3.98385
-0.779769
4.01847
-1.31534
5.27338
-1.49129
5.44051
-1.52195
4.64394
-1.43421
3.69217
-1.0986
2.48729
-0.312242
0.817843
0.0247446
-0.0808148
-0.131903
-0.000960646
0.369695
-0.00615693
0.945809
-0.0157467
1.39077
-0.0293063
1.73902
-0.0464968
2.07198
-0.0681534
2.40007
-0.0970057
2.76308
-0.136215
3.17529
-0.191275
3.63559
-0.277852
4.15516
-0.452323
4.15832
-0.890058
4.4562
-1.36035
5.74367
-1.47526
5.55542
-1.47855
4.64723
-1.25516
3.46878
-0.684794
1.91692
-0.0630539
0.196103
0.0300082
-0.173877
-0.101895
0.000105901
0.369589
-0.00592514
0.95184
-0.0163413
1.40119
-0.0296857
1.75237
-0.046153
2.08844
-0.0680767
2.422
-0.0982059
2.79321
-0.139981
3.21707
-0.198133
3.69374
-0.293084
4.25011
-0.493848
4.35908
-0.981201
4.94356
-1.35395
6.11642
-1.4199
5.62137
-1.3737
4.60103
-1.08583
3.18091
-0.32323
1.15432
0.00339968
-0.130527
0.0141428
-0.18462
-0.0877518
0.00330383
0.366285
0.00101382
0.95413
-0.00898277
1.41119
-0.0236764
1.76706
-0.0420661
2.10683
-0.0661907
2.44612
-0.0983372
2.82536
-0.141781
3.26051
-0.202824
3.75478
-0.306728
4.35401
-0.53278
4.58514
-1.044
5.45478
-1.31968
6.39209
-1.3584
5.66009
-1.21996
4.46259
-0.770614
2.73157
-0.0699988
0.453707
0.0435692
-0.244095
0.0237231
-0.164774
-0.0640287
0.00427705
0.362008
0.00229901
0.956108
-0.00761887
1.4211
-0.0210809
1.78052
-0.0377923
2.12355
-0.0614824
2.46981
-0.0938819
2.85776
-0.139022
3.30565
-0.202539
3.8183
-0.313614
4.46509
-0.570508
4.84203
-1.06461
5.94888
-1.25325
6.58074
-1.26438
5.67122
-1.0465
4.2447
-0.46011
2.14518
-0.0183642
0.0119616
-0.00668958
-0.255769
0.00478264
-0.176246
-0.059246
0.00871701
0.353291
0.0106858
0.954139
0.00466134
1.42713
-0.00860595
1.79379
-0.0276502
2.14259
-0.0531594
2.49532
-0.0870076
2.8916
-0.132581
3.35123
-0.197791
3.88351
-0.315741
4.58304
-0.592385
5.11867
-1.04201
6.3985
-1.16748
6.70621
-1.1506
5.65434
-0.891559
3.98566
-0.2653
1.51892
-0.0706452
-0.182693
-0.0389502
-0.287464
-0.014482
-0.200714
-0.073728
0.0112969
0.341994
0.0158814
0.949554
0.0107809
1.43223
0.000712311
1.80386
-0.0168796
2.16018
-0.0401526
2.51859
-0.072449
2.9239
-0.118013
3.39679
-0.183735
3.94923
-0.304785
4.70409
-0.590863
5.40475
-0.977917
6.78555
-1.04016
6.76845
-0.973928
5.58811
-0.676529
3.68826
-0.0722879
0.914682
0.0138585
-0.268839
-0.000858203
-0.272748
-0.00214032
-0.199432
-0.0758684
0.0185158
0.323479
0.0308372
0.937233
0.0309075
1.43216
0.0205381
1.81423
0.00303859
2.17768
-0.0202724
2.54191
-0.052894
2.95652
-0.0973008
3.4412
-0.161521
4.01345
-0.282801
4.82537
-0.559561
5.68151
-0.86515
7.09114
-0.902982
6.80629
-0.798302
5.48343
-0.440978
3.33094
0.0686
0.405103
0.0800082
-0.280248
0.0597722
-0.252512
0.0222029
-0.161863
-0.0536655
0.0242475
0.299231
0.0423631
0.919117
0.04537
1.42915
0.0389889
1.82061
0.0272501
2.18942
0.00688954
2.56227
-0.0218622
2.98527
-0.063084
3.48242
-0.124237
4.0746
-0.238924
4.94005
-0.486926
5.92951
-0.708465
7.31268
-0.732424
6.83025
-0.6348
5.3858
-0.300228
2.99637
0.0108131
0.0940623
0.0257081
-0.295143
0.0360436
-0.262847
0.0170633
-0.142883
-0.0366022
0.0351855
0.264046
0.0661082
0.888194
0.07873
1.41653
0.0764081
1.82293
0.0656941
2.20013
0.0461127
2.58185
0.0184618
3.01293
-0.0199157
3.5208
-0.0748604
4.12955
-0.174548
5.03974
-0.37413
6.12909
-0.527995
7.46655
-0.553526
6.85578
-0.458785
5.29106
-0.191796
2.72938
-0.07537
-0.0223638
-0.0522868
-0.318226
-0.0185717
-0.296562
0.000178741
-0.161633
-0.0364234
0.0446974
0.219348
0.0874181
0.845474
0.107692
1.39626
0.112597
1.81802
0.109151
2.20358
0.0961601
2.59484
0.0761684
3.03292
0.044882
3.55208
-0.00623826
4.18067
-0.0801863
5.11369
-0.217897
6.26681
-0.307257
7.55591
-0.317306
6.86583
-0.260519
5.23427
-0.107306
2.57617
-0.11468
-0.0149898
-0.0929118
-0.339994
-0.056908
-0.332566
-0.0157294
-0.202812
-0.0521529
0.0580104
0.161338
0.12159
0.781894
0.160261
1.35758
0.174208
1.80408
0.174733
2.20306
0.164288
2.60528
0.148399
3.04881
0.125152
3.57533
0.0901015
4.21572
0.0407608
5.16303
-0.0122471
6.31981
-0.0423654
7.58603
-0.0410625
6.86452
-0.00344479
5.19666
0.0346423
2.53808
-0.122883
0.142535
-0.127457
-0.335419
-0.0816146
-0.378408
-0.0139281
-0.270498
-0.066081
0.0597144
0.101623
0.151251
0.690357
0.208654
1.30018
0.236385
1.77635
0.248652
2.19079
0.249017
2.60492
0.243476
3.05435
0.231793
3.58701
0.212532
4.23498
0.190666
5.1849
0.231885
6.27859
0.287027
7.53088
0.324012
6.82754
0.291376
5.22929
0.130709
2.69875
-0.132435
0.405679
-0.206202
-0.261652
-0.143383
-0.441227
-0.0374371
-0.376444
-0.103518
0.0488886
0.0527348
0.184763
0.554483
0.283092
1.20185
0.331752
1.72768
0.352694
2.16985
0.360407
2.59721
0.358454
3.0563
0.359253
3.58621
0.361073
4.23316
0.373231
5.17274
0.522369
6.12946
0.660309
7.39294
0.666709
6.82114
0.451383
5.44462
-0.0393378
3.18947
-0.403912
0.770253
-0.460182
-0.205382
-0.360764
-0.540646
-0.179332
-0.557876
-0.28285
0.0341194
0.0186154
0.218949
0.369654
0.348527
1.07228
0.427774
1.64844
0.469799
2.12782
0.494852
2.57215
0.504546
3.04661
0.51817
3.57259
0.540541
4.21079
0.592124
5.12116
0.807672
5.91391
1.12706
7.07356
1.25306
6.69514
1.24789
5.44979
0.746905
3.69045
0.0162541
1.5009
-0.403418
0.21429
-0.497091
-0.446972
-0.27719
-0.777777
-0.56004
0.0303222
-0.0117069
0.232863
0.167113
0.451737
0.853402
0.572372
1.5278
0.627541
2.07265
0.658813
2.54088
0.678366
3.02705
0.702144
3.54881
0.748859
4.16407
0.846315
5.0237
1.16988
5.59034
1.737
6.50644
2.07096
6.36118
2.32208
5.19867
2.2253
3.78723
1.44622
2.27998
0.717847
0.942665
0.205358
0.0655165
-0.0210193
-0.5514
-0.581059
0.0226878
-0.0343947
0.154272
0.0355281
0.493784
0.51389
0.694875
1.32671
0.801604
1.96592
0.857366
2.48512
0.894781
2.98964
0.919253
3.52434
0.980973
4.10235
1.1058
4.89888
1.4774
5.21873
2.239
5.74484
2.62089
5.9793
2.80014
5.01942
2.65555
3.93182
2.15489
2.78063
1.501
1.59656
0.928118
0.638396
0.35083
0.0258885
-0.230229
0.00153276
-0.0359275
0.0754254
-0.0383646
0.407474
0.181841
0.722474
1.01171
0.869677
1.81872
0.907894
2.4469
0.916154
2.98138
0.90052
3.53997
0.898571
4.1043
0.933291
4.86416
1.09521
5.05681
1.53855
5.3015
1.71433
5.80352
1.75936
4.9744
1.67131
4.01987
1.41355
3.03839
1.00315
2.00697
0.584723
1.05682
0.248206
0.362405
0.0179774
0.00414841
-0.0400759
0.0420196
-0.0762358
0.202176
0.021685
0.549348
0.66454
0.735568
1.6325
0.803738
2.37873
0.816895
2.96822
0.810205
3.54666
0.792967
4.12154
0.811963
4.84516
0.894839
4.97393
1.20624
4.9901
1.38749
5.62227
1.40513
4.95676
1.34898
4.07601
1.18453
3.20284
0.894718
2.29678
0.564729
1.38681
0.234167
0.692967
0.252145
-0.000545718
-0.0395302
0.00907302
-0.0858545
0.0760124
-0.0452544
0.376424
0.364128
0.592918
1.41601
0.694409
2.27724
0.718187
2.94444
0.716366
3.54848
0.687545
4.15036
0.682646
4.85006
0.713083
4.9435
0.903639
4.79954
1.07672
5.44919
1.07846
4.95502
1.02508
4.12939
0.901183
3.32674
0.691485
2.50648
0.429321
1.64897
0.174979
0.947309
0.427124
-0.0053888
-0.0341413
-0.00458254
-0.0866608
0.0294198
-0.0792567
0.239257
0.154291
0.471122
1.18414
0.573716
2.17465
0.602298
2.91586
0.605777
3.545
0.577365
4.17877
0.552479
4.87495
0.555928
4.94005
0.664739
4.69073
0.805239
5.30869
0.795332
4.96493
0.73835
4.18637
0.642083
3.42301
0.493687
2.65488
0.303075
1.83958
0.116498
1.13389
0.543622
0.000951927
-0.0350933
0.0123721
-0.098081
0.0436911
-0.110576
0.15276
0.0452218
0.359422
0.977481
0.474719
2.05935
0.501397
2.88918
0.495554
3.55085
0.46972
4.20461
0.442344
4.90232
0.426899
4.95549
0.487206
4.63042
0.582686
5.21321
0.572259