/*--------------------------------*- C++ -*----------------------------------*\
  =========                 |
  \\      /  F ield         | OpenFOAM: The Open Source CFD Toolbox
   \\    /   O peration     | Website:  https://openfoam.org
    \\  /    A nd           | Version:  10
     \\/     M anipulation  |
\*---------------------------------------------------------------------------*/
FoamFile
{
    format      ascii;
    class       volVectorField;
    location    "72";
    object      U;
}
// * * * * * * * * * * * * * * * * * * * * * * * * * * * * * * * * * * * * * //

dimensions      [0 1 -1 0 0 0 0];

internalField   nonuniform List<vector> 
2200
(
(0.878837 -0.0304119 0)
(1.00578 -0.0512782 0)
(1.00327 -0.0353984 0)
(1.00022 -0.0244304 0)
(0.999843 -0.0166483 0)
(1.00003 -0.0107145 0)
(1.00002 -0.00682595 0)
(0.999958 -0.00415773 0)
(0.999833 -0.00214672 0)
(1.00018 -0.000629679 0)
(0.999982 0.00122325 0)
(1.00028 0.00273037 0)
(1.00039 0.0045302 0)
(1.00025 0.00713982 0)
(1.00005 0.0108528 0)
(0.999963 0.0166742 0)
(1.0003 0.0243848 0)
(1.00346 0.034873 0)
(1.00598 0.0513826 0)
(0.879041 0.030297 0)
(0.712031 -0.0327601 0)
(0.996648 -0.0630033 0)
(1.03334 -0.0561313 0)
(1.02496 -0.0464098 0)
(1.01593 -0.0361063 0)
(1.00965 -0.0263681 0)
(1.00594 -0.0181206 0)
(1.00386 -0.0114552 0)
(1.00281 -0.00609609 0)
(1.00232 -0.00167478 0)
(1.00223 0.00245138 0)
(1.00221 0.006915 0)
(1.00322 0.0123955 0)
(1.00551 0.0189195 0)
(1.00944 0.0272273 0)
(1.01555 0.0369699 0)
(1.02463 0.0474656 0)
(1.03315 0.0579899 0)
(0.996696 0.0631486 0)
(0.711784 0.0330358 0)
(0.535581 -0.0238899 0)
(0.969937 -0.0569171 0)
(1.05643 -0.0547199 0)
(1.0522 -0.0487136 0)
(1.03622 -0.0403701 0)
(1.02448 -0.0321843 0)
(1.01589 -0.0239023 0)
(1.01026 -0.0159633 0)
(1.00686 -0.00862293 0)
(1.00534 -0.00186461 0)
(1.00526 0.00436002 0)
(1.00719 0.0109082 0)
(1.0105 0.0177683 0)
(1.01575 0.0255036 0)
(1.02404 0.0334805 0)
(1.03608 0.0414585 0)
(1.05216 0.0494508 0)
(1.05629 0.0533118 0)
(0.969177 0.057666 0)
(0.534328 0.0239437 0)
(0.392437 -0.0136364 0)
(0.911934 -0.0463652 0)
(1.05756 -0.0468171 0)
(1.06969 -0.0442678 0)
(1.05495 -0.0381158 0)
(1.03937 -0.031449 0)
(1.02764 -0.0246376 0)
(1.01929 -0.0174554 0)
(1.01411 -0.00999386 0)
(1.01154 -0.00252427 0)
(1.01132 0.00511642 0)
(1.0131 0.0125734 0)
(1.018 0.0199925 0)
(1.02652 0.0267565 0)
(1.03849 0.033151 0)
(1.05396 0.0395768 0)
(1.06818 0.0456465 0)
(1.05545 0.0483077 0)
(0.909873 0.0469951 0)
(0.389861 0.0137813 0)
(0.307856 -0.00451057 0)
(0.846836 -0.03236 0)
(1.0494 -0.0398922 0)
(1.07944 -0.0381161 0)
(1.06823 -0.0334312 0)
(1.05176 -0.0277904 0)
(1.03832 -0.0223849 0)
(1.02793 -0.01626 0)
(1.02064 -0.00926614 0)
(1.0166 -0.00151048 0)
(1.01658 0.00622926 0)
(1.02059 0.0134755 0)
(1.02759 0.0197431 0)
(1.03732 0.0254903 0)
(1.05017 0.0304498 0)
(1.06662 0.0357836 0)
(1.07767 0.040119 0)
(1.0472 0.0418012 0)
(0.842852 0.0330008 0)
(0.30362 0.00474418 0)
(0.264518 0.000105601 0)
(0.789328 -0.0200426 0)
(1.03369 -0.031403 0)
(1.08381 -0.0319485 0)
(1.07746 -0.0286552 0)
(1.06093 -0.0237751 0)
(1.04736 -0.0192744 0)
(1.03663 -0.0142248 0)
(1.02904 -0.00821922 0)
(1.02469 -0.00126996 0)
(1.02407 0.00620451 0)
(1.02724 0.0130464 0)
(1.03427 0.0188578 0)
(1.04493 0.0233067 0)
(1.0586 0.027232 0)
(1.07484 0.0316131 0)
(1.08026 0.0343403 0)
(1.02908 0.0334122 0)
(0.782404 0.020778 0)
(0.258559 0.000128674 0)
(0.240596 0.00107303 0)
(0.73867 -0.0122499 0)
(1.01384 -0.0249188 0)
(1.08411 -0.0266619 0)
(1.08311 -0.0243305 0)
(1.06792 -0.0201217 0)
(1.05433 -0.0160754 0)
(1.04331 -0.0114491 0)
(1.03486 -0.00596603 0)
(1.02965 0.00051654 0)
(1.02942 0.0071505 0)
(1.03392 0.0128752 0)
(1.04161 0.0174253 0)
(1.05173 0.0214242 0)
(1.06464 0.0247971 0)
(1.07934 0.0282515 0)
(1.07981 0.0298011 0)
(1.00735 0.0273099 0)
(0.728568 0.0131777 0)
(0.232838 -0.000829622 0)
(0.226399 0.000966574 0)
(0.696105 -0.00799666 0)
(0.993601 -0.0206409 0)
(1.08262 -0.0229693 0)
(1.08714 -0.0211102 0)
(1.07359 -0.0175726 0)
(1.0601 -0.0137627 0)
(1.04955 -0.00951872 0)
(1.04178 -0.00457265 0)
(1.03702 0.0010766 0)
(1.03595 0.00712475 0)
(1.03893 0.0125455 0)
(1.04565 0.0169919 0)
(1.05569 0.020307 0)
(1.06914 0.0232726 0)
(1.08183 0.0259564 0)
(1.07546 0.026929 0)
(0.982985 0.0235451 0)
(0.681339 0.00916952 0)
(0.216322 -0.000705093 0)
(0.216849 0.000629526 0)
(0.660693 -0.00562744 0)
(0.972979 -0.0175219 0)
(1.07973 -0.0200582 0)
(1.09042 -0.0184231 0)
(1.07841 -0.0151861 0)
(1.06505 -0.011458 0)
(1.05451 -0.0071274 0)
(1.04635 -0.00219745 0)
(1.04092 0.00323247 0)
(1.0402 0.00851665 0)
(1.044 0.0130781 0)
(1.05074 0.0166594 0)
(1.06004 0.0199603 0)
(1.07237 0.02263 0)
(1.08321 0.0247871 0)
(1.07067 0.0251787 0)
(0.958804 0.0211392 0)
(0.641074 0.00712692 0)
(0.204135 -0.000326461 0)
(0.209836 0.000306446 0)
(0.632523 -0.0041536 0)
(0.954521 -0.0148676 0)
(1.07703 -0.0177273 0)
(1.09382 -0.0163607 0)
(1.08326 -0.0134231 0)
(1.06975 -0.0098002 0)
(1.05922 -0.00577591 0)
(1.05147 -0.00117666 0)
(1.0466 0.0038854 0)
(1.04501 0.0091868 0)
(1.04712 0.01373 0)
(1.05299 0.0174799 0)
(1.06234 0.0201136 0)
(1.07538 0.0224667 0)
(1.08418 0.0241201 0)
(1.06352 0.0240757 0)
(0.93384 0.0192963 0)
(0.605896 0.00599692 0)
(0.193565 5.15785e-05 0)
(0.204045 9.3737e-05 0)
(0.60928 -0.00310078 0)
(0.936551 -0.0124244 0)
(1.07377 -0.0154 0)
(1.09707 -0.0141902 0)
(1.08798 -0.0113341 0)
(1.07451 -0.00770495 0)
(1.0638 -0.00348771 0)
(1.05566 0.00142522 0)
(1.05002 0.00660013 0)
(1.04844 0.0111421 0)
(1.05116 0.0150978 0)
(1.05705 0.0181018 0)
(1.06584 0.0208492 0)
(1.07767 0.0228935 0)
(1.08436 0.0241103 0)
(1.05659 0.0233258 0)
(0.909734 0.0178091 0)
(0.575301 0.00536534 0)
(0.18379 0.000336104 0)
(0.19969 2.6107e-05 0)
(0.591542 -0.00220161 0)
(0.921613 -0.0100441 0)
(1.07122 -0.0130942 0)
(1.10067 -0.0119629 0)
(1.09297 -0.00919459 0)
(1.07928 -0.00554901 0)
(1.06823 -0.00164081 0)
(1.05976 0.00272836 0)
(1.05404 0.00745941 0)
(1.05169 0.012638 0)
(1.05313 0.0167149 0)
(1.05841 0.019796 0)
(1.0675 0.0217074 0)
(1.07998 0.0234289 0)
(1.08402 0.0242438 0)
(1.04731 0.022875 0)
(0.884849 0.0166613 0)
(0.547299 0.0050099 0)
(0.174158 0.000506923 0)
(0.196187 3.62679e-05 0)
(0.576958 -0.00150691 0)
(0.907223 -0.00794867 0)
(1.06846 -0.010859 0)
(1.10429 -0.00971121 0)
(1.09813 -0.00690704 0)
(1.08444 -0.00329095 0)
(1.07305 0.000876651 0)
(1.06419 0.0057918 0)
(1.05802 0.0112365 0)
(1.05528 0.0156159 0)
(1.05673 0.0189968 0)
(1.06197 0.0213535 0)
(1.07042 0.0233105 0)
(1.08123 0.0244936 0)
(1.08315 0.0248437 0)
(1.03786 0.022861 0)
(0.860287 0.0158917 0)
(0.521582 0.00487827 0)
(0.164735 0.000599438 0)
(0.194284 7.17752e-05 0)
(0.566892 -0.000675955 0)
(0.896299 -0.00569413 0)
(1.06649 -0.00826663 0)
(1.10812 -0.00691685 0)
(1.10329 -0.00395969 0)
(1.08949 -9.16888e-05 0)
(1.07776 0.00396911 0)
(1.06834 0.00844608 0)
(1.06102 0.012901 0)
(1.05732 0.0176247 0)
(1.05798 0.0212493 0)
(1.06263 0.0236036 0)
(1.07141 0.0247702 0)
(1.08235 0.02571 0)
(1.08097 0.0255719 0)
(1.02568 0.0230325 0)
(0.834519 0.0154153 0)
(0.496674 0.00482503 0)
(0.155229 0.00062962 0)
(0.193606 0.000109928 0)
(0.559707 -0.000142453 0)
(0.886554 -0.00361837 0)
(1.06512 -0.00573806 0)
(1.11231 -0.00418494 0)
(1.10901 -0.00105055 0)
(1.09528 0.00281168 0)
(1.083 0.00709726 0)
(1.0729 0.0120431 0)
(1.06551 0.0176466 0)
(1.06139 0.0219938 0)
(1.06139 0.0248835 0)
(1.06571 0.0264608 0)
(1.07368 0.027538 0)
(1.08203 0.0278027 0)
(1.07812 0.0271821 0)
(1.01309 0.0238664 0)
(0.808482 0.0153873 0)
(0.472563 0.00492929 0)
(0.145752 0.000657208 0)
(0.194316 7.21488e-05 0)
(0.555869 0.000925001 0)
(0.880424 -0.00144477 0)
(1.06473 -0.00293485 0)
(1.11695 -0.000928787 0)
(1.11481 0.00253544 0)
(1.10085 0.00695571 0)
(1.08829 0.01159 0)
(1.07776 0.0165692 0)
(1.06871 0.0211678 0)
(1.06293 0.0252854 0)
(1.06203 0.0279687 0)
(1.06541 0.0294835 0)
(1.07339 0.0300503 0)
(1.08201 0.0302198 0)
(1.07332 0.02906 0)
(0.997319 0.0248591 0)
(0.780701 0.0156577 0)
(0.448039 0.00509669 0)
(0.135933 0.000672276 0)
(0.196646 0.000324049 0)
(0.556421 0.00160746 0)
(0.876412 0.00102587 0)
(1.06599 0.000435789 0)
(1.12234 0.00278533 0)
(1.12141 0.00656504 0)
(1.10738 0.0110926 0)
(1.09399 0.0160351 0)
(1.08216 0.02131 0)
(1.07247 0.0268192 0)
(1.06661 0.0314484 0)
(1.06479 0.0336707 0)
(1.0677 0.0343218 0)
(1.0749 0.0345856 0)
(1.0798 0.0337539 0)
(1.06753 0.0318355 0)
(0.980679 0.0266917 0)
(0.751824 0.0163551 0)
(0.42306 0.00541699 0)
(0.125792 0.000699854 0)
(0.201044 0.000687993 0)
(0.559495 0.00246009 0)
(0.877249 0.00364853 0)
(1.06878 0.00376433 0)
(1.12861 0.00689281 0)
(1.12863 0.01112 0)
(1.11417 0.0164277 0)
(1.10028 0.0219802 0)
(1.08816 0.0278677 0)
(1.07736 0.0332863 0)
(1.06843 0.0364474 0)
(1.06494 0.0382024 0)
(1.06632 0.0390205 0)
(1.07282 0.0385638 0)
(1.07841 0.0378651 0)
(1.05957 0.0351935 0)
(0.959986 0.0287013 0)
(0.72013 0.0173998 0)
(0.39646 0.00581659 0)
(0.114933 0.000720054 0)
(0.207935 0.000914031 0)
(0.567235 0.00366444 0)
(0.881766 0.00616571 0)
(1.07408 0.00822165 0)
(1.13582 0.011858 0)
(1.13678 0.0167113 0)
(1.12194 0.0223909 0)
(1.10699 0.0285197 0)
(1.09292 0.0346293 0)
(1.07972 0.0402255 0)
(1.07062 0.0445833 0)
(1.06677 0.046407 0)
(1.06795 0.0461576 0)
(1.07333 0.0453415 0)
(1.07365 0.0432713 0)
(1.04977 0.0394007 0)
(0.937789 0.0317505 0)
(0.686322 0.0188627 0)
(0.368257 0.00632072 0)
(0.10341 0.000740878 0)
(0.216532 0.00108487 0)
(0.578456 0.00492712 0)
(0.890245 0.00920899 0)
(1.08204 0.0126152 0)
(1.14455 0.0175436 0)
(1.14601 0.0232322 0)
(1.13031 0.0299868 0)
(1.11431 0.0368719 0)
(1.09939 0.0440086 0)
(1.08531 0.0502121 0)
(1.07332 0.0539495 0)
(1.06633 0.0542339 0)
(1.06499 0.0537198 0)
(1.06891 0.0517342 0)
(1.07027 0.0496129 0)
(1.03728 0.0447877 0)
(0.909976 0.0350078 0)
(0.64786 0.020635 0)
(0.337135 0.00684975 0)
(0.0908784 0.000751961 0)
(0.229387 0.00141888 0)
(0.597638 0.00687513 0)
(0.905941 0.0137326 0)
(1.09363 0.0190688 0)
(1.15526 0.0246083 0)
(1.15687 0.0313711 0)
(1.14018 0.038953 0)
(1.12264 0.0467354 0)
(1.10522 0.054192 0)
(1.08784 0.0603125 0)
(1.07317 0.0634758 0)
(1.06637 0.0642645 0)
(1.0653 0.0632533 0)
(1.06809 0.0609892 0)
(1.06212 0.0574447 0)
(1.02159 0.0507621 0)
(0.87941 0.0394206 0)
(0.606094 0.0227275 0)
(0.303593 0.00738725 0)
(0.0776064 0.000751329 0)
(0.245379 0.00201816 0)
(0.621746 0.00869021 0)
(0.927747 0.0182976 0)
(1.10959 0.025988 0)
(1.16826 0.0335983 0)
(1.16937 0.0416124 0)
(1.15077 0.0505599 0)
(1.13108 0.0593063 0)
(1.11148 0.0676019 0)
(1.0921 0.0740882 0)
(1.0758 0.0774252 0)
(1.06546 0.0767509 0)
(1.06087 0.0741196 0)
(1.06109 0.0704144 0)
(1.05543 0.0661138 0)
(1.00247 0.0582202 0)
(0.841213 0.0438014 0)
(0.557357 0.0248297 0)
(0.266208 0.00777367 0)
(0.0633713 0.000723679 0)
(0.267767 0.00285583 0)
(0.654988 0.0125385 0)
(0.956711 0.0251256 0)
(1.1299 0.0356725 0)
(1.18423 0.0443883 0)
(1.18421 0.0544533 0)
(1.16342 0.0646409 0)
(1.14115 0.0744673 0)
(1.11831 0.0831431 0)
(1.09506 0.0893172 0)
(1.07468 0.0913434 0)
(1.06278 0.0894978 0)
(1.05904 0.0869612 0)
(1.05839 0.0830097 0)
(1.04286 0.0769268 0)
(0.977834 0.0663229 0)
(0.798199 0.0494162 0)
(0.50419 0.0270911 0)
(0.226471 0.00802649 0)
(0.0488445 0.000703444 0)
(0.299614 0.00378604 0)
(0.701442 0.0156561 0)
(0.997114 0.033418 0)
(1.15721 0.0473171 0)
(1.20381 0.0590064 0)
(1.20105 0.071269 0)
(1.17628 0.0832945 0)
(1.15028 0.0940278 0)
(1.12388 0.102893 0)
(1.09737 0.108195 0)
(1.07456 0.10893 0)
(1.06083 0.106349 0)
(1.05274 0.101549 0)
(1.04815 0.0953308 0)
(1.03063 0.0881408 0)
(0.94855 0.075506 0)
(0.744737 0.0542431 0)
(0.441233 0.0285178 0)
(0.182936 0.00781175 0)
(0.0338478 0.00059692 0)
(0.336571 0.00717613 0)
(0.759774 0.0251792 0)
(1.04593 0.047113 0)
(1.18989 0.0656715 0)
(1.22723 0.0790228 0)
(1.22009 0.0941238 0)
(1.19091 0.106909 0)
(1.16098 0.117666 0)
(1.13025 0.125541 0)
(1.09925 0.129502 0)
(1.07271 0.128878 0)
(1.05555 0.123866 0)
(1.04825 0.117948 0)
(1.04265 0.111482 0)
(1.01114 0.101686 0)
(0.910011 0.0848601 0)
(0.683704 0.059813 0)
(0.375132 0.029847 0)
(0.139687 0.00740555 0)
(0.0204675 0.000565821 0)
(0.417606 0.0109378 0)
(0.848521 0.03583 0)
(1.11448 0.0682106 0)
(1.23149 0.0910537 0)
(1.25516 0.107314 6.099e-34)
(1.24104 0.124685 -2.75904e-34)
(1.20515 0.137767 0)
(1.16981 0.14754 0)
(1.13433 0.153891 0)
(1.0994 0.15528 0)
(1.06959 0.150886 0)
(1.0515 0.143679 0)
(1.04001 0.136177 0)
(1.02757 0.126628 0)
(0.989901 0.114629 0)
(0.864976 0.0943476 0)
(0.608869 0.0630355 0)
(0.295129 0.0285531 0)
(0.0913585 0.00668619 0)
(0.00624865 0.000711513 0)
(0.489555 0.0260902 4.41522e-20)
(0.950975 0.0609229 -3.34828e-20)
(1.18382 0.102742 0)
(1.27293 0.130249 2.62121e-20)
(1.28408 0.14666 -2.12553e-20)
(1.26029 0.165606 2.91108e-34)
(1.21772 0.176504 0)
(1.17758 0.184062 1.55999e-20)
(1.13695 0.187437 -5.12701e-20)
(1.09671 0.185574 1.04919e-20)
(1.06346 0.179199 0)
(1.04183 0.170085 -2.67617e-20)
(1.03035 0.159704 -3.22816e-20)
(1.01563 0.149583 5.65848e-20)
(0.951892 0.133372 -4.46914e-20)
(0.789613 0.104097 0)
(0.500108 0.0645754 -1.60454e-20)
(0.201778 0.0259008 0)
(0.0434625 0.00626263 -8.88028e-20)
(-0.0088001 0.000253513 1.04657e-19)
(0.526457 0.0543898 -5.85558e-21)
(1.01927 0.103433 9.78547e-20)
(1.23807 0.154352 -4.82123e-21)
(1.30837 0.178815 -6.30394e-20)
(1.31014 0.196227 -4.47804e-20)
(1.27752 0.213405 7.28442e-20)
(1.22841 0.221878 0)
(1.18236 0.226831 0)
(1.13639 0.227746 8.12935e-20)
(1.09211 0.223452 0)
(1.05513 0.213576 9.60976e-20)
(1.03084 0.20044 2.8716e-20)
(1.01355 0.189381 6.30191e-22)
(0.983601 0.174789 -6.11592e-20)
(0.906563 0.15208 0)
(0.714945 0.116142 0)
(0.410441 0.0652496 -2.60562e-19)
(0.139792 0.0227528 6.55258e-19)
(0.0103077 0.00400238 -3.87297e-19)
(-0.0199469 -0.00153415 -4.56121e-19)
(0.533325 0.0786759 -5.10301e-20)
(1.05111 0.159938 2.01243e-20)
(1.27198 0.213973 1.14968e-20)
(1.33527 0.237652 1.09318e-19)
(1.3301 0.254643 1.46998e-20)
(1.28989 0.26739 -1.89076e-19)
(1.23533 0.271368 6.47418e-20)
(1.18438 0.272588 0)
(1.13317 0.269892 -1.71317e-19)
(1.08294 0.261334 1.52831e-19)
(1.04079 0.247571 -2.59187e-19)
(1.01385 0.23331 1.2153e-19)
(0.995528 0.219295 -7.88552e-20)
(0.96579 0.202745 1.77952e-19)
(0.868491 0.176121 0)
(0.659715 0.127416 -6.46351e-20)
(0.355647 0.0664972 0)
(0.112156 0.0211976 3.56124e-19)
(-0.00519603 0.00139755 -8.4337e-19)
(-0.025909 -0.00359083 5.27831e-19)
(0.531516 0.108676 1.27681e-19)
(1.07936 0.220435 -5.74298e-20)
(1.29798 0.281794 -1.27593e-20)
(1.35374 0.303655 0)
(1.34332 0.317142 -8.10789e-20)
(1.29824 0.324419 1.00228e-19)
(1.23896 0.323883 -6.89689e-20)
(1.18279 0.321111 0)
(1.12674 0.314265 1.21596e-19)
(1.07303 0.301693 -1.07276e-19)
(1.02839 0.284548 2.23588e-19)
(0.998866 0.267235 0)
(0.975663 0.250586 -1.67246e-19)
(0.933739 0.22936 9.43561e-20)
(0.834009 0.193817 2.36819e-19)
(0.620494 0.138826 -2.08282e-19)
(0.328702 0.0713281 3.28065e-19)
(0.104005 0.0222725 -7.26622e-19)
(-0.0125757 -0.000992057 4.59251e-19)
(-0.0303366 -0.00590129 -5.74198e-19)
(0.515138 0.133031 -3.46575e-20)
(1.07881 0.271062 2.43231e-20)
(1.30605 0.344915 -4.26433e-20)
(1.36302 0.368646 8.94196e-20)
(1.34961 0.381195 -8.69629e-20)
(1.30058 0.383477 3.1059e-20)
(1.23762 0.377875 3.86391e-21)
(1.178 0.370368 -1.35729e-19)
(1.11808 0.358845 -1.26797e-19)
(1.05939 0.341496 -2.29477e-19)
(1.0101 0.320003 -4.80407e-19)
(0.977228 0.299133 -1.48249e-19)
(0.95358 0.279117 2.24437e-21)
(0.915797 0.255699 -3.21805e-19)
(0.807681 0.218112 -4.74983e-21)
(0.59565 0.151877 3.02281e-19)
(0.321564 0.0780469 -9.01943e-20)
(0.104611 0.0248585 -5.24752e-20)
(-0.0117984 -0.00322541 0)
(-0.0317393 -0.00775557 1.21692e-18)
(0.501218 0.15533 0)
(1.08018 0.32475 1.36695e-21)
(1.31103 0.411233 -5.02642e-21)
(1.36563 0.434094 -1.30513e-20)
(1.34961 0.44423 8.23786e-20)
(1.29859 0.441738 -7.33626e-20)
(1.23316 0.431771 7.4819e-20)
(1.17015 0.419999 2.23103e-19)
(1.1067 0.404191 -7.05178e-20)
(1.0451 0.38242 1.13258e-19)
(0.993927 0.356731 2.58048e-19)
(0.959405 0.332924 3.23185e-19)
(0.931089 0.310252 -1.94561e-19)
(0.88352 0.282722 3.48272e-19)
(0.780735 0.236289 -2.75913e-19)
(0.576577 0.168557 0)
(0.317262 0.0877988 -6.85199e-19)
(0.1115 0.0292431 9.24093e-19)
(-0.00488879 -0.00297358 6.8925e-20)
(-0.0295924 -0.00894432 -1.28664e-18)
(0.481931 0.173875 -5.22197e-21)
(1.06496 0.369038 -3.068e-20)
(1.3054 0.469493 3.57479e-20)
(1.36292 0.495246 -6.03769e-20)
(1.3454 0.505251 7.01116e-20)
(1.29235 0.498837 -7.00284e-20)
(1.22463 0.484765 1.46949e-19)
(1.15939 0.468742 -6.60362e-20)
(1.09316 0.448378 -2.8402e-19)
(1.02786 0.421821 -2.0274e-23)
(0.973175 0.39232 -2.80341e-19)
(0.935214 0.364584 -3.47778e-19)
(0.905828 0.338199 2.15159e-19)
(0.864638 0.309229 -1.25126e-19)
(0.757228 0.263467 3.00332e-19)
(0.560801 0.185257 0)
(0.316981 0.100975 -4.26775e-19)
(0.120459 0.0359516 6.30336e-19)
(0.0041993 -0.000575955 1.1917e-18)
(-0.0258019 -0.00919228 -1.40166e-18)
(0.469869 0.19303 -1.16796e-19)
(1.0574 0.417231 5.33201e-20)
(1.29986 0.529753 -1.6235e-20)
(1.35626 0.555661 6.14749e-20)
(1.33693 0.564035 1.22867e-20)
(1.28292 0.553872 -1.35859e-19)
(1.21387 0.536238 -8.58561e-20)
(1.14652 0.516337 -8.56093e-20)
(1.07791 0.492171 -1.60786e-19)
(1.0108 0.461712 2.59027e-19)
(0.953924 0.428028 2.82741e-19)
(0.914024 0.396884 5.51736e-19)
(0.882608 0.369257 0)
(0.83227 0.33666 6.30586e-21)
(0.732477 0.281776 -8.26036e-19)
(0.546395 0.203935 1.94375e-19)
(0.316571 0.113985 9.27275e-19)
(0.129167 0.0439728 -2.7364e-19)
(0.0139491 0.00304008 5.67166e-19)
(-0.0212873 -0.00866941 -4.72569e-20)
(0.455438 0.208513 5.9149e-21)
(1.03927 0.456098 7.05827e-20)
(1.28814 0.582293 1.27864e-21)
(1.34674 0.611274 5.22139e-20)
(1.32648 0.61978 -1.23801e-19)
(1.27128 0.60646 1.3361e-19)
(1.20076 0.585571 8.87053e-20)
(1.13206 0.562259 2.54632e-19)
(1.06151 0.534106 3.21754e-19)
(0.991021 0.499494 -3.00773e-19)
(0.930464 0.461998 0)
(0.887912 0.427344 -2.09451e-19)
(0.855948 0.394913 2.40474e-19)
(0.813456 0.361622 3.03802e-19)
(0.711123 0.309089 -1.75968e-19)
(0.532944 0.22088 -4.26313e-19)
(0.316351 0.128018 -1.26815e-19)
(0.136916 0.0527821 -2.06998e-21)
(0.0230736 0.00753545 0)
(-0.0166935 -0.00763303 0)
(0.447756 0.226013 -9.56516e-20)
(1.02934 0.498913 0)
(1.27774 0.636335 1.722e-20)
(1.33503 0.666022 -2.00951e-20)
(1.3134 0.673086 1.43873e-19)
(1.25765 0.656771 -3.58895e-20)
(1.18639 0.633014 9.01062e-20)
(1.11625 0.606338 -1.71756e-19)
(1.04352 0.575193 2.44133e-19)
(0.970965 0.537303 -1.00253e-19)
(0.909055 0.495709 1.6256e-19)
(0.865826 0.457026 6.65615e-19)
(0.832368 0.424666 1.42175e-20)
(0.781507 0.387464 -3.17631e-19)
(0.687799 0.325224 5.87238e-19)
(0.518157 0.239684 3.04753e-21)
(0.313319 0.14102 1.35675e-19)
(0.142248 0.0618347 -6.46614e-19)
(0.0305435 0.0122432 6.66172e-19)
(-0.0125477 -0.0063449 -7.84769e-19)
(0.439296 0.240774 3.32463e-23)
(1.01331 0.533702 0)
(1.2635 0.682949 0)
(1.3219 0.715982 5.78187e-21)
(1.29971 0.723151 -4.04054e-20)
(1.2432 0.704222 6.10638e-20)
(1.17088 0.677829 -1.654e-19)
(1.09958 0.648603 0)
(1.0252 0.614305 -3.6054e-19)
(0.950577 0.572898 4.36679e-19)
(0.885994 0.527858 4.66043e-19)
(0.83955 0.486299 -2.44468e-19)
(0.804876 0.448691 -2.96673e-19)
(0.762913 0.409299 6.96038e-19)
(0.666221 0.351247 -2.09101e-19)
(0.50321 0.254892 -2.48634e-19)
(0.309399 0.153971 -1.48496e-19)
(0.14516 0.0702274 -6.99446e-19)
(0.0360525 0.0166245 1.02518e-19)
(-0.00911375 -0.00504683 8.50491e-19)
(0.433527 0.257334 -4.5391e-20)
(1.00318 0.571718 -6.17593e-20)
(1.25106 0.730784 2.39547e-20)
(1.30769 0.764965 -2.01556e-22)
(1.2845 0.770807 -4.86052e-20)
(1.22756 0.74952 9.39536e-20)
(1.15471 0.720897 0)
(1.08243 0.688841 1.04744e-19)
(1.00681 0.652183 -8.25911e-20)
(0.930673 0.608235 7.30042e-19)
(0.863517 0.559203 -1.04546e-19)
(0.816658 0.513713 1.21234e-19)
(0.781957 0.476134 0)
(0.730977 0.432802 -3.77098e-19)
(0.642408 0.36348 4.56798e-19)
(0.486578 0.271441 0)
(0.302161 0.164305 -3.19604e-19)
(0.145322 0.0774986 9.40988e-19)
(0.0394465 0.0203184 1.11863e-19)
(-0.00647857 -0.0038975 -1.04921e-18)
(0.428711 0.274624 -1.11617e-19)
(0.989487 0.603199 1.40683e-19)
(1.23607 0.771685 0)
(1.29297 0.809209 3.26273e-20)
(1.26943 0.815278 0)
(1.21197 0.791932 -1.26381e-19)
(1.13849 0.761149 0)
(1.0656 0.727196 0)
(0.988694 0.688202 -1.1083e-19)
(0.910071 0.641457 -6.94313e-19)
(0.839972 0.589622 -8.62746e-19)
(0.790345 0.541722 1.42419e-19)
(0.753496 0.497358 5.15027e-19)
(0.711908 0.450447 4.1591e-19)
(0.619992 0.386234 -1.46682e-18)
(0.470028 0.281988 -5.84704e-19)
(0.29413 0.173943 3.43091e-19)
(0.143796 0.0832348 0)
(0.0412002 0.0232815 9.62273e-19)
(-0.00452865 -0.00296302 -1.13215e-18)
(0.426317 0.290276 1.30849e-19)
(0.980949 0.637582 -1.6149e-19)
(1.22304 0.814045 0)
(1.27797 0.852551 -1.15185e-20)
(1.25364 0.857456 -7.52588e-21)
(1.1959 0.832296 0)
(1.1222 0.799834 5.14664e-20)
(1.04867 0.7636 7.37148e-20)
(0.970539 0.722816 -2.07542e-19)
(0.890192 0.674146 9.17198e-20)
(0.817857 0.618877 0)
(0.766978 0.566509 5.9105e-19)
(0.730382 0.521687 6.56424e-21)
(0.679446 0.47078 2.2461e-19)
(0.59605 0.392401 2.65976e-19)
(0.452779 0.294084 0)
(0.284593 0.180079 -5.58073e-19)
(0.140495 0.0876113 1.09553e-18)
(0.0416432 0.025297 -1.16516e-18)
(-0.00326386 -0.00228867 2.44062e-18)
(0.424172 0.30507 0)
(0.969099 0.665705 0)
(1.20833 0.849834 -8.01881e-20)
(1.26305 0.891337 0)
(1.23848 0.89663 0)
(1.18042 0.869919 -9.92452e-20)
(1.1064 0.835716 5.26219e-20)
(1.03238 0.798099 1.79696e-20)
(0.952909 0.755659 -4.71143e-20)
(0.870125 0.704969 0)
(0.79468 0.647666 -1.32262e-19)
(0.740403 0.593449 -4.82177e-19)
(0.700194 0.540336 -5.81488e-19)
(0.659488 0.483093 -2.34005e-19)
(0.57329 0.410574 2.88133e-19)
(0.435388 0.298516 -6.78334e-19)
(0.275394 0.185375 1.1985e-18)
(0.136555 0.089849 1.40709e-21)
(0.0413121 0.0273961 -1.11365e-18)
(-0.00216259 -0.00107342 -1.64677e-19)
(0.422863 0.318913 0)
(0.961394 0.696627 -1.29669e-19)
(1.19575 0.887195 9.66824e-20)
(1.24836 0.929442 0)
(1.2231 0.933704 0)
(1.16485 0.905592 1.96358e-19)
(1.09071 0.870186 0)
(1.01608 0.830796 0)
(0.935484 0.787049 -4.57053e-19)
(0.851114 0.735068 1.28391e-19)
(0.773197 0.675092 -1.17392e-18)
(0.716501 0.616204 0)
(0.676456 0.562262 -6.34545e-19)
(0.625187 0.500094 9.63782e-21)
(0.548285 0.408942 -9.29425e-19)
(0.418986 0.303194 3.64585e-19)
(0.267772 0.184253 1.16554e-21)
(0.13562 0.0890163 -1.26014e-18)
(0.0419325 0.0249818 5.97959e-19)
(-0.00405535 -0.00398396 1.76171e-19)
(0.421292 0.332517 0)
(0.950965 0.721978 -1.73741e-19)
(1.18202 0.918353 1.01483e-19)
(1.23405 0.963249 1.46053e-19)
(1.20854 0.968012 -3.50747e-21)
(1.15004 0.938762 1.93285e-20)
(1.07571 0.901989 -2.89251e-20)
(1.00072 0.861621 4.29084e-19)
(0.918969 0.816796 4.88917e-19)
(0.832211 0.763585 9.76979e-19)
(0.750796 0.702585 9.75356e-19)
(0.689823 0.642275 1.72075e-19)
(0.64398 0.579338 9.12312e-19)
(0.602811 0.507221 5.64037e-19)
(0.523211 0.420888 6.66741e-19)
(0.402513 0.297202 -3.98711e-19)
(0.261902 0.178039 -4.55892e-19)
(0.141582 0.0891117 5.4371e-19)
(0.052817 0.0369787 -3.21536e-19)
(0.00512823 0.0075769 5.71565e-19)
(0.420197 0.345609 2.4145e-19)
(0.944226 0.750087 2.72498e-19)
(1.17038 0.951402 5.77326e-20)
(1.22016 0.996712 1.52876e-20)
(1.19401 1.00047 -2.32955e-20)
(1.13537 0.970091 -5.39163e-20)
(1.06101 0.932502 2.74962e-20)
(0.985564 0.890874 -1.85945e-20)
(0.902858 0.845162 -5.70821e-19)
(0.814626 0.791255 -1.06092e-18)
(0.730631 0.728493 6.77411e-20)
(0.665786 0.663842 0)
(0.619134 0.600157 0)
(0.564288 0.522602 -2.94785e-19)
(0.493161 0.409507 -1.09529e-18)
(0.38403 0.288914 8.59049e-19)
(0.263558 0.161069 5.01414e-19)
(0.157463 0.0651782 0)
(0.0717695 0.00392206 1.02925e-18)
(-0.00141181 -0.0209367 -6.08725e-19)
(0.418823 0.358379 -1.28198e-19)
(0.935131 0.772877 1.12764e-19)
(1.15771 0.978536 -1.37438e-19)
(1.20676 1.02611 -1.17462e-19)
(1.18038 1.03041 -2.39647e-20)
(1.12156 0.999203 -1.7149e-20)
(1.04716 0.960578 0)
(0.971571 0.918323 -5.40275e-19)
(0.887893 0.871997 6.85142e-20)
(0.797318 0.817486 0)
(0.709557 0.754912 0)
(0.639638 0.690114 1.10693e-19)
(0.584043 0.617237 1.48649e-19)
(0.537117 0.526366 -3.19292e-19)
(0.461192 0.417495 7.85727e-19)
(0.359151 0.267093 -9.36813e-19)
(0.252059 0.135255 -1.07818e-18)
(0.185328 0.0576841 9.55689e-19)
(0.146417 0.0624506 -3.65697e-19)
(0.108199 0.0727778 2.12738e-19)
(0.417866 0.370309 1.58061e-19)
(0.929228 0.798222 0)
(1.14699 1.00785 0)
(1.19385 1.0555 -3.3228e-20)
(1.16693 1.05876 2.68981e-20)
(1.10807 1.0266 -1.9454e-20)
(1.03378 0.987456 1.2815e-19)
(0.957877 0.944395 5.52836e-19)
(0.873356 0.897546 1.03733e-18)
(0.781425 0.842806 -8.05546e-20)
(0.691254 0.779487 1.67194e-19)
(0.616498 0.711258 -9.93585e-19)
(0.558659 0.63884 -9.935e-19)
(0.492187 0.544108 -1.72037e-19)
(0.415741 0.398476 0)
(0.326644 0.2528 -3.66737e-21)
(0.238 0.0594265 5.96163e-19)
(0.236905 -0.0486065 -9.99427e-19)
(0.205347 -0.117355 7.5913e-19)
(0.0887875 -0.101937 6.28016e-19)
(0.416451 0.382013 -3.48082e-19)
(0.92098 0.818381 -1.56107e-19)
(1.13519 1.03147 6.858e-21)
(1.18135 1.08118 6.37268e-20)
(1.15424 1.08509 0)
(1.09527 1.05244 -3.88695e-20)
(1.02102 1.01262 -1.87003e-19)
(0.945026 0.969284 -2.23217e-21)
(0.859626 0.922287 -5.43541e-19)
(0.765456 0.867552 -7.92157e-20)
(0.671351 0.805622 7.35803e-20)
(0.591092 0.739569 8.7318e-19)
(0.520217 0.659092 9.68792e-19)
(0.457925 0.547718 1.68372e-19)
(0.37418 0.413647 8.56742e-19)
(0.266873 0.215656 0)
(0.141395 0.0358374 0)
(-0.0168948 0.165259 6.80683e-19)
(-0.0785906 0.629016 -2.63291e-20)
(0.010457 1.54754 -8.47754e-19)
(0.415571 0.392927 1.91698e-19)
(0.915706 0.841364 4.42085e-19)
(1.12523 1.05792 -6.1394e-19)
(1.16925 1.1076 3.15082e-19)
(1.14161 1.11062 -1.24634e-20)
(1.08258 1.07734 1.17245e-20)
(1.00842 1.03745 0)
(0.932064 0.993938 -4.6036e-19)
(0.845805 0.947066 0)
(0.750317 0.892924 1.11274e-18)
(0.653653 0.831446 -9.0588e-20)
(0.567679 0.763261 1.01579e-19)
(0.494108 0.686426 1.12013e-18)
(0.402469 0.579512 -3.65828e-19)
(0.285905 0.394435 -4.34382e-19)
(0.177867 0.262944 0)
(0.0708882 0.445665 0)
(0.0236945 1.37068 0)
(0.070925 2.47699 -3.86024e-19)
(0.0964003 2.91734 -2.38839e-19)
(0.413913 0.403395 0)
(0.908064 0.859084 0)
(1.11417 1.07859 2.23199e-19)
(1.1576 1.13037 -2.56751e-19)
(1.12975 1.13436 1.21617e-19)
(1.07059 1.10104 -1.91062e-21)
(0.996432 1.06095 2.47975e-20)
(0.919977 1.01765 -1.93064e-20)
(0.832965 0.971323 7.76024e-20)
(0.735371 0.918101 -1.27718e-18)
(0.634587 0.859325 1.63922e-19)
(0.543125 0.796693 8.82129e-19)
(0.451758 0.715316 -1.11533e-18)
(0.363023 0.585067 -1.23416e-18)
(0.261375 0.449869 4.13963e-19)
(0.176593 0.603677 0)
(0.110425 1.59881 5.58853e-19)
(0.116191 2.70384 5.99252e-19)
(0.123546 3.09143 -6.69206e-19)
(0.116484 3.22385 7.10348e-19)
(0.412834 0.413597 0)
(0.903351 0.879789 3.84729e-19)
(1.10503 1.1025 -5.58935e-20)
(1.14642 1.15418 3.52502e-19)
(1.11803 1.1574 -1.27658e-19)
(1.0588 1.1237 0)
(0.984731 1.08391 0)
(0.907966 1.04098 0)
(0.820242 0.995425 4.33365e-19)
(0.721612 0.943694 5.86194e-20)
(0.618517 0.886629 0)
(0.521159 0.822889 -8.7649e-19)
(0.432234 0.747804 0)
(0.305597 0.628777 8.82811e-19)
(0.197014 0.675362 -6.00029e-19)
(0.141212 1.46899 -4.79413e-19)
(0.146379 2.69014 -1.09515e-18)
(0.170273 3.12589 -5.74457e-19)
(0.160905 3.26464 -7.68441e-19)
(0.148296 3.30481 5.50723e-19)
(0.411125 0.422772 -1.33585e-19)
(0.896189 0.895073 1.45825e-20)
(1.09471 1.12036 -6.18358e-20)
(1.1357 1.17425 -2.73653e-19)
(1.1071 1.17874 0)
(1.04774 1.14539 0)
(0.973658 1.10577 0)
(0.896855 1.06341 3.2743e-20)
(0.808622 1.01897 -5.4826e-19)
(0.708218 0.968986 0)
(0.601398 0.915562 0)
(0.500908 0.86011 0)
(0.387194 0.778392 0)
(0.308479 0.721848 6.50914e-19)
(0.262762 1.13062 1.59237e-18)
(0.234822 2.40657 4.65349e-19)
(0.253269 3.08093 9.28043e-19)
(0.247776 3.27711 -7.10492e-19)
(0.19992 3.34236 2.58784e-19)
(0.168556 3.35573 0)
(0.409912 0.43182 1.37105e-19)
(0.891871 0.914245 -8.49856e-19)
(1.08617 1.14269 -2.29644e-19)
(1.1252 1.19638 -5.11099e-20)
(1.09605 1.20015 2.95692e-20)
(1.03666 1.16655 -1.21927e-19)
(0.96272 1.12744 -3.77112e-23)
(0.885741 1.08589 -3.56407e-19)
(0.797008 1.04272 0)
(0.696013 0.994981 -7.56289e-20)
(0.587943 0.944501 6.88017e-20)
(0.482181 0.887439 0)
(0.384314 0.8203 0)
(0.320542 0.916795 -8.15915e-19)
(0.26332 1.85131 1.03647e-19)
(0.260165 2.94532 -3.50577e-19)
(0.285927 3.27974 7.33067e-19)
(0.256969 3.3779 5.221e-19)
(0.193037 3.40261 -7.04297e-19)
(0.168794 3.41301 3.46647e-19)
(0.407762 0.441125 2.68113e-19)
(0.884084 0.928754 8.25736e-19)
(1.07536 1.15974 2.76512e-19)
(1.11427 1.21592 0)
(1.08501 1.22126 0)
(1.02558 1.18821 9.43887e-20)
(0.951741 1.14941 4.93384e-20)
(0.874925 1.10851 3.17155e-19)
(0.786047 1.06667 2.11479e-20)
(0.68383 1.02118 9.62443e-19)
(0.573123 0.974717 -1.15187e-18)
(0.460809 0.922377 0)
(0.380158 0.897838 0)
(0.332418 1.29782 -5.57653e-19)
(0.326177 2.49843 -6.68209e-19)
(0.37195 3.19255 0)
(0.397345 3.35952 -7.40693e-19)
(0.326338 3.42261 5.16121e-20)
(0.258527 3.46856 3.37674e-19)
(0.23659 3.49412 -1.09084e-19)
(0.405919 0.45075 -5.09209e-19)
(0.879194 0.949982 -3.95843e-19)
(1.06578 1.1845 0)
(1.10255 1.23992 0)
(1.07281 1.2441 0)
(1.01353 1.21049 0)
(0.940096 1.17205 -6.02299e-20)
(0.863433 1.13201 2.75843e-19)
(0.77444 1.09154 0)
(0.672466 1.04859 -8.75819e-19)
(0.562357 1.00552 2.06851e-18)
(0.452001 0.961046 8.5006e-20)
(0.397045 1.02164 1.15052e-19)
(0.383907 1.73803 9.08577e-19)
(0.394047 2.90144 -4.88588e-19)
(0.434945 3.31096 0)
(0.4178 3.4319 2.08603e-19)
(0.331905 3.52135 9.09585e-20)
(0.258834 3.58598 1.48662e-19)
(0.183284 3.56541 -1.68381e-20)
(0.402871 0.460921 2.41824e-19)
(0.869391 0.965361 -4.01821e-19)
(1.05289 1.20245 0)
(1.08993 1.26072 -7.47453e-20)
(1.06023 1.26676 2.58482e-19)
(1.0011 1.23372 0)
(0.928041 1.1955 0)
(0.851869 1.15587 -4.78247e-19)
(0.763277 1.11661 -5.57301e-20)
(0.660979 1.07597 8.60365e-19)
(0.546994 1.03628 -9.82798e-19)
(0.451887 1.01176 5.80455e-19)
(0.411229 1.20902 0)
(0.419121 2.18495 -4.82114e-19)
(0.460938 3.14084 3.15828e-19)
(0.52663 3.41211 1.98512e-19)
(0.517341 3.50743 0)
(0.454983 3.59044 -3.66636e-20)
(0.386541 3.62964 -4.08706e-19)
(0.306262 3.60206 -9.65562e-20)
(0.4001 0.471279 -4.79541e-19)