/*--------------------------------*- C++ -*----------------------------------*\
  =========                 |
  \\      /  F ield         | OpenFOAM: The Open Source CFD Toolbox
   \\    /   O peration     | Website:  https://openfoam.org
    \\  /    A nd           | Version:  10
     \\/     M anipulation  |
\*---------------------------------------------------------------------------*/
FoamFile
{
    format      ascii;
    class       volVectorField;
    location    "3";
    object      U;
}
// * * * * * * * * * * * * * * * * * * * * * * * * * * * * * * * * * * * * * //

dimensions      [0 1 -1 0 0 0 0];

internalField   nonuniform List<vector> 
8800
(
(0.974627 -0.0908739 0)
(1.00731 -0.059379 0)
(1.00151 -0.0301571 0)
(1.00104 -0.0146104 0)
(1.00077 -0.00709832 0)
(1.00043 -0.00351842 0)
(1.00003 -0.00184076 0)
(0.999748 -0.00102569 0)
(0.999557 -0.000467153 0)
(0.999432 -5.04754e-05 0)
(0.999496 0.000272891 0)
(0.999665 0.000758827 0)
(0.999886 0.00140873 0)
(1.00025 0.00248074 0)
(1.00063 0.00500603 0)
(1.00092 0.010202 0)
(1.00122 0.0210825 0)
(1.00232 0.0419389 0)
(1.01241 0.080143 0)
(0.773327 0.0485965 0)
(0.38196 -0.0117507 0)
(1.04954 -0.0595935 0)
(1.08359 -0.054754 0)
(1.04929 -0.046834 0)
(1.02502 -0.0370723 0)
(1.01124 -0.0269772 0)
(1.00458 -0.0182837 0)
(1.00176 -0.011722 0)
(1.00086 -0.00684534 0)
(1.00057 -0.00271256 0)
(1.00046 0.00110097 0)
(1.00066 0.00502182 0)
(1.00114 0.00931358 0)
(1.0028 0.0148522 0)
(1.00732 0.0224795 0)
(1.01707 0.0320521 0)
(1.03587 0.042256 0)
(1.06604 0.0512319 0)
(1.08894 0.0561431 0)
(0.861279 0.0452823 0)
(0.284382 3.47814e-05 0)
(1.06742 -0.021471 0)
(1.07181 -0.0282376 0)
(1.04947 -0.0290187 0)
(1.03374 -0.026783 0)
(1.02277 -0.0228998 0)
(1.0155 -0.0178996 0)
(1.01099 -0.0124666 0)
(1.00851 -0.0068908 0)
(1.00747 -0.00097484 0)
(1.00781 0.00494419 0)
(1.00942 0.010641 0)
(1.01277 0.0160502 0)
(1.01846 0.0211049 0)
(1.02741 0.0254959 0)
(1.0406 0.0284664 0)
(1.05956 0.0294038 0)
(1.07934 0.0260031 0)
(0.9865 0.0164404 0)
(0.284165 -2.50389e-05 0)
(0.281443 0.000312146 0)
(1.03011 -0.00529544 0)
(1.04838 -0.0126053 0)
(1.0405 -0.017552 0)
(1.03187 -0.0194439 0)
(1.02394 -0.0187141 0)
(1.01754 -0.0157362 0)
(1.01307 -0.0114062 0)
(1.0101 -0.00643469 0)
(1.00871 -0.000717302 0)
(1.00906 0.00507848 0)
(1.01119 0.0103193 0)
(1.01482 0.0148021 0)
(1.02013 0.0184254 0)
(1.02734 0.0202519 0)
(1.03563 0.0194421 0)
(1.04418 0.0159602 0)
(1.04785 0.00941402 0)
(0.948728 0.00199514 0)
(0.281085 -0.000304801 0)
(0.281268 -4.59853e-05 0)
(1.01737 -0.00245195 0)
(1.038 -0.00571742 0)
(1.03586 -0.00870248 0)
(1.03215 -0.0107379 0)
(1.02791 -0.0114421 0)
(1.0237 -0.0106377 0)
(1.01991 -0.00838793 0)
(1.01705 -0.00486308 0)
(1.01575 -0.000294359 0)
(1.01604 0.00448435 0)
(1.01806 0.0084029 0)
(1.02108 0.0111239 0)
(1.02506 0.012388 0)
(1.02929 0.0121718 0)
(1.03323 0.010528 0)
(1.03624 0.00776908 0)
(1.03484 0.00437365 0)
(0.938612 0.00128548 0)
(0.280661 5.62521e-05 0)
(0.280278 -6.88518e-06 0)
(1.01079 -0.00114805 0)
(1.03129 -0.00267103 0)
(1.03055 -0.00426917 0)
(1.02873 -0.00561752 0)
(1.02637 -0.00634489 0)
(1.02366 -0.00621633 0)
(1.02093 -0.00504979 0)
(1.01863 -0.00279037 0)
(1.01738 0.00032078 0)
(1.01754 0.00354727 0)
(1.01916 0.00598845 0)
(1.0213 0.0074032 0)
(1.0239 0.00771071 0)
(1.02636 0.00705709 0)
(1.02836 0.00569027 0)
(1.02971 0.0039452 0)
(1.02736 0.00213963 0)
(0.932887 0.000636638 0)
(0.279466 1.31595e-05 0)
(0.279803 -6.32521e-06 0)
(1.00796 -0.000591164 0)
(1.02847 -0.0013162 0)
(1.02829 -0.00210301 0)
(1.02739 -0.00282498 0)
(1.02609 -0.00329135 0)
(1.02443 -0.00330693 0)
(1.02259 -0.00266777 0)
(1.02089 -0.00126024 0)
(1.0198 0.000806463 0)
(1.01978 0.00295393 0)
(1.02078 0.00439899 0)
(1.02215 0.0050222 0)
(1.02366 0.0049288 0)
(1.02497 0.00428844 0)
(1.02595 0.00333504 0)
(1.02654 0.00227599 0)
(1.02382 0.00125967 0)
(0.930023 0.000419875 0)
(0.27881 1.86643e-05 0)
(0.279599 1.61557e-06 0)
(1.00654 -0.000242647 0)
(1.02703 -0.000578048 0)
(1.02706 -0.000946763 0)
(1.02654 -0.0012846 0)
(1.02575 -0.00149755 0)
(1.02469 -0.0014584 0)
(1.02341 -0.00102427 0)
(1.02213 -9.37291e-05 0)
(1.02116 0.0012869 0)
(1.02094 0.00265874 0)
(1.02143 0.00347826 0)
(1.0222 0.003689 0)
(1.02302 0.00343785 0)
(1.02371 0.00288541 0)
(1.02421 0.00219362 0)
(1.02449 0.00148632 0)
(1.02164 0.000830673 0)
(0.92819 0.000290918 0)
(0.27831 1.48853e-05 0)
(0.279594 4.24962e-06 0)
(1.00598 -3.05132e-05 0)
(1.02644 -0.000136426 0)
(1.02658 -0.000248684 0)
(1.02624 -0.000333245 0)
(1.02572 -0.000339525 0)
(1.02498 -0.000196168 0)
(1.02404 0.000184936 0)
(1.023 0.000863778 0)
(1.02209 0.00180182 0)
(1.02165 0.00264956 0)
(1.02173 0.00305634 0)
(1.02205 0.00301631 0)
(1.02242 0.0026864 0)
(1.02274 0.00219253 0)
(1.02296 0.0016441 0)
(1.02308 0.00111135 0)
(1.02016 0.000631421 0)
(0.9269 0.000232702 0)
(0.277914 1.4342e-05 0)
(0.27972 1.10699e-05 0)
(1.00595 0.00010087 0)
(1.02638 0.000155199 0)
(1.02657 0.000225209 0)
(1.02632 0.000328238 0)
(1.02592 0.000491842 0)
(1.02534 0.000754439 0)
(1.02456 0.00115868 0)
(1.02364 0.0017251 0)
(1.02269 0.00239534 0)
(1.02203 0.00289364 0)
(1.02176 0.00302892 0)
(1.02173 0.00280633 0)
(1.0218 0.00240303 0)
(1.02188 0.00191773 0)
(1.02194 0.00142384 0)
(1.02196 0.000963156 0)
(1.01899 0.000557929 0)
(0.925843 0.000215532 0)
(0.27755 1.51867e-05 0)
(0.279964 1.48103e-05 0)
(1.0063 0.000231758 0)
(1.02672 0.00040543 0)
(1.02692 0.000611917 0)
(1.0267 0.000865969 0)
(1.02635 0.00118022 0)
(1.02582 0.00157021 0)
(1.02509 0.00204611 0)
(1.02416 0.00258965 0)
(1.02309 0.00311224 0)
(1.02218 0.00337411 0)
(1.02161 0.00325863 0)
(1.02129 0.00292106 0)
(1.02112 0.00243936 0)
(1.02103 0.00191726 0)
(1.02098 0.00141421 0)
(1.02093 0.000958385 0)
(1.01793 0.00056218 0)
(0.924844 0.000225236 0)
(0.277171 1.74023e-05 0)
(0.280325 2.03369e-05 0)
(1.00699 0.000347459 0)
(1.02738 0.000634553 0)
(1.02758 0.000973178 0)
(1.02736 0.00137234 0)
(1.027 0.00183923 0)
(1.02646 0.00237338 0)
(1.02568 0.00295907 0)
(1.02465 0.00354418 0)
(1.02337 0.00400313 0)
(1.02216 0.00410734 0)
(1.02128 0.00383041 0)
(1.0207 0.00332448 0)
(1.02034 0.00272722 0)
(1.02011 0.00212349 0)
(1.01997 0.00156015 0)
(1.01987 0.00106069 0)
(1.01684 0.000628442 0)
(0.923779 0.00025887 0)
(0.276738 2.11318e-05 0)
(0.280815 2.667e-05 0)
(1.00801 0.00047622 0)
(1.02837 0.000882495 0)
(1.02855 0.00135851 0)
(1.02831 0.00191477 0)
(1.0279 0.0025511 0)
(1.02729 0.00325621 0)
(1.02639 0.0039913 0)
(1.02515 0.00467132 0)
(1.02358 0.00512557 0)
(1.022 0.00511086 0)
(1.02079 0.004663 0)
(1.01995 0.00398865 0)
(1.01939 0.00324064 0)
(1.01903 0.00250903 0)
(1.01881 0.0018393 0)
(1.01865 0.00125112 0)
(1.01559 0.00074472 0)
(0.922546 0.000310158 0)
(0.276221 2.59648e-05 0)
(0.281462 3.47571e-05 0)
(1.00939 0.000630232 0)
(1.02972 0.00117268 0)
(1.02987 0.00180938 0)
(1.02958 0.00254793 0)
(1.02909 0.00338628 0)
(1.02835 0.00430035 0)
(1.02725 0.00523118 0)
(1.02573 0.00605531 0)
(1.02376 0.00655012 0)
(1.02172 0.00643562 0)
(1.02011 0.00580415 0)
(1.01898 0.0049256 0)
(1.01821 0.00398127 0)
(1.01771 0.00307326 0)
(1.0174 0.00225126 0)
(1.0172 0.00153169 0)
(1.0141 0.000915347 0)
(0.921057 0.00038369 0)
(0.275582 3.26827e-05 0)
(0.282304 4.50924e-05 0)
(1.01122 0.000821259 0)
(1.0315 0.00153118 0)
(1.03161 0.00236234 0)
(1.03124 0.00332501 0)
(1.03064 0.00441204 0)
(1.02971 0.00558891 0)
(1.02834 0.0067711 0)
(1.02643 0.00779214 0)
(1.02392 0.00836478 0)
(1.0213 0.00815329 0)
(1.01922 0.00730703 0)
(1.01774 0.00617362 0)
(1.01673 0.00497606 0)
(1.01608 0.00383482 0)
(1.01567 0.00280668 0)
(1.0154 0.00190938 0)
(1.01227 0.0011426 0)
(0.919209 0.000480514 0)
(0.274783 4.09348e-05 0)
(0.283396 5.84776e-05 0)
(1.0136 0.00106382 0)
(1.03382 0.00198386 0)
(1.03387 0.00306041 0)
(1.0334 0.00430494 0)
(1.03263 0.00570612 0)
(1.03145 0.00721488 0)
(1.02971 0.00871786 0)
(1.02727 0.00999649 0)
(1.02408 0.0106797 0)
(1.02074 0.0103586 0)
(1.01807 0.00924806 0)
(1.01616 0.00779338 0)
(1.01486 0.00627091 0)
(1.01401 0.00482839 0)
(1.01348 0.00353199 0)
(1.01314 0.00240422 0)
(1.00996 0.00143875 0)
(0.916888 0.000605842 0)
(0.273778 5.1699e-05 0)
(0.284813 7.61793e-05 0)
(1.01667 0.00137721 0)
(1.03682 0.00256591 0)
(1.03679 0.00395622 0)
(1.03618 0.00556021 0)
(1.0352 0.00736164 0)
(1.03367 0.00929347 0)
(1.03144 0.0112044 0)
(1.02832 0.0128096 0)
(1.02424 0.0136344 0)
(1.01998 0.0131762 0)
(1.01657 0.0117314 0)
(1.01414 0.00986803 0)
(1.01249 0.00793049 0)
(1.01141 0.00610105 0)
(1.01073 0.00446045 0)
(1.01031 0.00303563 0)
(1.00706 0.00181604 0)
(0.913961 0.000764693 0)
(0.272509 6.50815e-05 0)
(0.286657 9.97657e-05 0)
(1.02064 0.00178616 0)
(1.04069 0.00332272 0)
(1.04055 0.00511759 0)
(1.03976 0.00718541 0)
(1.03848 0.00950058 0)
(1.03651 0.0119719 0)
(1.03363 0.0143988 0)
(1.02962 0.0164112 0)
(1.02441 0.0174047 0)
(1.01898 0.0167632 0)
(1.01466 0.0148889 0)
(1.01157 0.0125042 0)
(1.00947 0.0100397 0)
(1.0081 0.0077191 0)
(1.00725 0.00564204 0)
(1.00672 0.00383752 0)
(1.00339 0.00229583 0)
(0.910263 0.000965692 0)
(0.270911 8.20394e-05 0)
(0.289067 0.000131674 0)
(1.02579 0.00232581 0)
(1.0457 0.004317 0)
(1.04542 0.00663916 0)
(1.04438 0.00930799 0)
(1.0427 0.012285 0)
(1.04013 0.0154449 0)
(1.03639 0.0185207 0)
(1.03123 0.0210314 0)
(1.02456 0.0222117 0)
(1.01767 0.0213158 0)
(1.01219 0.0188881 0)
(1.0083 0.0158403 0)
(1.00565 0.0127069 0)
(1.00392 0.0097645 0)
(1.00284 0.00713412 0)
(1.00217 0.00485007 0)
(0.998751 0.00289999 0)
(0.905589 0.00121788 0)
(0.268896 0.000102705 0)
(0.292244 0.000175845 0)
(1.03247 0.00304853 0)
(1.0522 0.00564011 0)
(1.05171 0.00865434 0)
(1.05033 0.0121078 0)
(1.04811 0.0159411 0)
(1.04473 0.0199781 0)
(1.03985 0.0238606 0)
(1.03319 0.0269656 0)
(1.02466 0.0283326 0)
(1.01593 0.0270768 0)
(1.00903 0.0239329 0)
(1.00413 0.0200458 0)
(1.0008 0.0160697 0)
(0.998619 0.012344 0)
(0.997257 0.00901598 0)
(0.996426 0.00612873 0)
(0.992883 0.00366224 0)
(0.899683 0.00153637 0)
(0.266363 0.000129029 0)
(0.296478 0.000238683 0)
(1.04121 0.00403331 0)
(1.06068 0.00743048 0)
(1.05989 0.011364 0)
(1.05803 0.0158502 0)
(1.05505 0.0207916 0)
(1.05056 0.025939 0)
(1.04416 0.030807 0)
(1.03554 0.0345925 0)
(1.02466 0.0361075 0)
(1.01364 0.0343365 0)
(1.00499 0.030271 0)
(0.998849 0.0253273 0)
(0.994663 0.0202982 0)
(0.991922 0.0155929 0)
(0.990205 0.0113895 0)
(0.989162 0.00774148 0)
(0.985463 0.00462419 0)
(0.892223 0.00193711 0)
(0.263176 0.000161732 0)
(0.302215 0.000331698 0)
(1.05271 0.00541783 0)
(1.0718 0.00991687 0)
(1.07058 0.0150866 0)
(1.068 0.0209389 0)
(1.06393 0.0273163 0)
(1.05789 0.0338509 0)
(1.04944 0.0398844 0)
(1.03826 0.0443925 0)
(1.02443 0.0459442 0)
(1.01062 0.0434352 0)
(0.999834 0.0381958 0)
(0.992169 0.0319427 0)
(0.986925 0.0256116 0)
(0.983474 0.0196884 0)
(0.981303 0.0143925 0)
(0.979987 0.0097883 0)
(0.976087 0.0058472 0)
(0.882798 0.00244592 0)
(0.259165 0.000203329 0)
(0.310198 0.00048037 0)
(1.06797 0.00747532 0)
(1.08647 0.0135266 0)
(1.08458 0.020373 0)
(1.08091 0.0280352 0)
(1.07521 0.0362527 0)
(1.06695 0.0444711 0)
(1.05569 0.0517951 0)
(1.04122 0.0569585 0)
(1.02375 0.0583117 0)
(1.0066 0.054754 0)
(0.993274 0.0480433 0)
(0.98377 0.0402037 0)
(0.977209 0.0322984 0)
(0.972847 0.0248873 0)
(0.97008 0.018235 0)
(0.968404 0.0124293 0)
(0.964242 0.00743908 0)
(0.870879 0.00311288 0)
(0.254093 0.000259051 0)
(0.32185 0.0007563 0)
(1.08846 0.010877 0)
(1.10611 0.0191438 0)
(1.10308 0.028224 0)
(1.09756 0.0382426 0)
(1.08929 0.0487506 0)
(1.07778 0.0588763 0)
(1.06271 0.0674432 0)
(1.04406 0.0729834 0)
(1.02223 0.0737126 0)
(1.00121 0.0686864 0)
(0.984968 0.0601794 0)
(0.973291 0.0504881 0)
(0.965099 0.0407513 0)
(0.959542 0.0315824 0)
(0.955957 0.0232918 0)
(0.953778 0.0159994 0)
(0.949265 0.00965972 0)
(0.85575 0.00407454 0)
(0.247583 0.000343558 0)
(0.340147 0.00137991 0)
(1.11698 0.0172401 0)
(1.13329 0.0284923 0)
(1.12785 0.040405 0)
(1.11891 0.053397 0)
(1.10641 0.0665411 0)
(1.09014 0.0785 0)
(1.07001 0.0878933 0)
(1.04622 0.0931866 0)
(1.01936 0.0926245 0)
(0.994066 0.0856016 0)
(0.974588 0.0749766 0)
(0.960424 0.0632417 0)
(0.950239 0.0515225 0)
(0.943088 0.0404336 0)
(0.938283 0.0302977 0)
(0.935268 0.0212717 0)
(0.930193 0.0132378 0)
(0.836417 0.00580641 0)
(0.238977 0.00051399 0)
(0.369053 0.0030394 0)
(1.15888 0.0309609 0)
(1.17183 0.045268 0)
(1.16086 0.0605751 0)
(1.14566 0.0769158 0)
(1.12661 0.0923157 0)
(1.10375 0.105202 0)
(1.0772 0.114313 0)
(1.04738 0.118256 0)
(1.01495 0.115443 0)
(0.985109 0.105804 0)
(0.962205 0.0927917 0)
(0.945296 0.0789697 0)
(0.932724 0.0653442 0)
(0.923418 0.0524663 0)
(0.91664 0.0406105 0)
(0.911889 0.0299415 0)
(0.905406 0.0200102 0)
(0.811198 0.00939863 0)
(0.227934 0.000857646 0)
(0.413026 0.0139039 4.43765e-20)
(1.21721 0.0612808 4.0362e-20)
(1.21997 0.0780206 -1.43291e-20)
(1.19959 0.0964316 0)
(1.17561 0.11421 -3.59739e-34)
(1.14825 0.129492 5.22724e-21)
(1.11751 0.141175 -9.22951e-21)
(1.08366 0.148285 0)
(1.04714 0.149595 1.85102e-34)
(1.00859 0.143677 -1.09514e-20)
(0.973703 0.131024 0)
(0.946879 0.115616 -1.27677e-20)
(0.926635 0.0999649 -3.75049e-20)
(0.910946 0.0849212 -1.76877e-20)
(0.898493 0.0709698 -5.30427e-21)
(0.88839 0.058457 -3.15544e-21)
(0.879995 0.0475265 0)
(0.87014 0.0380031 2.23611e-21)
(0.776885 0.0264104 2.63873e-21)
(0.216167 0.00677632 4.79201e-20)
(0.43162 0.0390151 3.11669e-20)
(1.27067 0.117752 4.9378e-22)
(1.26447 0.132682 3.8675e-21)
(1.23464 0.14856 0)
(1.20183 0.163763 -1.84366e-20)
(1.16634 0.176632 -2.07802e-20)
(1.12812 0.185978 -9.36323e-21)
(1.08722 0.190632 -3.27231e-20)
(1.0439 0.189291 0)
(0.998618 0.180518 4.64609e-20)
(0.957601 0.165382 4.56072e-20)
(0.925672 0.148337 1.34156e-20)
(0.901017 0.131825 4.85713e-20)
(0.881258 0.116583 6.81767e-20)
(0.864859 0.103003 0)
(0.850787 0.0915072 9.68078e-20)
(0.838355 0.0823012 1.40192e-19)
(0.825134 0.0752945 1.56359e-19)
(0.737681 0.0631821 -1.80126e-19)
(0.21011 0.0191225 -3.31853e-21)
(0.421197 0.0634466 0)
(1.30582 0.191287 6.37882e-21)
(1.29621 0.201372 0)
(1.26017 0.211826 -2.52128e-20)
(1.22093 0.222201 0)
(1.17896 0.230766 -4.14807e-20)
(1.13432 0.236187 1.92879e-20)
(1.08717 0.237114 -6.64491e-20)
(1.03781 0.232192 -1.181e-21)
(0.98671 0.220018 2.40268e-20)
(0.940713 0.202211 9.8933e-20)
(0.904941 0.183687 1.04182e-23)
(0.877258 0.166798 -3.49327e-20)
(0.855095 0.152005 -6.30797e-20)
(0.836884 0.139459 7.51455e-20)
(0.82162 0.129285 -1.33155e-19)
(0.808541 0.121626 -1.77293e-20)
(0.795089 0.116206 0)
(0.713929 0.101629 1.06079e-21)
(0.20869 0.0306649 0)
(0.41567 0.0862264 7.85492e-20)
(1.32339 0.265544 -4.34297e-20)
(1.31357 0.273336 -3.39991e-20)
(1.27483 0.279109 1.23497e-20)
(1.23195 0.284581 -2.08555e-20)
(1.18565 0.288401 8.80243e-20)
(1.1362 0.289368 4.0559e-20)
(1.08397 0.286061 0)
(1.0295 0.277075 -1.2221e-19)
(0.973431 0.261027 0)
(0.923344 0.24022 -5.1505e-20)
(0.884735 0.219995 -6.25964e-20)
(0.855197 0.202421 -3.73305e-20)
(0.831871 0.187578 -4.51417e-20)
(0.813037 0.175344 0)
(0.797537 0.1656 0)
(0.784526 0.15828 -1.1413e-19)
(0.771327 0.153095 2.25068e-20)
(0.693421 0.135588 -1.34227e-20)
(0.205146 0.0410995 -1.56622e-20)
(0.413231 0.107737 -3.7941e-20)
(1.33205 0.337344 0)
(1.32188 0.343675 7.83319e-20)
(1.28132 0.345706 3.72274e-20)
(1.23598 0.347145 4.83834e-20)
(1.18658 0.346832 0)
(1.13343 0.343566 4.08122e-20)
(1.07709 0.336 7.41513e-20)
(1.01834 0.322707 6.31193e-20)
(0.958187 0.30242 1.10539e-19)
(0.904975 0.278182 0)
(0.864479 0.255839 -1.32269e-19)
(0.833908 0.237123 -7.85044e-20)
(0.810091 0.221776 -4.58147e-20)
(0.791111 0.209357 2.81065e-19)
(0.775701 0.19951 3.3438e-20)
(0.762902 0.192118 1.59718e-19)
(0.749997 0.186736 -7.64852e-19)
(0.675008 0.166272 4.56011e-19)
(0.20185 0.0506717 -5.50584e-19)
(0.411319 0.128155 -2.60548e-20)
(1.33532 0.405838 9.50998e-21)
(1.32437 0.411537 -1.0388e-20)
(1.28243 0.410692 -4.32483e-20)
(1.23518 0.408785 -4.45626e-20)
(1.18326 0.404828 1.6813e-21)
(1.12704 0.397666 -4.442e-20)
(1.06721 0.38598 7.78871e-20)
(1.00479 0.368287 -1.35607e-19)
(0.941193 0.343443 0)
(0.885577 0.315319 -6.03483e-20)
(0.843899 0.290405 -4.79066e-22)
(0.812896 0.270159 -8.38699e-20)
(0.789035 0.25392 0)
(0.770223 0.240988 -5.94871e-20)
(0.7551 0.230763 -1.40739e-19)
(0.742655 0.223015 3.8037e-19)
(0.730119 0.217187 -3.78649e-19)
(0.657706 0.194035 5.39403e-19)
(0.198619 0.0595062 -5.61444e-19)
(0.40996 0.147666 -1.00842e-21)
(1.33493 0.471267 -7.74267e-21)
(1.32284 0.476556 -3.72272e-20)
(1.27965 0.473476 2.01395e-20)
(1.23077 0.468822 -2.3831e-20)
(1.17668 0.461727 0)
(1.11777 0.451056 -4.34902e-20)
(1.05479 0.435401 -8.27207e-20)
(0.989053 0.41329 -7.12507e-20)
(0.92244 0.38359 0)
(0.864987 0.35111 -6.16526e-20)
(0.822731 0.323172 -7.34802e-20)
(0.791811 0.301052 8.83266e-20)
(0.768283 0.283665 -5.36203e-20)
(0.749903 0.269977 -2.48318e-19)
(0.735233 0.259281 1.48521e-19)
(0.723205 0.251056 4.49872e-20)
(0.711121 0.244685 0)
(0.641141 0.219078 -5.0171e-19)
(0.195616 0.0677228 -1.8192e-20)
(0.409216 0.16661 -1.98311e-21)
(1.3321 0.533706 6.87412e-21)
(1.31861 0.538889 2.02755e-20)
(1.27425 0.53397 7.32653e-20)
(1.2238 0.52703 -9.57943e-20)
(1.1677 0.517227 9.76223e-20)
(1.10623 0.503405 9.57155e-20)
(1.04027 0.483992 -1.33608e-19)
(0.9714 0.457441 4.181e-20)
(0.901992 0.422561 -2.66537e-19)
(0.84311 0.385178 -6.73391e-20)
(0.80083 0.353785 0)
(0.77046 0.329491 9.2521e-20)
(0.747659 0.310787 1.084e-19)
(0.72995 0.296312 1.29779e-19)
(0.715864 0.285012 -1.54598e-19)
(0.704381 0.276346 -4.55226e-20)
(0.692777 0.269431 5.50915e-20)
(0.625186 0.241616 0)
(0.1931 0.0754917 -3.80635e-20)
(0.408932 0.185064 8.86159e-21)
(1.32771 0.593352 -2.04428e-20)
(1.31259 0.598607 -2.30907e-20)
(1.26704 0.592176 5.07473e-20)
(1.21506 0.583338 -4.8081e-20)
(1.15695 0.57122 -2.73123e-21)
(1.09302 0.554533 -1.06054e-19)
(1.02411 0.531602 -4.85695e-20)
(0.952052 0.500598 -1.24448e-19)
(0.879877 0.460185 2.61014e-22)
(0.819837 0.417317 -2.08858e-19)
(0.77804 0.38193 1.65335e-19)
(0.748797 0.355195 -9.63928e-20)
(0.727161 0.335086 1.13642e-19)
(0.710403 0.319813 0)
(0.697072 0.308048 -7.89716e-20)
(0.686158 0.299031 -2.04141e-21)
(0.675092 0.291647 -2.24773e-19)
(0.610017 0.262014 -3.393e-20)
(0.191119 0.082926 0)
(0.409145 0.202856 0)
(1.32236 0.650343 -2.70184e-20)
(1.30542 0.655825 -4.21694e-20)
(1.25865 0.648146 -5.25499e-20)
(1.20514 0.63774 -5.7839e-20)
(1.14502 0.623621 0)
(1.07855 0.604395 -5.19133e-20)
(1.00666 0.5782 2.03971e-22)
(0.931244 0.542799 2.6874e-19)
(0.8561 0.496517 -3.73148e-20)
(0.795049 0.4474 -1.48445e-19)
(0.754264 0.40738 8.62878e-20)
(0.726805 0.37794 5.72427e-22)
(0.706852 0.35641 1.16503e-19)
(0.691435 0.340482 7.06637e-20)
(0.679038 0.328375 -1.66323e-19)
(0.668829 0.319145 1.95904e-19)
(0.658306 0.311491 5.7539e-20)
(0.595764 0.28038 2.42594e-19)
(0.189818 0.0901479 -6.50574e-19)
(0.409949 0.220437 -1.93004e-21)
(1.31647 0.704873 -8.91925e-21)
(1.29762 0.710636 1.44345e-20)
(1.24957 0.701962 5.33721e-20)
(1.19448 0.690255 0)
(1.13232 0.674454 -5.54692e-20)
(1.0633 0.653014 1.76965e-19)
(0.98824 0.623807 1.12639e-19)
(0.909225 0.584129 0)
(0.83074 0.531621 -5.28093e-19)
(0.768529 0.475397 3.90812e-19)
(0.729293 0.429907 0)
(0.704488 0.397342 1.0291e-19)
(0.686984 0.374481 1.19659e-21)
(0.673335 0.358126 -2.11576e-19)
(0.662132 0.346053 8.4366e-20)
(0.652652 0.336883 0)
(0.642712 0.329204 2.95976e-19)
(0.582819 0.297211 0)
(0.18959 0.0974538 -2.92083e-19)
(0.411195 0.237872 3.2213e-21)
(1.31032 0.757181 -3.52114e-21)
(1.28954 0.763187 1.78941e-20)
(1.24016 0.753687 0)
(1.18341 0.740907 -6.29773e-20)
(1.11923 0.723686 0)
(1.0476 0.70035 -1.83839e-19)
(0.969241 0.668464 -5.63846e-20)
(0.886276 0.624743 5.07662e-20)
(0.803789 0.565809 -2.61954e-19)
(0.740032 0.501383 4.14871e-20)
(0.702921 0.449139 0)
(0.6819 0.412929 -2.08444e-19)
(0.667854 0.388893 -1.37641e-21)
(0.656611 0.372657 0)
(0.646838 0.361087 1.07405e-21)
(0.638194 0.352429 2.51687e-19)
(0.628785 0.345076 -2.42203e-19)
(0.571667 0.312836 7.18593e-20)
(0.190378 0.105008 0)
(0.412465 0.255002 0)
(1.30408 0.807432 -6.38917e-22)
(1.28144 0.813575 -1.31656e-20)
(1.23071 0.803386 -2.52188e-21)
(1.17229 0.789701 -2.85582e-20)
(1.10605 0.771312 -1.36741e-19)
(1.03177 0.746398 6.98315e-20)
(0.949934 0.712233 -6.5309e-20)
(0.862591 0.664825 2.25056e-19)
(0.775345 0.59934 -4.24986e-19)
(0.709288 0.525483 1.67327e-21)
(0.674706 0.464882 -9.64171e-20)
(0.658955 0.424202 3.18298e-19)
(0.649844 0.399191 2.3697e-21)
(0.64189 0.383782 -1.41499e-19)
(0.633868 0.373527 -2.5845e-19)
(0.626025 0.366034 0)
(0.617067 0.359515 0)
(0.562874 0.327806 7.41234e-20)
(0.192399 0.113067 -4.21418e-20)
(0.414324 0.27216 8.20328e-21)
(1.29785 0.855635 2.30743e-21)
(1.27341 0.861858 1.59548e-20)
(1.22137 0.851094 0)
(1.16134 0.83665 -5.75225e-22)
(1.09306 0.817313 -1.40626e-19)
(1.01613 0.791123 1.80729e-19)
(0.930716 0.755144 2.72603e-19)
(0.838579 0.704533 3.03533e-19)
(0.745498 0.632593 -3.58417e-19)
(0.675829 0.548065 -3.27697e-19)
(0.644043 0.476834 2.51882e-19)
(0.635505 0.430261 0)
(0.633654 0.404585 -5.79314e-20)
(0.630139 0.391307 -1.43292e-19)
(0.624072 0.383512 -1.70082e-19)
(0.616936 0.377998 -2.0518e-19)
(0.608172 0.372946 6.02677e-20)
(0.557031 0.34263 -3.71593e-20)
(0.195763 0.121893 -1.2298e-21)
(0.416126 0.288903 0)
(1.29176 0.901883 0)
(1.26553 0.908135 1.27497e-21)
(1.21226 0.896848 0)
(1.1507 0.881773 9.70289e-20)
(1.08045 0.861687 1.09137e-19)
(1.00095 0.834537 0)
(0.911888 0.797189 3.53218e-20)
(0.814552 0.744038 5.28904e-19)
(0.714424 0.666093 -8.31845e-19)
(0.639331 0.569679 0)
(0.609984 0.484649 -1.53902e-19)
(0.611272 0.429856 2.22013e-21)
(0.620176 0.403992 5.41418e-22)
(0.622653 0.394866 1.33818e-19)
(0.61848 0.391308 -2.47426e-21)
(0.611424 0.389132 -4.09246e-19)
(0.602253 0.386253 1.24341e-19)
(0.554429 0.358124 3.64903e-20)
(0.200204 0.131491 0)
(0.417815 0.305225 -4.61494e-20)
(1.28578 0.946186 -5.68116e-21)
(1.25784 0.952384 2.40574e-20)
(1.20335 0.94065 -1.02938e-19)
(1.14042 0.925067 1.68934e-19)
(1.06837 0.904394 0)
(0.986442 0.876653 1.25573e-19)
(0.893809 0.838338 -7.93972e-20)
(0.790918 0.783373 1.85822e-21)
(0.682473 0.700233 6.01446e-20)
(0.59942 0.59111 4.33428e-19)
(0.571162 0.488242 -5.52434e-20)
(0.585566 0.421012 -1.62017e-19)
(0.610325 0.395663 -4.57952e-20)
(0.621723 0.394129 6.34309e-20)
(0.619394 0.398503 -3.69211e-21)
(0.61115 0.401283 1.02292e-19)
(0.600421 0.400927 -2.49938e-19)
(0.554259 0.375213 2.99994e-19)
(0.204479 0.141444 4.5059e-20)
(0.419043 0.320949 1.92762e-20)
(1.27999 0.988606 -3.21814e-21)
(1.25043 0.994641 5.55078e-21)
(1.19476 0.982467 -4.93859e-20)
(1.13051 0.966464 -3.17518e-20)
(1.05685 0.945391 -2.11629e-19)
(0.972777 0.917286 4.11938e-20)
(0.876734 0.878614 -3.42993e-19)
(0.768195 0.822587 -6.27122e-19)
(0.650187 0.735431 -5.25687e-19)
(0.555831 0.61341 0)
(0.525751 0.487817 -2.16261e-19)
(0.556992 0.401652 1.99153e-19)
(0.606361 0.37624 0)
(0.632183 0.389902 -1.20376e-19)
(0.630321 0.407781 7.3403e-20)
(0.616015 0.418361 -9.79397e-20)
(0.597975 0.419598 -1.29617e-19)
(0.552437 0.395007 -2.35833e-19)
(0.205596 0.150293 -1.8704e-19)
(0.420778 0.336419 -2.30079e-20)
(1.27432 1.02914 3.37451e-21)
(1.24329 1.03493 -6.71308e-21)
(1.18658 1.02232 -6.0231e-20)
(1.12111 1.0059 7.38989e-20)
(1.04595 0.984574 -1.34046e-19)
(0.959942 0.956384 1.37656e-19)
(0.860816 0.91786 -3.69351e-19)
(0.746788 0.861783 -3.87133e-19)
(0.618319 0.772083 5.83509e-19)
(0.508699 0.637909 9.92137e-19)
(0.471415 0.484321 0)
(0.521909 0.367835 0)
(0.611153 0.339335 -4.01586e-20)
(0.662557 0.379879 0)
(0.656863 0.422539 1.45728e-19)
(0.626187 0.446372 1.99173e-19)
(0.594118 0.44672 0)
(0.546609 0.415785 0)
(0.19864 0.154904 2.04045e-19)
(0.421978 0.351024 2.91186e-20)
(1.26872 1.06778 1.64314e-20)
(1.23635 1.07324 -4.43713e-21)
(1.17874 1.0602 4.60077e-20)
(1.11228 1.04345 7.57378e-20)
(1.03583 1.0219 1.6144e-19)
(0.947981 0.993847 -1.98895e-19)
(0.846083 0.955883 -5.51448e-21)
(0.726956 0.900792 -2.99171e-21)
(0.587711 0.810522 8.4262e-21)
(0.45872 0.666153 5.23793e-19)
(0.40553 0.479771 0)
(0.474281 0.315123 1.21578e-19)
(0.627872 0.273104 3.45207e-20)
(0.727184 0.362915 6.0369e-20)
(0.713694 0.45412 4.75083e-20)
(0.645713 0.490966 -1.1351e-19)
(0.590674 0.485444 -7.94316e-20)
(0.530504 0.438584 0)
(0.176608 0.148128 2.36699e-19)
(0.423644 0.365808 -7.07561e-20)
(1.26323 1.10461 0)
(1.22962 1.10959 1.47041e-21)
(1.17124 1.09607 3.50441e-20)
(1.10396 1.079 -7.53385e-20)
(1.02645 1.0574 -2.12177e-19)
(0.937144 1.02962 4.20919e-19)
(0.832645 0.992551 -2.48214e-20)
(0.708796 0.93925 0)
(0.558961 0.850927 -7.02998e-19)
(0.407403 0.699759 -1.21855e-18)
(0.325925 0.477839 3.53813e-20)
(0.403731 0.238524 6.03238e-20)
(0.661068 0.1541 0)
(0.853054 0.333631 -1.06122e-19)
(0.790301 0.561196 0)
(0.620965 0.623032 0)
(0.527784 0.573927 -9.93279e-20)
(0.464128 0.455851 0)
(0.150111 0.122031 7.01396e-20)
(0.42473 0.379637 -8.30183e-20)
(1.25771 1.13976 0)
(1.22302 1.14405 9.70798e-21)
(1.1641 1.1301 0)
(1.09615 1.11279 3.6674e-20)
(1.01773 1.09122 0)
(0.92735 1.06398 2.47488e-20)
(0.820694 1.02818 5.66778e-20)
(0.692427 0.977536 5.27578e-20)
(0.532351 0.893512 -8.06232e-19)
(0.35593 0.741206 4.12573e-20)
(0.229869 0.484258 2.49183e-19)
(0.290851 0.130294 5.22008e-21)
(0.701712 -0.0818317 -3.96461e-20)
(1.12577 0.208686 -3.03121e-19)
(1.00911 0.601761 0)
(0.686896 0.756806 2.63011e-19)
(0.439987 0.677069 -2.0353e-19)
(0.214342 0.447779 2.69179e-19)
(-0.050582 0.661004 -3.57576e-19)
(0.425941 0.393285 7.24136e-20)
(1.25197 1.17351 7.67027e-20)
(1.21644 1.1769 0)
(1.15721 1.16268 3.33397e-21)
(1.08872 1.14543 -8.88641e-20)
(1.0095 1.12418 3.6468e-19)
(0.918243 1.09779 1.65156e-19)
(0.809832 1.06393 0)
(0.677602 1.01707 3.72443e-19)
(0.507195 0.940222 -4.54384e-20)
(0.303232 0.795504 0)
(0.112013 0.510629 0)
(0.0828837 -0.00536757 -7.75918e-20)
(0.561473 -0.266525 3.64844e-19)
(1.29533 0.347585 7.19127e-19)
(1.19401 0.929989 0)
(0.72879 1.15573 1.40979e-19)
(0.26828 1.07792 -2.35952e-19)
(0.169935 2.20409 -1.34602e-19)
(0.157022 2.94683 -1.44887e-19)
(0.427134 0.405793 -5.82093e-20)
(1.24572 1.20576 -1.03651e-19)
(1.2099 1.2079 8.18307e-21)
(1.15064 1.19362 -1.53339e-20)
(1.08167 1.17659 0)
(1.0018 1.15584 2.48727e-19)
(0.910055 1.13061 2.50449e-19)
(0.800207 1.09905 -3.02149e-20)
(0.665111 1.05711 5.69439e-20)
(0.485519 0.990298 8.26025e-19)
(0.253331 0.863269 7.3245e-19)
(-0.0206111 0.583344 3.56692e-19)
(-0.27179 0.07293 -1.81914e-19)
(0.0221291 0.152284 1.45387e-18)
(0.987208 1.11558 1.63148e-18)
(1.13044 1.77817 0)
(0.620128 1.767 0)
(0.35769 2.7216 3.4234e-20)
(0.294737 3.19559 0)
(0.233205 3.27195 1.24751e-19)
(0.431116 0.418919 0)
(1.23858 1.23613 0)
(1.20328 1.23663 0)
(1.14416 1.22264 -1.26698e-21)
(1.07475 1.20603 -7.88736e-20)
(0.994358 1.18598 1.7569e-19)
(0.902724 1.1623 1.7117e-19)
(0.791862 1.13342 -3.08596e-20)
(0.654753 1.097 5.06489e-19)
(0.468891 1.04352 6.15776e-21)
(0.211998 0.945693 1.57287e-18)
(-0.143591 0.732915 -3.16747e-20)
(-0.610838 0.438895 7.76362e-22)
(-0.686506 1.03493 -2.67812e-19)
(0.31811 2.21804 1.21536e-20)
(0.628275 2.68405 -4.41722e-20)
(0.400024 3.14581 6.08761e-19)
(0.357816 3.41852 1.19013e-19)
(0.267848 3.40562 -7.92653e-21)
(0.211876 3.38296 2.33874e-20)
(0.296374 0.345592 3.74485e-20)
(1.22989 1.26385 0)
(1.19744 1.26354 -3.00826e-20)
(1.13831 1.25037 2.53036e-20)
(1.06862 1.23441 -1.29937e-19)
(0.988031 1.21516 -1.79837e-19)
(0.896683 1.19197 -1.9043e-19)
(0.785816 1.16592 3.89078e-19)
(0.648176 1.13517 -4.34053e-19)
(0.460304 1.09591 0)
(0.195007 1.03875 8.36712e-19)
(-0.187904 0.948315 -3.74161e-19)
(-0.707367 0.91068 0)
(-1.15923 1.7791 -1.27649e-19)
(-0.326179 3.04385 -4.51764e-19)
(0.0609125 3.4866 3.20568e-19)
(0.15699 3.61179 -2.67933e-19)
(0.21592 3.5479 -1.3262e-19)
(0.187451 3.47893 -9.63106e-20)
(0.16823 3.44498 -1.63476e-19)
(0.5223 0.514099 -4.36095e-20)
(1.21251 1.28253 0)
(1.1883 1.30331 4.203e-20)
(1.12766 1.29159 -7.1673e-21)
(1.05712 1.27668 1.12365e-19)
(0.975716 1.25879 1.63764e-19)
(0.882448 1.23843 2.45145e-19)
(0.770743 1.21644 3.0964e-20)
(0.631525 1.19461 4.5586e-19)
(0.439732 1.17752 8.39424e-19)
(0.164269 1.18025 5.27029e-20)
(-0.242554 1.24776 4.18476e-19)
(-0.772016 1.60887 4.22151e-20)
(-0.936762 2.53185 2.89749e-20)
(-0.456187 3.2612 2.03956e-19)
(-0.154833 3.48261 -2.15576e-19)
(0.0186141 3.50285 2.56932e-19)
(0.094265 3.48134 1.2899e-19)
(0.115362 3.47489 1.18047e-19)
(0.116139 3.4731 1.35237e-20)
(0.517083 0.515477 0)
(1.2135 1.31097 2.32045e-20)
(1.18323 1.33136 -1.17122e-20)
(1.12177 1.32039 -2.3024e-21)
(1.0508 1.30593 6.33733e-20)
(0.969413 1.28882 -1.53222e-19)
(0.875978 1.26945 -1.53453e-19)
(0.764717 1.24993 2.95753e-20)
(0.627277 1.23424 -4.96449e-19)
(0.439755 1.2325 -3.9443e-21)
(0.177427 1.27211 -1.71906e-18)
(-0.178904 1.419 5.67758e-20)
(-0.578424 1.83036 -5.41736e-20)
(-0.671276 2.57318 1.25476e-20)
(-0.337117 3.12533 -5.31061e-20)
(-0.0794638 3.30515 -2.1344e-20)
(0.0539296 3.38786 -4.8389e-19)
(0.114968 3.43442 -3.00174e-19)
(0.127786 3.4671 1.86047e-19)
(0.110149 3.48155 1.23172e-19)
(0.492256 0.507974 7.52189e-20)
(1.21342 1.34368 1.65387e-19)
(1.17821 1.36241 -3.318e-20)
(1.1157 1.35139 -7.18041e-21)
(1.04435 1.33708 0)
(0.963025 1.32029 -1.8451e-19)
(0.869751 1.30169 -2.1127e-19)
(0.759908 1.28478 2.80076e-20)
(0.625386 1.27503 -5.54903e-20)
(0.446013 1.28725 -8.44205e-19)
(0.206996 1.35651 -8.40203e-19)
(-0.0848038 1.54962 -5.43234e-19)
(-0.351679 1.95427 -4.44839e-19)
(-0.372141 2.52836 1.66309e-19)
(-0.139756 2.94659 -1.5395e-19)
(0.0440158 3.16247 0)
(0.145726 3.29328 0)
(0.19434 3.40614 1.89094e-19)
(0.179644 3.47342 0)
(0.121524 3.5008 2.68418e-19)
(0.470472 0.50487 -1.26338e-19)
(1.21063 1.37949 -1.54418e-19)
(1.17208 1.39586 0)
(1.10856 1.38402 5.67559e-21)
(1.03693 1.3693 3.60066e-20)
(0.955753 1.35237 -2.45605e-19)
(0.863262 1.33463 -1.30143e-19)
(0.755681 1.32023 2.27598e-20)
(0.625065 1.31508 -3.99103e-19)
(0.454465 1.33602 4.56334e-20)
(0.241558 1.42684 0)
(0.019097 1.64132 0)
(-0.138179 2.01283 -4.53589e-19)
(-0.112715 2.46715 9.38453e-20)
(0.0620149 2.81608 -2.84988e-20)
(0.204473 3.05778 0)
(0.292526 3.2392 2.94623e-19)
(0.326337 3.36626 -4.58191e-19)
(0.307565 3.52025 -4.05917e-19)
(0.16521 3.5458 3.82321e-20)