/*--------------------------------*- C++ -*----------------------------------*\
  =========                 |
  \\      /  F ield         | OpenFOAM: The Open Source CFD Toolbox
   \\    /   O peration     | Website:  https://openfoam.org
    \\  /    A nd           | Version:  10
     \\/     M anipulation  |
\*---------------------------------------------------------------------------*/
FoamFile
{
    format      ascii;
    class       volScalarField;
    location    "11";
    object      p;
}
// * * * * * * * * * * * * * * * * * * * * * * * * * * * * * * * * * * * * * //

dimensions      [0 2 -2 0 0 0 0];

internalField   nonuniform List<scalar> 
8800
(
0.434916
0.387193
0.348613
0.319729
0.299004
0.284332
0.273921
0.266616
0.261907
0.259826
0.260816
0.264624
0.270862
0.2798
0.292272
0.309763
0.334354
0.368156
0.410544
0.469236
0.26593
0.273614
0.281402
0.28481
0.283456
0.27859
0.272347
0.26648
0.261896
0.259068
0.258618
0.260802
0.264891
0.270428
0.2768
0.282726
0.286107
0.285227
0.279517
0.27064
0.244169
0.250408
0.254697
0.257911
0.260229
0.261098
0.26024
0.258352
0.25644
0.255443
0.25614
0.258121
0.26046
0.262188
0.262374
0.260788
0.258089
0.254381
0.249704
0.245898
0.237977
0.240725
0.24388
0.246708
0.248709
0.25015
0.251139
0.251479
0.251317
0.251236
0.251648
0.252326
0.252654
0.252223
0.251164
0.249607
0.247285
0.244196
0.24145
0.23996
0.232499
0.234004
0.236413
0.239176
0.241598
0.243428
0.244684
0.245573
0.246186
0.246605
0.246922
0.246988
0.24665
0.245898
0.244584
0.242596
0.240061
0.237379
0.235597
0.23483
0.2283
0.229095
0.231091
0.233488
0.235779
0.237921
0.239727
0.241067
0.241998
0.242642
0.242975
0.242878
0.242261
0.241046
0.239291
0.237244
0.234997
0.232732
0.231419
0.231111
0.226681
0.227082
0.228252
0.229766
0.231296
0.232729
0.234118
0.235462
0.23663
0.2375
0.237869
0.237677
0.237037
0.236119
0.235043
0.233743
0.232332
0.231001
0.230276
0.230138
0.225329
0.225536
0.226169
0.227079
0.228134
0.229445
0.230813
0.232109
0.23328
0.234239
0.234744
0.234698
0.234224
0.233407
0.232426
0.23156
0.230758
0.230056
0.229692
0.229621
0.223173
0.223287
0.223646
0.224231
0.224939
0.225665
0.226678
0.227818
0.228986
0.230051
0.230725
0.230893
0.230696
0.230336
0.229967
0.229521
0.2291
0.22874
0.228565
0.228523
0.220265
0.220324
0.220587
0.221058
0.221614
0.222443
0.223313
0.224338
0.225485
0.22666
0.227561
0.228019
0.228134
0.228014
0.227801
0.227602
0.227318
0.227078
0.226984
0.226965
0.217046
0.217081
0.217279
0.217671
0.218186
0.218853
0.219676
0.220708
0.221937
0.223297
0.224477
0.225234
0.225639
0.225818
0.225828
0.225739
0.225604
0.225491
0.225458
0.225447
0.213518
0.213543
0.213697
0.214015
0.214477
0.215106
0.215943
0.217033
0.2184
0.220016
0.221543
0.222645
0.223351
0.22377
0.223988
0.224077
0.224086
0.224075
0.224079
0.224071
0.209589
0.209617
0.209752
0.210041
0.210489
0.211137
0.212045
0.213276
0.214878
0.216854
0.21881
0.2203
0.221314
0.221982
0.222396
0.222638
0.22277
0.22284
0.222872
0.222863
0.205181
0.205203
0.205358
0.205658
0.206138
0.206858
0.207898
0.209346
0.211281
0.213725
0.216209
0.218155
0.219539
0.220479
0.221096
0.221485
0.221721
0.221855
0.221909
0.2219
0.200231
0.200256
0.200431
0.200777
0.201336
0.202187
0.203433
0.205195
0.207579
0.210632
0.213777
0.216287
0.218094
0.219335
0.220164
0.220702
0.221038
0.22123
0.221305
0.221295
0.194625
0.194656
0.194869
0.195289
0.195972
0.197015
0.198554
0.20074
0.203717
0.207551
0.211527
0.214718
0.217019
0.218618
0.219694
0.220396
0.220838
0.221091
0.22119
0.221177
0.188208
0.188246
0.188515
0.189042
0.189899
0.19121
0.193143
0.195893
0.19964
0.204469
0.209481
0.213503
0.216413
0.218438
0.219805
0.220699
0.221262
0.221585
0.22171
0.221695
0.180768
0.180818
0.181164
0.181837
0.182932
0.184605
0.187062
0.19055
0.195292
0.201383
0.207685
0.212734
0.216384
0.218926
0.220641
0.221764
0.222472
0.222876
0.223033
0.223015
0.17201
0.172076
0.172523
0.173402
0.17483
0.176997
0.180145
0.184588
0.19061
0.198297
0.206204
0.212515
0.217069
0.220239
0.222379
0.22378
0.22466
0.225161
0.225356
0.225333
0.161528
0.161615
0.162203
0.163359
0.165234
0.168039
0.172119
0.177856
0.185526
0.195227
0.20512
0.212974
0.21863
0.222566
0.225226
0.226966
0.228057
0.228674
0.228914
0.228885
0.148763
0.148882
0.149665
0.151211
0.153703
0.157415
0.162764
0.170169
0.179969
0.192201
0.204534
0.214262
0.221254
0.226124
0.229422
0.231585
0.23294
0.233704
0.233998
0.233956
0.132932
0.133102
0.134167
0.136282
0.139661
0.144628
0.151687
0.161343
0.173897
0.189281
0.204572
0.216549
0.22515
0.231154
0.235238
0.237933
0.239628
0.240575
0.240937
0.240881
0.112858
0.113105
0.11461
0.117607
0.122299
0.129087
0.138585
0.151269
0.167343
0.18659
0.205399
0.220026
0.230537
0.237915
0.242973
0.246345
0.248489
0.249688
0.250127
0.250054
0.0866404
0.0870202
0.0893027
0.0938009
0.100596
0.110191
0.123181
0.139917
0.160436
0.184317
0.207206
0.224877
0.237616
0.246646
0.252922
0.257175
0.259929
0.261493
0.262067
0.261967
0.0510422
0.0517338
0.0556181
0.0629311
0.0733288
0.0873188
0.105303
0.127402
0.153403
0.182685
0.210159
0.231224
0.246494
0.257484
0.265298
0.27074
0.274373
0.276474
0.277245
0.277108
-0.000166298
0.00191119
0.00988391
0.0229158
0.0396451
0.0603877
0.0852735
0.11416
0.146632
0.181951
0.214374
0.239071
0.257107
0.270343
0.280053
0.287126
0.29211
0.295199
0.296374
0.29618
-0.0773685
-0.066781
-0.0484739
-0.0251336
0.00113861
0.0308835
0.0641829
0.100854
0.140491
0.182406
0.220241
0.249015
0.270302
0.286335
0.298594
0.308106
0.315447
0.32056
0.322965
0.323253
-0.15957
-0.136171
-0.107109
-0.0734831
-0.0374632
0.00134792
0.043068
0.0876497
0.134813
0.184026
0.228282
0.26218
0.287693
0.30742
0.323071
0.335771
0.34613
0.355148
0.360084
0.360525
-0.222831
-0.197267
-0.159964
-0.118153
-0.073687
-0.0266026
0.0230819
0.0752449
0.129605
0.185666
0.235739
0.274031
0.302897
0.325304
0.343115
0.357542
0.369234
0.378752
0.38331
0.383987
-0.273845
-0.246199
-0.204292
-0.156647
-0.105756
-0.0519507
0.00454853
0.0634411
0.124331
0.186624
0.241791
0.283586
0.314776
0.338677
0.357386
0.37232
0.38434
0.393733
0.398495
0.399177
-0.314903
-0.286712
-0.241468
-0.189519
-0.133767
-0.0746378
-0.0124788
0.0522446
0.11893
0.186768
0.246384
0.291099
0.324054
0.348971
0.368209
0.38333
0.395323
0.404476
0.409359
0.410058
-0.349621
-0.321215
-0.273631
-0.218305
-0.158576
-0.095012
-0.0280703
0.0417001
0.113572
0.186533
0.250274
0.297594
0.332037
0.357727
0.377274
0.392417
0.404301
0.413214
0.418093
0.418813
-0.380007
-0.351601
-0.302197
-0.244181
-0.181176
-0.113843
-0.0427069
0.0315992
0.108215
0.185898
0.253473
0.303246
0.339096
0.365516
0.38538
0.400591
0.412395
0.42115
0.425953
0.426689
-0.407497
-0.379015
-0.328286
-0.268007
-0.202238
-0.131663
-0.0568465
0.0215052
0.102458
0.184651
0.256057
0.308359
0.345698
0.372928
0.393175
0.40851
0.420287
0.428936
0.433629
0.43438
-0.432963
-0.404381
-0.352521
-0.290342
-0.222223
-0.14887
-0.0708305
0.0111978
0.0962521
0.182852
0.258144
0.313124
0.35211
0.380282
0.401014
0.416547
0.428345
0.436898
0.441461
0.442275
-0.457065
-0.428314
-0.375467
-0.311649
-0.241502
-0.165706
-0.0847786
0.0006057
0.0895035
0.18039
0.259684
0.317583
0.358461
0.387773
0.40913
0.424957
0.436837
0.445332
0.449754
0.450597
-0.480044
-0.451088
-0.397366
-0.33222
-0.260286
-0.182344
-0.0988597
-0.01044
0.0820539
0.177166
0.260606
0.321716
0.364794
0.395496
0.417664
0.433906
0.44594
0.454424
0.458703
0.459515
-0.502259
-0.472983
-0.418514
-0.352227
-0.278751
-0.19895
-0.113198
-0.0220151
0.0738436
0.173074
0.260794
0.325427
0.371068
0.403477
0.426688
0.443507
0.455806
0.464331
0.468463
0.469198
-0.523743
-0.494179
-0.439157
-0.371748
-0.296949
-0.215533
-0.12779
-0.0341398
0.0648212
0.168012
0.260104
0.328566
0.377172
0.411669
0.436221
0.453819
0.466507
0.475126
0.479145
0.479719
-0.544578
-0.514693
-0.459178
-0.390815
-0.314888
-0.232089
-0.142631
-0.0468092
0.0549682
0.161912
0.25838
0.330937
0.382923
0.419956
0.446206
0.464837
0.478059
0.486851
0.490793
0.491161
-0.564825
-0.534596
-0.478605
-0.409438
-0.332573
-0.248597
-0.157676
-0.0599762
0.0443079
0.154737
0.255483
0.332318
0.388061
0.428105
0.456494
0.476482
0.490452
0.499485
0.503349
0.503497
-0.58453
-0.553958
-0.497442
-0.427599
-0.349933
-0.264996
-0.172856
-0.0735718
0.0328913
0.146463
0.251305
0.332461
0.392252
0.435798
0.466903
0.488652
0.50358
0.512904
0.516606
0.516561
-0.603519
-0.572629
-0.515632
-0.445245
-0.366919
-0.281197
-0.188092
-0.0875023
0.0207974
0.137133
0.245736
0.331121
0.395155
0.442711
0.477206
0.501295
0.51742
0.526981
0.530388
0.530103
-0.621781
-0.590581
-0.533185
-0.462314
-0.383467
-0.297137
-0.203278
-0.101674
0.00812821
0.126805
0.23875
0.328109
0.396407
0.448333
0.486959
0.514313
0.532072
0.541587
0.544321
0.543756
-0.639348
-0.607781
-0.550053
-0.478779
-0.399513
-0.312732
-0.218321
-0.115966
-0.00500305
0.115578
0.230375
0.323296
0.395593
0.451954
0.495442
0.52745
0.548091
0.55722
0.557976
0.556944
-0.656083
-0.624249
-0.566186
-0.494568
-0.414999
-0.327906
-0.233128
-0.130259
-0.0184507
0.103589
0.22067
0.316634
0.392445
0.452791
0.501443
0.539751
0.566036
0.576402
0.572631
0.569545
-0.672079
-0.639937
-0.581598
-0.509709
-0.429959
-0.342706
-0.247757
-0.144615
-0.0322843
0.0907836
0.209541
0.307883
0.386708
0.450124
0.503244
0.548871
0.584558
0.603841
0.599218
0.575063
-0.687294
-0.654901
-0.596398
-0.524364
-0.444655
-0.357431
-0.262595
-0.159504
-0.0470478
0.0764955
0.196285
0.296208
0.377555
0.442808
0.497635
0.54883
0.592045
0.613448
0.601331
0.572856
-0.701615
-0.669295
-0.610426
-0.538292
-0.458811
-0.371754
-0.277413
-0.174592
-0.0624026
0.0610701
0.181148
0.281561
0.364589
0.430827
0.480945
0.530007
0.565919
0.573798
0.507961
0.462167
-0.714436
-0.683666
-0.623232
-0.550928
-0.47182
-0.385261
-0.291942
-0.189674
-0.0781251
0.0446882
0.164179
0.264046
0.347301
0.415117
0.455467
0.482305
0.503234
0.463759
0.386289
0.33487
-0.766691
-0.694671
-0.634763
-0.563712
-0.485035
-0.399231
-0.306285
-0.205004
-0.0945362
0.0269932
0.144993
0.243265
0.324186
0.396218
0.412541
0.412388
0.384097
0.315602
0.225384
0.175385
-0.722289
-0.70861
-0.650688
-0.581919
-0.503664
-0.418833
-0.327579
-0.227882
-0.119416
-0.000515801
0.113624
0.207511
0.281499
0.340079
0.346736
0.217536
0.093264
0.0070155
-0.0822865
-0.0320261
-0.74889
-0.721959
-0.665033
-0.595737
-0.518291
-0.434221
-0.343407
-0.245061
-0.138306
-0.0217782
0.0886505
0.177437
0.244412
0.276281
0.21703
0.0365134
-0.130111
-0.247981
-0.37776
-0.292897
-0.768327
-0.737629
-0.68088
-0.611133
-0.534171
-0.450757
-0.36075
-0.263993
-0.159305
-0.0457562
0.0603495
0.14283
0.200354
0.205552
0.0741039
-0.170237
-0.378854
-0.53881
-0.723916
-0.647492
-0.786388
-0.754229
-0.696628
-0.626532
-0.549841
-0.467099
-0.378294
-0.283228
-0.180785
-0.0706195
0.0305049
0.106306
0.151736
0.116693
-0.0963956
-0.384807
-0.657623
-0.898378
-1.16949
-1.14112
-0.802849
-0.770751
-0.712565
-0.642254
-0.565859
-0.483885
-0.39644
-0.303161
-0.20321
-0.0965925
-0.000929206
0.0674278
0.0960233
0.0117384
-0.264
-0.587673
-0.921588
-1.22656
-1.58914
-1.96299
-0.818764
-0.787085
-0.728854
-0.658553
-0.582489
-0.501315
-0.415207
-0.323845
-0.226516
-0.123551
-0.0336761
0.0262571
0.037616
-0.0994787
-0.415853
-0.751561
-1.09905
-1.39489
-1.52872
-1.74397
-0.834757
-0.803492
-0.745562
-0.675544
-0.599955
-0.519741
-0.435147
-0.345975
-0.251551
-0.152763
-0.0693483
-0.0192597
-0.0283939
-0.231473
-0.551575
-0.873413
-1.17569
-1.36727
-1.40053
-1.43718
-0.851059
-0.820203
-0.76263
-0.69309
-0.618161
-0.539126
-0.456394
-0.369849
-0.278861
-0.184759
-0.108252
-0.0692528
-0.109425
-0.36607
-0.67232
-0.966318
-1.23117
-1.35134
-1.36566
-1.36766
-0.867785
-0.837213
-0.77996
-0.710955
-0.636848
-0.559251
-0.478717
-0.39528
-0.308284
-0.219141
-0.149915
-0.123319
-0.198614
-0.494974
-0.789247
-1.04294
-1.28771
-1.36944
-1.34178
-1.32987
-0.88469
-0.854311
-0.79734
-0.728895
-0.655789
-0.579837
-0.501959
-0.4222
-0.339725
-0.25591
-0.194375
-0.182779
-0.299296
-0.625725
-0.911357
-1.07673
-1.2092
-1.26836
-1.28498
-1.28469
-0.901381
-0.871143
-0.814403
-0.746511
-0.674537
-0.600561
-0.525757
-0.450313
-0.373163
-0.294643
-0.24034
-0.245684
-0.412504
-0.77037
-1.05682
-1.10993
-1.06027
-1.22008
-1.29763
-1.31672
-0.917127
-0.887142
-0.830563
-0.76326
-0.692541
-0.620783
-0.549509
-0.479245
-0.408181
-0.335141
-0.286785
-0.306487
-0.535803
-0.965164
-1.32678
-1.4892
-1.39977
-1.44772
-1.48672
-1.5018
-0.931289
-0.901384
-0.845111
-0.778478
-0.709038
-0.639751
-0.572601
-0.508511
-0.444741
-0.378161
-0.332179
-0.363258
-0.652857
-1.21792
-1.73969
-2.14061
-1.95922
-1.82548
-1.78716
-1.78455
-0.942934
-0.913378
-0.857209
-0.791109
-0.72309
-0.656557
-0.594223
-0.537698
-0.484441
-0.425475
-0.375448
-0.41703
-0.76191
-1.36979
-1.93224
-2.27119
-2.19269
-2.07951
-2.04503
-2.04268
-0.95075
-0.921259
-0.865552
-0.800041
-0.733553
-0.670015
-0.61315
-0.566303
-0.52829
-0.482845
-0.430431
-0.485429
-0.833655
-1.3857
-1.93446
-2.27825
-2.39816
-2.3834
-2.30699
-2.29133
-0.95338
-0.924195
-0.868873
-0.804034
-0.739122
-0.678763
-0.628208
-0.593902
-0.580028
-0.567789
-0.529746
-0.575217
-0.891997
-1.4051
-1.98003
-2.51606
-2.77976
-2.76315
-2.58831
-2.47969
-0.949567
-0.92064
-0.865574
-0.801721
-0.738402
-0.68125
-0.637801
-0.619739
-0.643573
-0.712134
-0.743893
-0.752771
-0.918439
-1.27162
-1.70387
-2.2077
-2.43007
-2.35262
-2.12415
-1.98574
-0.938083
-0.90929
-0.855073
-0.791845
-0.730002
-0.675808
-0.639582
-0.640989
-0.722682
-0.958599
-1.17486
-1.02979
-0.878258
-0.823575
-0.780633
-0.778732
-0.731317
-0.579979
-0.395308
-0.302971
-0.917577
-0.888934
-0.835504
-0.773313
-0.712607
-0.660623
-0.630404
-0.65164
-0.809105
-1.31185
-1.83144
-1.3804
-0.809762
-0.197397
0.379861
0.822337
1.1385
1.33577
1.44887
1.48895
-0.887127
-0.858704
-0.806324
-0.745214
-0.685099
-0.633888
-0.607062
-0.638665
-0.852831
-1.59678
-2.48852
-1.63946
-0.669783
0.275213
1.05187
1.61935
1.98499
2.1369
2.19628
2.20974
-0.846261
-0.818373
-0.767072
-0.706936
-0.646666
-0.593474
-0.562027
-0.585284
-0.784416
-1.48959
-2.25775
-1.33891
-0.359408
0.552316
1.21117
1.63423
1.87787
1.9928
2.04371
2.05526
-0.794494
-0.767208
-0.717881
-0.658844
-0.598032
-0.540872
-0.497613
-0.493221
-0.601542
-0.979013
-1.20983
-0.571145
0.130138
0.743856
1.15132
1.40783
1.55958
1.64687
1.69351
1.69928
-0.730583
-0.705584
-0.659231
-0.60221
-0.541632
-0.481013
-0.425962
-0.388216
-0.392716
-0.456235
-0.384936
0.028136
0.466419
0.801686
1.02981
1.18299
1.28483
1.35279
1.38575
1.39106
-0.656951
-0.633979
-0.592463
-0.538729
-0.480013
-0.418142
-0.355095
-0.293476
-0.234174
-0.155931
0.00923642
0.270519
0.535747
0.730422
0.87069
0.972326
1.04587
1.0966
1.12517
1.13427
-0.57245
-0.556895
-0.518132
-0.469323
-0.41467
-0.35489
-0.289692
-0.217854
-0.13392
-0.0192606
0.14014
0.319109
0.480413
0.603538
0.695269
0.764344
0.816736
0.853973
0.874877
0.880263
-0.465034
-0.457216
-0.429738
-0.390329
-0.344389
-0.292078
-0.232243
-0.163016
-0.0793
0.0308332
0.166452
0.301129
0.415667
0.503881
0.569322
0.616768
0.650871
0.675742
0.690755
0.694037
-0.35796
-0.354432
-0.335931
-0.306986
-0.27172
-0.22979
-0.179546
-0.118934
-0.0438154
0.0533651
0.165464
0.269547
0.35468
0.419243
0.466012
0.498881
0.52118
0.535083
0.541885
0.543479
-0.255577
-0.253797
-0.243243
-0.224319
-0.199675
-0.1686
-0.1294
-0.0797852
-0.0164522
0.0653094
0.156311
0.237022
0.300838
0.34817
0.381526
0.403965
0.418224
0.426569
0.43044
0.430842
-0.162568
-0.162352
-0.157377
-0.14715
-0.132174
-0.111355
-0.0828797
-0.044542
0.00622717
0.0724198
0.145131
0.207914
0.256163
0.290993
0.314867
0.330267
0.33945
0.344336
0.346263
0.346252
-0.0863569
-0.0869958
-0.0864742
-0.0829119
-0.0755513
-0.0627529
-0.043061
-0.0146079
0.0247978
0.0771397
0.134281
0.182663
0.219039
0.244769
0.261794
0.272331
0.278318
0.2812
0.282172
0.282023
-0.0318339
-0.0327447
-0.0343456
-0.0349416
-0.0322485
-0.0250649
-0.0119056
0.00877015
0.038642
0.0791276
0.12339
0.1605
0.187878
0.206758
0.219051
0.226479
0.23041
0.232095
0.232578
0.232399
0.00331987
0.00249349
0.000507187
-0.00105891
-0.000623105
0.00307937
0.0114907
0.0261746
0.0485231
0.0794885
0.113414
0.141576
0.162159
0.176238
0.185141
0.190239
0.192782
0.193717
0.193896
0.193721
0.0246762
0.0240858
0.0224662
0.0209424
0.0208132
0.0230424
0.0286664
0.0389853
0.0553946
0.0787612
0.104621
0.126042
0.141456
0.151689
0.158
0.161536
0.163156
0.163594
0.163594
0.163445
0.03732
0.0369362
0.035848
0.0347318
0.0344972
0.0359255
0.0399382
0.0475299
0.0597068
0.077217
0.0966681
0.112659
0.124057
0.131617
0.13622
0.13867
0.139681
0.139848
0.139774
0.139655
0.0448912
0.0446437
0.0439466
0.0432138
0.0430715
0.0440578
0.046857
0.0523388
0.0613711
0.0744955
0.0891179
0.101156
0.109696
0.115253
0.118538
0.120238
0.120885
0.12093
0.120841
0.120746
0.0492494
0.049084
0.0486123
0.0481167
0.0480486
0.0488114
0.0509054
0.0549462
0.061616
0.0714041
0.0823536
0.0913099
0.0975989
0.101652
0.104023
0.105211
0.10562
0.1056
0.105511
0.105434
0.0512571
0.051142
0.0507976
0.0504294
0.0503738
0.050923
0.0524571
0.0554551
0.0604223
0.0677103
0.0758619
0.0825237
0.0871879
0.0901662
0.0918764
0.0927065
0.092964
0.0929148
0.0928334
0.0927721
0.0514486
0.0513677
0.0511182
0.0508482
0.0508116
0.0512232
0.0523586
0.0545715
0.0582538
0.0636804
0.0697553
0.0746996
0.0781346
0.0803048
0.0815322
0.0821076
0.0822624
0.0821985
0.0821262
0.0820772
0.05028
0.0502214
0.0500417
0.0498459
0.0498226
0.050131
0.0509767
0.0526229
0.0553582
0.0593862
0.0638913
0.0675485
0.0700754
0.0716581
0.0725386
0.0729365
0.0730249
0.0729579
0.0728956
0.0728564
0.0481147
0.0480706
0.0479412
0.0478017
0.0477895
0.0480218
0.0486505
0.0498707
0.0518996
0.0548889
0.0582275
0.0609284
0.0627836
0.0639342
0.0645636
0.0648363
0.0648826
0.064819
0.0647659
0.0647345
0.0452254
0.0451915
0.0450967
0.0449964
0.0449908
0.0451658
0.0456333
0.0465386
0.0480413
0.0502547
0.0527217
0.0547101
0.0560676
0.0569016
0.0573496
0.0575352
0.0575552
0.0574971
0.0574523
0.0574272
0.0418042
0.0417777
0.0417064
0.0416321
0.041628
0.0417573
0.0421029
0.0427716
0.0438822
0.0455166
0.0473361
0.0487956
0.0497852
0.0503873
0.0507044
0.0508286
0.0508322
0.0507805
0.0507429
0.0507229
0.0379878
0.0379669
0.0379119
0.0378546
0.0378491
0.0379425
0.0381956
0.0386879
0.0395055
0.0407085
0.042044
0.0431106
0.0438299
0.0442621
0.0444846
0.0445658
0.0445592
0.044514
0.0444826
0.0444667
0.0338749
0.0338583
0.033815
0.0337694
0.033762
0.0338275
0.0340108
0.0343696
0.0349674
0.035848
0.0368241
0.0376009
0.03812
0.0384277
0.0385813
0.0386317
0.038619
0.0385797
0.0385536
0.0385411
0.0295402
0.0295269
0.0294922
0.029455
0.0294455
0.0294894
0.0296195
0.029878
0.0303117
0.0309515
0.0316596
0.0322203
0.0325918
0.0328081
0.0329123
0.0329417
0.0329257
0.0328917
0.0328701
0.0328603
0.0250405
0.0250299
0.0250019
0.0249708
0.0249593
0.0249865
0.0250762
0.0252596
0.02557
0.026029
0.026536
0.0269355
0.0271976
0.0273475
0.0274166
0.027432
0.0274149
0.027386
0.0273682
0.0273604
0.0204182
0.0204096
0.0203869
0.0203609
0.0203485
0.0203636
0.0204233
0.0205499
0.0207672
0.0210902
0.021447
0.0217266
0.0219076
0.0220083
0.0220511
0.022056
0.0220385
0.0220139
0.0219993
0.0219933
0.015705
0.0156982
0.0156801
0.0156584
0.0156456
0.0156518
0.0156891
0.0157728
0.0159188
0.0161377
0.0163799
0.0165685
0.016689
0.0167537
0.0167783
0.0167766
0.0167599
0.0167391
0.0167272
0.0167226
0.010926
0.0109211
0.0109066
0.0108884
0.0108761
0.0108765
0.0108975
0.0109486
0.01104
0.0111779
0.0113303
0.0114481
0.0115215
0.0115591
0.011571
0.011566
0.0115511
0.0115343
0.0115251
0.0115219
0.00609778
0.00609426
0.00608339
0.00607028
0.00606125
0.0060593
0.00606841
0.00609393
0.00614115
0.00621264
0.00629153
0.00635184
0.00638913
0.00640748
0.0064116
0.00640615
0.00639466
0.00638179
0.0063748
0.00637276
0.00123171
0.00123147
0.00122991
0.00122425
0.00121862
0.00121581
0.00121616
0.0012192
0.00122536
0.00123551
0.00124931
0.00126238
0.00127137
0.00127651
0.00127853
0.0012777
0.00127383
0.00126795
0.00126376
0.00126315
-0.833963
-0.578063
-0.292228
-0.0634766
0.121949
0.272162
0.400138
0.5085
0.559511
0.536695
-0.377198
-0.205585
-0.0285146
0.122901
0.251472
0.35973
0.448352
0.512175
0.545659
0.556371
-0.0711992
0.0410856
0.158265
0.262399
0.352347
0.427973
0.48821
0.532237
0.562727
0.579384
0.139121
0.215356
0.297268
0.370824
0.434956
0.48924
0.533445
0.56803
0.594879
0.612334
0.295733
0.350463
0.407935
0.462319
0.510293
0.551754
0.586718
0.615205
0.638076
0.655403
0.41937
0.459365
0.5042
0.546795
0.585302
0.619382
0.648749
0.672996
0.692473
0.709573
0.523387
0.556148
0.594997
0.631354
0.665012
0.695232
0.721405
0.74288
0.759481
0.776479
0.61916
0.650907
0.687944
0.72262
0.754511
0.783038
0.807445
0.827055
0.841187
0.858241
0.718929
0.753695
0.792183
0.82742
0.858875
0.886262
0.909199
0.927201
0.939615
0.957072
0.836667
0.875498
0.915211
0.950437
0.980681
1.00618
1.02716
1.04353
1.05536
1.07351
0.983256
1.02239
1.05919
1.09045
1.11666
1.13924
1.15869
1.17453
1.18722
1.20529
1.1594
1.19133
1.21788
1.24071
1.26102
1.28001
1.29798
1.31465
1.33015
1.34827
1.34864
1.36601
1.38127
1.39773
1.41383
1.4285
1.44182
1.45586
1.47352
1.49373
1.53063
1.54029
1.55196
1.56284
1.5722
1.58194
1.5929
1.60434
1.61574
1.63112
1.73818
1.74185
1.72695
1.71222
1.70607
1.7118
1.73031
1.76068
1.79289
1.81956
2.0445
1.90965
1.83312
1.79089
1.77345
1.77746
1.8049
1.86131
1.96396
2.18834
0.325494
0.32343
0.318941
0.310432
0.298373
0.286441
0.276419
0.268708
0.263223
0.259992
0.259482
0.261871
0.266573
0.273398
0.282423
0.293642
0.306024
0.316853
0.322898
0.325873
0.249749
0.255637
0.262049
0.266735
0.269401
0.269277
0.266761
0.263191
0.259868
0.257641
0.25731
0.259152
0.262357
0.266177
0.26957
0.271118
0.269894
0.266135
0.260772
0.254091
0.240856
0.243158
0.24681
0.250164
0.252597
0.254429
0.255497
0.25543
0.254532
0.253634
0.253604
0.25467
0.256059
0.25689
0.256574
0.255203
0.253191
0.250409
0.24676
0.24368
0.235236
0.236298
0.238439
0.241323
0.243819
0.245604
0.246865
0.247793
0.248369
0.248675
0.248968
0.249263
0.249299
0.24887
0.248011
0.246682
0.244651
0.241948
0.239342
0.237797
0.230041
0.230549
0.232168
0.234815
0.237455
0.239864
0.241767
0.243061
0.24392
0.244498
0.244916
0.24514
0.244956
0.244283
0.242959
0.240948
0.238536
0.235936
0.233707
0.232782
0.227309
0.227503
0.228532
0.230396
0.232333
0.234106
0.235781
0.237353
0.238663
0.239643
0.240225
0.240268
0.239784
0.238808
0.237522
0.236052
0.234326
0.23248
0.230966
0.230488
0.226069
0.226163
0.22672
0.227788
0.229007
0.230429
0.231812
0.233139
0.234347
0.235378
0.236069
0.236235
0.235908
0.235219
0.234291
0.233092
0.23202
0.230988
0.230193
0.229949
0.224378
0.22443
0.224723
0.225334
0.226118
0.226991
0.228119
0.229359
0.230605
0.231735
0.232565
0.232863
0.232668
0.232153
0.231476
0.230861
0.23026
0.229696
0.22931
0.229188
0.221774
0.221798
0.221978
0.222411
0.223017
0.223644
0.224435
0.225455
0.226563
0.227701
0.228684
0.229235
0.229364
0.229216
0.228968
0.22876
0.2284
0.22805
0.227832
0.227774
0.21869
0.218696
0.218819
0.21916
0.219659
0.220301
0.221102
0.222035
0.223146
0.224386
0.225571
0.226398
0.226809
0.226961
0.226909
0.226659
0.226538
0.226334
0.226218
0.226197
0.215326
0.215327
0.215418
0.215682
0.216101
0.216655
0.217377
0.218308
0.219477
0.220869
0.222328
0.223484
0.22421
0.224626
0.224832
0.224887
0.224857
0.224786
0.224752
0.224748
0.211609
0.211609
0.211684
0.211907
0.21228
0.212815
0.213559
0.214563
0.215874
0.217509
0.219325
0.220865
0.221927
0.222609
0.223026
0.223259
0.223371
0.223417
0.223444
0.22345
0.20745
0.207446
0.207532
0.207745
0.208113
0.208672
0.209483
0.21062
0.212156
0.214137
0.216408
0.218422
0.219847
0.220834
0.221477
0.221882
0.222126
0.222266
0.222339
0.222355
0.202781
0.202774
0.202867
0.203106
0.203517
0.204153
0.205096
0.206446
0.208305
0.210744
0.213598
0.216168
0.218046
0.219368
0.220257
0.220836
0.221202
0.221421
0.221533
0.221557
0.197522
0.197513
0.197625
0.197908
0.198397
0.19916
0.200303
0.201956
0.204252
0.207294
0.210886
0.214155
0.216579
0.218279
0.21944
0.220208
0.2207
0.220999
0.22115
0.221182
0.191534
0.191522
0.191662
0.192014
0.19262
0.193568
0.19499
0.197052
0.199929
0.20375
0.208275
0.212407
0.215471
0.21764
0.219124
0.22011
0.220745
0.221132
0.221326
0.221368
0.184634
0.184618
0.184797
0.185246
0.186015
0.187213
0.189011
0.191619
0.195254
0.200076
0.205777
0.210978
0.214832
0.217562
0.219434
0.220679
0.221484
0.221976
0.222222
0.222274
0.176572
0.176551
0.176786
0.177369
0.178357
0.179886
0.182182
0.185512
0.190137
0.19624
0.203418
0.209942
0.214765
0.218181
0.220522
0.222082
0.223094
0.223714
0.224023
0.224087
0.167006
0.166981
0.167293
0.168055
0.169338
0.171316
0.174301
0.178592
0.18448
0.192212
0.20124
0.209395
0.215405
0.219656
0.222569
0.224514
0.225779
0.22656
0.226948
0.227026
0.155465
0.155437
0.155861
0.156875
0.158564
0.161169
0.165056
0.170592
0.178165
0.187978
0.199308
0.20946
0.216914
0.222181
0.225792
0.228206
0.229782
0.230763
0.231251
0.231347
0.141271
0.141239
0.141833
0.143215
0.145479
0.148952
0.154089
0.161345
0.171104
0.183552
0.197717
0.210285
0.219479
0.225976
0.230438
0.233425
0.23538
0.236603
0.237212
0.237334
0.12343
0.123398
0.124268
0.126204
0.129326
0.13408
0.141009
0.150586
0.163206
0.178975
0.196587
0.212036
0.223301
0.23128
0.236784
0.240485
0.242914
0.24444
0.245213
0.245367
0.100447
0.100442
0.101772
0.104583
0.109044
0.115737
0.125243
0.138037
0.154424
0.174332
0.19606
0.214876
0.228565
0.238312
0.245101
0.249715
0.25277
0.254703
0.255693
0.255893
0.0698974
0.069991
0.0721598
0.076506
0.0832398
0.0930263
0.106383
0.123644
0.144888
0.16982
0.196326
0.218965
0.23542
0.24724
0.255605
0.261407
0.265329
0.267852
0.26914
0.269396
0.0272649
0.027656
0.0317672
0.0393493
0.0503321
0.0652883
0.0843914
0.107678
0.134971
0.165779
0.197623
0.22444
0.243936
0.258114
0.268376
0.275719
0.280866
0.284324
0.286117
0.286444
-0.0356922
-0.0336226
-0.0239786
-0.00946038
0.0094887
0.0326843
0.05983
0.0907775
0.125221
0.162584
0.200128
0.231308
0.254001
0.270733
0.283167
0.29243
0.299276
0.30411
0.306838
0.307186
-0.110875
-0.107437
-0.0896716
-0.063832
-0.0343108
-0.00162048
0.0342911
0.0734218
0.115536
0.160161
0.204386
0.241097
0.268178
0.288654
0.304437
0.316776
0.326571
0.333882
0.33688
0.338304
-0.188095
-0.178037
-0.151577
-0.115631
-0.0766022
-0.0347865
0.00970734
0.0568714
0.106571
0.158429
0.20935
0.251561
0.282887
0.306885
0.325759
0.340895
0.353144
0.362724
0.368194
0.370467
-0.245979
-0.23476
-0.203346
-0.160962
-0.114592
-0.0652724
-0.013284
0.0412222
0.0979794
0.156559
0.213582
0.26054
0.295199
0.321596
0.342178
0.358478
0.37149
0.381608
0.38777
0.390229
-0.292497
-0.280881
-0.246028
-0.199019
-0.147335
-0.0922415
-0.0341459
0.0266024
0.0895854
0.154217
0.21663
0.267529
0.304688
0.332623
0.354113
0.370927
0.384186
0.394405
0.400624
0.403045
-0.330524
-0.318992
-0.282202
-0.2317
-0.175862
-0.116164
-0.0530392
0.013039
0.0814771
0.151514
0.218825
0.273271
0.312553
0.3417
0.363811
0.380862
0.394121
0.40427
0.410476
0.412797
-0.363334
-0.351949
-0.313704
-0.260506
-0.201299
-0.137743
-0.0703484
0.000355669
0.073686
0.148709
0.220567
0.278245
0.319423
0.349599
0.372195
0.389411
0.402666
0.412741
0.418957
0.421172
-0.39246
-0.381224
-0.34199
-0.286613
-0.224627
-0.157817
-0.0866944
-0.0118623
0.0658983
0.145495
0.221649
0.282503
0.325588
0.356829
0.379957
0.397391
0.410691
0.42071
0.426953
0.429076
-0.419099
-0.40795
-0.367889
-0.310711
-0.246417
-0.176826
-0.102483
-0.0240185
0.0577727
0.141741
0.22217
0.286291
0.331401
0.363816
0.387569
0.405285
0.418682
0.42869
0.434951
0.436979
-0.444018
-0.432917
-0.392129
-0.333404
-0.267144
-0.195177
-0.118016
-0.0362571
0.0492847
0.137434
0.222121
0.289655
0.336998
0.370776
0.395293
0.413394
0.426945
0.436963
0.443248
0.445159
-0.467639
-0.456548
-0.415145
-0.355115
-0.287145
-0.213074
-0.133413
-0.0487066
0.0402802
0.132412
0.221395
0.292571
0.342428
0.377827
0.403304
0.421918
0.435704
0.445794
0.452045
0.453899
-0.490335
-0.479187
-0.437195
-0.376069
-0.306623
-0.230728
-0.148868
-0.061526
0.030643
0.126591
0.219883
0.294957
0.347669
0.385004
0.411689
0.430988
0.445114
0.455318
0.461548
0.463364
-0.5123
-0.501007
-0.45844
-0.396452
-0.325689
-0.248234
-0.16445
-0.0747431
0.0203285
0.119897
0.21747
0.296678
0.352615
0.392254
0.420454
0.440663
0.455276
0.465683
0.471888
0.473687
-0.533558
-0.522105
-0.479076
-0.416285
-0.344391
-0.265585
-0.180139
-0.0883656
0.00932161
0.112264
0.214055
0.297578
0.357095
0.399442
0.429525
0.450924
0.466223
0.476945
0.483158
0.484925
-0.554241
-0.542576
-0.499154
-0.435577
-0.362745
-0.282795
-0.19593
-0.102368
-0.00236356
0.103678
0.209529
0.297459
0.36088
0.406393
0.438805
0.461733
0.477941
0.489113
0.495386
0.49703
-0.574269
-0.562412
-0.518647
-0.454351
-0.380728
-0.299813
-0.211756
-0.116686
-0.0146793
0.0941392
0.203802
0.296117
0.363701
0.41288
0.448138
0.473015
0.490371
0.502101
0.508455
0.509938
-0.593696
-0.581615
-0.537449
-0.472577
-0.398288
-0.316582
-0.227549
-0.131233
-0.0275416
0.0836927
0.196847
0.293394
0.365263
0.418518
0.457189
0.484569
0.503442
0.51583
0.5222
0.523455
-0.612335
-0.600151
-0.555553
-0.490203
-0.41536
-0.333017
-0.243231
-0.14592
-0.0408512
0.0724292
0.188658
0.289177
0.365256
0.422765
0.465496
0.496184
0.517133
0.530215
0.536341
0.537244
-0.630315
-0.61794
-0.572967
-0.507201
-0.431909
-0.34907
-0.258704
-0.16065
-0.0544999
0.0604564
0.179277
0.283349
0.363409
0.425146
0.472443
0.5075
0.531591
0.545576
0.550744
0.550843
-0.647497
-0.634929
-0.589658
-0.523517
-0.447855
-0.364657
-0.273882
-0.175298
-0.0683667
0.0478707
0.168815
0.27587
0.359528
0.425243
0.477234
0.517741
0.546874
0.563098
0.566044
0.563537
-0.66393
-0.6512
-0.605572
-0.539105
-0.46316
-0.379718
-0.288684
-0.189782
-0.0823232
0.0348381
0.1574
0.266807
0.353523
0.422616
0.478713
0.525158
0.561832
0.584488
0.587363
0.575818
-0.679552
-0.66669
-0.6208
-0.554088
-0.47801
-0.394518
-0.303433
-0.2045
-0.0968378
0.0208251
0.144432
0.255516
0.3447
0.416545
0.475256
0.52689
0.572412
0.605837
0.613063
0.606222
-0.694351
-0.681257
-0.63537
-0.56843
-0.492402
-0.409061
-0.318104
-0.219448
-0.111924
0.00576234
0.129794
0.241795
0.332527
0.4065
0.46499
0.517167