/*--------------------------------*- C++ -*----------------------------------*\
  =========                 |
  \\      /  F ield         | OpenFOAM: The Open Source CFD Toolbox
   \\    /   O peration     | Website:  https://openfoam.org
    \\  /    A nd           | Version:  10
     \\/     M anipulation  |
\*---------------------------------------------------------------------------*/
FoamFile
{
    format      ascii;
    class       volVectorField;
    location    "11";
    object      U;
}
// * * * * * * * * * * * * * * * * * * * * * * * * * * * * * * * * * * * * * //

dimensions      [0 1 -1 0 0 0 0];

internalField   nonuniform List<vector> 
8800
(
(0.979875 -0.0915044 0)
(1.00234 -0.0588482 0)
(0.999675 -0.0321424 0)
(1.00005 -0.0163977 0)
(0.999999 -0.00864334 0)
(0.999937 -0.00492717 0)
(0.999966 -0.00292324 0)
(0.999964 -0.00168838 0)
(0.999952 -0.000837062 0)
(1.00005 -0.00015229 0)
(0.99995 0.000559464 0)
(0.999965 0.00130858 0)
(0.999978 0.00231218 0)
(0.999963 0.00385572 0)
(0.99995 0.00652394 0)
(1.00005 0.0118548 0)
(0.999949 0.0230405 0)
(0.999211 0.0432298 0)
(1.007 0.0790991 0)
(0.774968 0.0478462 0)
(0.359412 -0.014726 0)
(1.04678 -0.0721269 0)
(1.08832 -0.0656954 0)
(1.04923 -0.0506579 0)
(1.02564 -0.0374756 0)
(1.0128 -0.0256389 0)
(1.00639 -0.0163408 0)
(1.00339 -0.00984701 0)
(1.00199 -0.00533368 0)
(1.00139 -0.00197844 0)
(1.0013 0.000903852 0)
(1.00159 0.0039452 0)
(1.00253 0.00772286 0)
(1.00458 0.0130672 0)
(1.009 0.0208844 0)
(1.01823 0.0315137 0)
(1.03585 0.0442588 0)
(1.06712 0.0576296 0)
(1.09493 0.0703606 0)
(0.846278 0.0554159 0)
(0.219024 -0.00132228 0)
(1.07666 -0.0497384 0)
(1.1001 -0.0477281 0)
(1.06457 -0.038347 0)
(1.03968 -0.0307146 0)
(1.02365 -0.0238114 0)
(1.01397 -0.0170818 0)
(1.00841 -0.0109521 0)
(1.00555 -0.00569276 0)
(1.00451 -0.000775743 0)
(1.00478 0.00404196 0)
(1.00661 0.00895381 0)
(1.01063 0.0145491 0)
(1.01798 0.0209028 0)
(1.03043 0.0276154 0)
(1.05068 0.0347003 0)
(1.08071 0.0428681 0)
(1.1069 0.050822 0)
(0.945329 0.0405016 0)
(0.218742 0.00133378 0)
(0.179269 -0.000550965 0)
(1.02231 -0.0333707 0)
(1.10653 -0.0390456 0)
(1.0784 -0.0344571 0)
(1.05214 -0.0286746 0)
(1.03466 -0.02297 0)
(1.02283 -0.0174279 0)
(1.0151 -0.0118887 0)
(1.01053 -0.00631889 0)
(1.00848 -0.00075616 0)
(1.0091 0.00466535 0)
(1.01226 0.0100954 0)
(1.01821 0.01551 0)
(1.02779 0.0208941 0)
(1.04214 0.0263826 0)
(1.06353 0.0320641 0)
(1.09487 0.037619 0)
(1.09642 0.0390356 0)
(0.836254 0.0213441 0)
(0.178799 0.000560018 0)
(0.159626 -0.000412065 0)
(0.966419 -0.0224388 0)
(1.10503 -0.0304241 0)
(1.08665 -0.0281682 0)
(1.06004 -0.024638 0)
(1.04192 -0.0202531 0)
(1.02957 -0.0155344 0)
(1.02112 -0.010789 0)
(1.01572 -0.0058976 0)
(1.01314 -0.000560362 0)
(1.01388 0.00486187 0)
(1.01768 0.00980766 0)
(1.02441 0.0143997 0)
(1.03456 0.0189067 0)
(1.04947 0.0233646 0)
(1.07129 0.0270514 0)
(1.10105 0.0303071 0)
(1.07452 0.0292523 0)
(0.75655 0.0122291 0)
(0.158933 0.00042317 0)
(0.148856 -0.0001917 0)
(0.920583 -0.0123559 0)
(1.09925 -0.0205296 0)
(1.09339 -0.0201384 0)
(1.06584 -0.0175959 0)
(1.04658 -0.0152539 0)
(1.03339 -0.0126153 0)
(1.02444 -0.0092064 0)
(1.01886 -0.00509697 0)
(1.0163 -0.000214103 0)
(1.0169 0.00483176 0)
(1.02069 0.00907639 0)
(1.02766 0.0125948 0)
(1.03844 0.0152921 0)
(1.05421 0.0173678 0)
(1.07748 0.0197725 0)
(1.10336 0.0215339 0)
(1.04954 0.0185452 0)
(0.705382 0.00586936 0)
(0.147893 0.000207849 0)
(0.144905 -1.83905e-05 0)
(0.890408 -0.00563882 0)
(1.08901 -0.0126821 0)
(1.09502 -0.0142619 0)
(1.06865 -0.0142139 0)
(1.05033 -0.0132212 0)
(1.03805 -0.0112196 0)
(1.02963 -0.00837181 0)
(1.02414 -0.00459595 0)
(1.02157 9.46546e-05 0)
(1.02207 0.00488504 0)
(1.02571 0.00891611 0)
(1.03228 0.0119076 0)
(1.04219 0.0140721 0)
(1.05705 0.0153365 0)
(1.07942 0.0153043 0)
(1.10095 0.0148439 0)
(1.02638 0.01036 0)
(0.679028 0.00231138 0)
(0.143616 3.70705e-05 0)
(0.144016 2.74053e-05 0)
(0.871245 -0.00273129 0)
(1.07541 -0.00910345 0)
(1.09184 -0.0130948 0)
(1.06837 -0.0141282 0)
(1.05139 -0.0138058 0)
(1.03971 -0.01211 0)
(1.03188 -0.00912379 0)
(1.02679 -0.00485833 0)
(1.02419 0.000402569 0)
(1.02459 0.00571979 0)
(1.02788 0.0101753 0)
(1.03385 0.0133824 0)
(1.04317 0.015284 0)
(1.05692 0.0157783 0)
(1.07779 0.0152721 0)
(1.093 0.0126285 0)
(1.00595 0.00653598 0)
(0.665568 0.00101989 0)
(0.142327 -6.98102e-06 0)
(0.143964 1.96285e-05 0)
(0.858047 -0.00155706 0)
(1.05898 -0.00709027 0)
(1.08399 -0.0127405 0)
(1.06731 -0.0152945 0)
(1.05337 -0.0152549 0)
(1.0437 -0.0132768 0)
(1.03685 -0.00978162 0)
(1.03211 -0.00504073 0)
(1.02945 0.000820415 0)
(1.0297 0.00676763 0)
(1.03259 0.0116456 0)
(1.03778 0.0151977 0)
(1.04549 0.0173498 0)
(1.05651 0.0176098 0)
(1.07355 0.0162982 0)
(1.07992 0.0115806 0)
(0.987242 0.00473486 0)
(0.657484 0.000683299 0)
(0.141771 5.23171e-06 0)
(0.144003 1.5272e-05 0)
(0.849365 -0.000723578 0)
(1.04327 -0.00460484 0)
(1.07329 -0.00999883 0)
(1.06474 -0.0133635 0)
(1.05444 -0.0137963 0)
(1.04687 -0.0121546 0)
(1.04093 -0.00887464 0)
(1.03652 -0.00429769 0)
(1.03394 0.00150729 0)
(1.03392 0.00739613 0)
(1.03633 0.0121006 0)
(1.04066 0.0153011 0)
(1.04674 0.0170136 0)
(1.05562 0.0171471 0)
(1.06576 0.0142738 0)
(1.0644 0.00898351 0)
(0.971918 0.00318749 0)
(0.652092 0.000489959 0)
(0.141194 1.45064e-05 0)
(0.144282 2.45572e-05 0)
(0.844943 -6.64355e-05 0)
(1.03244 -0.00210902 0)
(1.06425 -0.00567072 0)
(1.06093 -0.00833603 0)
(1.05506 -0.00922562 0)
(1.0496 -0.00839894 0)
(1.04477 -0.00602646 0)
(1.04083 -0.0023071 0)
(1.03837 0.00255258 0)
(1.03799 0.00741815 0)
(1.03979 0.0110317 0)
(1.04299 0.013172 0)
(1.0474 0.0137639 0)
(1.05257 0.0127793 0)
(1.05773 0.00998689 0)
(1.05166 0.00581315 0)
(0.961697 0.00196997 0)
(0.648712 0.000356181 0)
(0.140707 1.47774e-05 0)
(0.144792 2.89225e-05 0)
(0.843522 0.000352301 0)
(1.02678 -0.000431188 0)
(1.05855 -0.0022449 0)
(1.05808 -0.00384074 0)
(1.0548 -0.00452892 0)
(1.05119 -0.00410639 0)
(1.04752 -0.00250523 0)
(1.04416 0.000234333 0)
(1.04177 0.0038474 0)
(1.04097 0.00733817 0)
(1.04193 0.00966924 0)
(1.04389 0.0106033 0)
(1.04651 0.010295 0)
(1.04927 0.00887805 0)
(1.0514 0.00655153 0)
(1.04324 0.00370851 0)
(0.955592 0.00137858 0)
(0.646398 0.000337369 0)
(0.140238 1.84729e-05 0)
(0.14548 3.42253e-05 0)
(0.843816 0.000596155 0)
(1.02463 0.00058089 0)
(1.05585 -4.16694e-05 0)
(1.05657 -0.000665915 0)
(1.0547 -0.000865532 0)
(1.05227 -0.00043187 0)
(1.04947 0.000769109 0)
(1.04659 0.00276788 0)
(1.04414 0.00531587 0)
(1.04282 0.007561 0)
(1.04295 0.00869652 0)
(1.04377 0.00876413 0)
(1.04501 0.00797015 0)
(1.04624 0.00651216 0)
(1.04685 0.00466724 0)
(1.03796 0.0027431 0)
(0.951696 0.00122543 0)
(0.644382 0.000388668 0)
(0.139682 2.4933e-05 0)
(0.146332 4.15248e-05 0)
(0.845288 0.000844258 0)
(1.02456 0.00126979 0)
(1.05523 0.00137324 0)
(1.05636 0.00147015 0)
(1.05512 0.00178789 0)
(1.05332 0.00246186 0)
(1.05102 0.00359476 0)
(1.04837 0.00519155 0)
(1.04574 0.00700928 0)
(1.04386 0.00834753 0)
(1.04304 0.00873032 0)
(1.04298 0.00814232 0)
(1.04325 0.00699243 0)
(1.04356 0.00554428 0)
(1.04343 0.00399136 0)
(1.03429 0.00251767 0)
(0.948653 0.0013191 0)
(0.64222 0.000482231 0)
(0.138967 3.34445e-05 0)
(0.147396 5.16844e-05 0)
(0.847601 0.00110337 0)
(1.02577 0.00187502 0)
(1.05596 0.00247229 0)
(1.05718 0.00310148 0)
(1.05616 0.00389184 0)
(1.05459 0.00490857 0)
(1.05245 0.00618287 0)
(1.04978 0.00765203 0)
(1.04678 0.00903793 0)
(1.04421 0.00971142 0)
(1.04262 0.0093768 0)
(1.04173 0.00841541 0)
(1.04128 0.00704299 0)
(1.04103 0.00553093 0)
(1.04051 0.00405325 0)
(1.03122 0.00270931 0)
(0.945713 0.00155508 0)
(0.639659 0.000606272 0)
(0.138047 4.34689e-05 0)
(0.148741 6.48457e-05 0)
(0.850764 0.00141967 0)
(1.02797 0.00252102 0)
(1.05768 0.00352934 0)
(1.05886 0.00461159 0)
(1.05784 0.00585277 0)
(1.05624 0.00727128 0)
(1.05398 0.00882567 0)
(1.05102 0.0103662 0)
(1.04745 0.0115395 0)
(1.04408 0.0117451 0)
(1.04168 0.0109246 0)
(1.04008 0.00952217 0)
(1.03906 0.00786037 0)
(1.0384 0.0061708 0)
(1.03762 0.00459018 0)
(1.02816 0.00317351 0)
(0.942461 0.00190397 0)
(0.636513 0.000763498 0)
(0.136875 5.54965e-05 0)
(0.150452 8.28827e-05 0)
(0.85491 0.00182547 0)
(1.03109 0.0033009 0)
(1.0603 0.00471812 0)
(1.06135 0.00624333 0)
(1.06018 0.00795413 0)
(1.05835 0.00984187 0)
(1.05575 0.0117926 0)
(1.05225 0.013555 0)
(1.04788 0.0146684 0)
(1.04354 0.014513 0)
(1.04025 0.0132211 0)
(1.03796 0.0113626 0)
(1.03643 0.00932185 0)
(1.03541 0.00732935 0)
(1.03441 0.00550172 0)
(1.02473 0.0038679 0)
(0.9386 0.00236712 0)
(0.63259 0.000960802 0)
(0.135394 7.02686e-05 0)
(0.152652 0.000108122 0)
(0.860286 0.00235954 0)
(1.03525 0.0042898 0)
(1.06389 0.00614968 0)
(1.06474 0.00814798 0)
(1.06328 0.0103933 0)
(1.06104 0.0128543 0)
(1.05785 0.0153307 0)
(1.05356 0.0174463 0)
(1.04811 0.018607 0)
(1.0426 0.0181329 0)
(1.03831 0.0163358 0)
(1.03527 0.0139398 0)
(1.03321 0.0114083 0)
(1.03185 0.00898847 0)
(1.03061 0.00678551 0)
(1.02066 0.00480768 0)
(0.933856 0.00296502 0)
(0.627663 0.00120977 0)
(0.133531 8.91019e-05 0)
(0.15551 0.000143195 0)
(0.867269 0.00306717 0)
(1.04076 0.00555739 0)
(1.06874 0.00790902 0)
(1.06927 0.0104516 0)
(1.0674 0.0133777 0)
(1.06452 0.016578 0)
(1.06045 0.0197089 0)
(1.05505 0.0223016 0)
(1.0482 0.0235803 0)
(1.04124 0.0227732 0)
(1.03576 0.0203834 0)
(1.03187 0.0173311 0)
(1.02922 0.014176 0)
(1.02747 0.0112006 0)
(1.02599 0.00849907 0)
(1.01567 0.00604953 0)
(0.927915 0.0037374 0)
(0.621441 0.00152802 0)
(0.131194 0.000114035 0)
(0.159258 0.000190404 0)
(0.876392 0.00400041 0)
(1.04806 0.00718948 0)
(1.07524 0.0101191 0)
(1.07528 0.0133379 0)
(1.07281 0.0171936 0)
(1.06904 0.0213575 0)
(1.06378 0.0252904 0)
(1.05688 0.0284571 0)
(1.0482 0.0298766 0)
(1.03941 0.028663 0)
(1.03251 0.0255421 0)
(1.0276 0.0216739 0)
(1.02425 0.0177362 0)
(1.02204 0.0140659 0)
(1.02025 0.0107436 0)
(1.00946 0.00769058 0)
(0.920419 0.00474839 0)
(0.613556 0.00193858 0)
(0.128264 0.000147257 0)
(0.16424 0.000255051 0)
(0.888341 0.00525464 0)
(1.05761 0.00937014 0)
(1.08379 0.013046 0)
(1.08318 0.0171759 0)
(1.07977 0.0221756 0)
(1.07484 0.0275051 0)
(1.06808 0.0324936 0)
(1.05919 0.036321 0)
(1.04815 0.0378429 0)
(1.03709 0.0360799 0)
(1.02844 0.0320356 0)
(1.02229 0.0271446 0)
(1.01807 0.022225 0)
(1.01527 0.0176919 0)
(1.01307 0.0136211 0)
(1.0017 0.00983895 0)
(0.911003 0.00608213 0)
(0.603601 0.00246305 0)
(0.124606 0.000188527 0)
(0.170984 0.000354187 0)
(0.903982 0.00707233 0)
(1.06988 0.0124558 0)
(1.09479 0.0171149 0)
(1.09333 0.0225285 0)
(1.08875 0.0289873 0)
(1.08226 0.0357233 0)
(1.07343 0.0418419 0)
(1.06197 0.0463347 0)
(1.04797 0.0478466 0)
(1.03413 0.0453177 0)
(1.02336 0.0401007 0)
(1.0157 0.0339355 0)
(1.0104 0.0277862 0)
(1.00685 0.0221659 0)
(1.00412 0.0171763 0)
(0.992027 0.0125337 0)
(0.899337 0.00778712 0)
(0.591243 0.00312205 0)
(0.120074 0.000233663 0)
(0.180305 0.000519476 0)
(0.924586 0.00989376 0)
(1.08577 0.0169385 0)
(1.10898 0.0228863 0)
(1.1062 0.0299606 0)
(1.09998 0.0382461 0)
(1.09126 0.0465656 0)
(1.07963 0.0538852 0)
(1.06492 0.0589942 0)
(1.04734 0.0602839 0)
(1.03021 0.0566949 0)
(1.01695 0.0500136 0)
(1.00749 0.0422978 0)
(1.00091 0.0346402 0)
(0.996425 0.0276486 0)
(0.993014 0.021487 0)
(0.980061 0.0157842 0)
(0.885018 0.00985023 0)
(0.576052 0.00393948 0)
(0.114471 0.000290746 0)
(0.193477 0.000797886 0)
(0.952119 0.014383 0)
(1.10675 0.0236622 0)
(1.12749 0.0314747 0)
(1.12257 0.0407455 0)
(1.11373 0.0511592 0)
(1.10178 0.0611781 0)
(1.08644 0.0696058 0)
(1.06766 0.0750152 0)
(1.04584 0.0756498 0)
(1.02494 0.0705907 0)
(1.00885 0.0621286 0)
(0.997313 0.0525989 0)
(0.989189 0.0431805 0)
(0.983571 0.0345457 0)
(0.979311 0.0269358 0)
(0.965263 0.0199264 0)
(0.867275 0.0125671 0)
(0.557273 0.00501641 0)
(0.107624 0.000354806 0)
(0.212782 0.00129444 0)
(0.989712 0.0217138 0)
(1.13468 0.03405 0)
(1.15167 0.0444757 0)
(1.14331 0.0565628 0)
(1.13051 0.06937 0)
(1.11402 0.0809857 0)
(1.09376 0.0900726 0)
(1.06997 0.0951381 0)
(1.0432 0.0944417 0)
(1.01808 0.087366 0)
(0.998833 0.0767759 0)
(0.98491 0.0652085 0)
(0.974926 0.0538518 0)
(0.967844 0.0433906 0)
(0.962398 0.0341071 0)
(0.94684 0.0255311 0)
(0.845045 0.0163003 0)
(0.534116 0.00651457 0)
(0.0992069 0.000443383 0)
(0.241843 0.00245429 0)
(1.04313 0.035489 0)
(1.17174 0.0519969 0)
(1.18254 0.0657233 0)
(1.16847 0.0807777 0)
(1.14979 0.0953682 0)
(1.12723 0.107601 0)
(1.10093 0.116251 0)
(1.07132 0.119938 0)
(1.03908 0.117004 0)
(1.00943 0.107272 0)
(0.986789 0.0942073 0)
(0.970216 0.0804474 0)
(0.958027 0.0670899 0)
(0.949043 0.0547655 0)
(0.941833 0.0437223 0)
(0.923991 0.0335144 0)
(0.816916 0.0218573 0)
(0.505461 0.00862912 0)
(0.0894292 0.000497445 0)
(0.282592 0.00969688 -1.13734e-20)
(1.11383 0.0639103 -8.43988e-21)
(1.21766 0.0837606 2.20204e-21)
(1.2176 0.101098 0)
(1.1954 0.117312 -9.4259e-36)
(1.1692 0.131628 2.93864e-22)
(1.13954 0.1427 -1.4705e-21)
(1.10656 0.149478 0)
(1.07067 0.15072 5.12344e-35)
(1.0325 0.144858 -3.8079e-21)
(0.99785 0.13216 0)
(0.971298 0.116591 -5.40317e-21)
(0.951484 0.100771 -1.65066e-20)
(0.936399 0.0856746 -7.98349e-21)
(0.924658 0.0719296 -2.51168e-21)
(0.914582 0.0597581 -1.52165e-21)
(0.893409 0.048448 0)
(0.780222 0.0343152 1.09725e-21)
(0.469223 0.0169641 1.30077e-21)
(0.0798591 0.00252386 2.31459e-20)
(0.307191 0.0271382 -2.29575e-20)
(1.17037 0.111008 5.11728e-22)
(1.25939 0.133305 -1.19734e-21)
(1.24955 0.150104 0)
(1.21952 0.164584 1.47558e-21)
(1.18595 0.177049 4.65196e-22)
(1.14932 0.186212 -1.02286e-21)
(1.10967 0.190864 -6.78233e-21)
(1.06721 0.189697 0)
(1.0224 0.181195 1.6106e-20)
(0.981583 0.166061 1.77075e-20)
(0.949815 0.148678 5.66921e-21)
(0.925433 0.131591 2.23491e-20)
(0.906139 0.115593 3.29442e-20)
(0.890337 0.101205 0)
(0.876048 0.0888023 4.9098e-20)
(0.849733 0.0775655 7.21085e-20)
(0.739275 0.0610013 8.06319e-20)
(0.445396 0.0365559 -9.41633e-20)
(0.0773993 0.00669265 -1.71334e-21)
(0.299908 0.0437785 0)
(1.20254 0.171187 -7.00115e-21)
(1.2908 0.19569 0)
(1.27447 0.20893 1.05968e-20)
(1.23823 0.219806 0)
(1.19841 0.2287 4.49517e-21)
(1.15561 0.234542 1.2951e-21)
(1.10989 0.236075 -1.03593e-20)
(1.06143 0.231866 -1.534e-21)
(1.01061 0.22039 7.79908e-21)
(0.964322 0.202849 4.10504e-20)
(0.928041 0.184023 -2.57377e-22)
(0.899884 0.166377 -1.67426e-20)
(0.877293 0.150566 -3.24452e-20)
(0.858604 0.136926 3.94307e-20)
(0.841924 0.125627 -7.08641e-20)
(0.815605 0.11551 -9.73261e-21)
(0.717496 0.0972119 0)
(0.449474 0.0621816 2.93212e-22)
(0.0853259 0.0123126 0)
(0.28814 0.0579851 -1.78367e-19)
(1.21642 0.234391 7.28756e-20)
(1.31054 0.262361 3.82777e-20)
(1.29058 0.272501 -7.10125e-21)
(1.25005 0.279239 1.07941e-20)
(1.20558 0.284003 -1.13779e-20)
(1.15788 0.285927 1.77387e-21)
(1.10716 0.283747 0)
(1.05365 0.276067 -3.09373e-20)
(0.997641 0.261331 0)
(0.946758 0.241283 -2.0864e-20)
(0.907059 0.221037 -2.92615e-20)
(0.876422 0.202919 -1.86725e-20)
(0.85207 0.187255 -2.40652e-20)
(0.832216 0.17411 0)
(0.81495 0.163547 0)
(0.790399 0.154115 -6.50055e-20)
(0.702419 0.134543 1.30042e-20)
(0.450112 0.0876293 -7.61249e-21)
(0.0887113 0.0176135 -8.92402e-21)
(0.277136 0.0706013 1.31869e-19)
(1.21858 0.296873 0)
(1.32074 0.329757 -1.07509e-19)
(1.29883 0.33713 -2.70467e-20)
(1.25547 0.339859 -2.0021e-20)
(1.2077 0.340551 0)
(1.15635 0.338495 -1.7559e-21)
(1.10162 0.332487 9.28076e-21)
(1.04393 0.321162 1.36009e-20)
(0.983723 0.302986 3.88599e-20)
(0.929222 0.280215 0)
(0.886949 0.25831 -6.34233e-20)
(0.854657 0.23933 -4.04999e-20)
(0.829289 0.223368 -2.43842e-20)
(0.808881 0.210279 1.59678e-19)
(0.791591 0.199916 1.95802e-20)
(0.768826 0.190464 9.37717e-20)
(0.6876 0.168545 -4.54624e-19)
(0.445227 0.110185 2.7108e-19)
(0.0889766 0.0222374 -3.27801e-19)
(0.267966 0.0819427 1.39253e-19)
(1.21344 0.356528 -2.56145e-20)
(1.32387 0.395766 1.89992e-20)
(1.30094 0.400765 5.11195e-20)
(1.25556 0.399795 3.08811e-20)
(1.20535 0.396717 1.61404e-21)
(1.15122 0.390883 1.40934e-21)
(1.0934 0.381162 7.0806e-21)
(1.03229 0.366186 -2.95875e-20)
(0.968454 0.344522 0)
(0.910844 0.318813 -2.72459e-20)
(0.866557 0.29485 -1.46915e-21)
(0.833147 0.274539 -4.52172e-20)
(0.807291 0.257772 0)
(0.786863 0.244187 -3.4765e-20)
(0.769967 0.233447 -8.44901e-20)
(0.748547 0.223419 2.33951e-19)
(0.671547 0.198674 -2.34078e-19)
(0.436613 0.129764 3.33361e-19)
(0.0875763 0.0261675 -3.47493e-19)
(0.2607 0.0924309 -4.56365e-22)
(1.20387 0.412839 3.13995e-20)
(1.32173 0.459242 9.1272e-20)
(1.29832 0.46235 -3.14985e-20)
(1.25157 0.458079 1.77334e-20)
(1.19958 0.451565 0)
(1.14326 0.442255 7.40428e-21)
(1.08287 0.42903 -5.62482e-21)
(1.01888 0.410568 -1.35518e-20)
(0.95201 0.385384 0)
(0.89185 0.35654 -2.65266e-20)
(0.845964 0.330179 -3.71538e-20)
(0.811753 0.308128 4.93587e-20)
(0.785676 0.290104 -3.15678e-20)
(0.765398 0.275584 -1.52798e-19)
(0.748953 0.264054 9.39133e-20)
(0.728529 0.253056 2.97752e-20)
(0.654263 0.225305 0)
(0.425772 0.146736 -3.23044e-19)
(0.0852298 0.0294609 -1.18728e-20)
(0.255088 0.102421 2.2802e-20)
(1.19183 0.465705 -3.61293e-20)
(1.31569 0.519545 -4.98383e-20)
(1.29219 0.521239 -9.67574e-20)
(1.24448 0.514114 8.66735e-20)
(1.19117 0.504561 -4.52513e-20)
(1.13315 0.492108 -1.57492e-20)
(1.0707 0.475657 -8.03315e-21)
(1.00435 0.45392 1.30488e-20)
(0.934816 0.425283 -9.40635e-20)
(0.872263 0.393178 -3.25265e-20)
(0.824891 0.364141 0)
(0.789996 0.33999 5.39327e-20)
(0.76379 0.320328 6.66449e-20)
(0.743741 0.304524 8.20157e-20)
(0.727757 0.2919 -1.02436e-19)
(0.708117 0.279648 -3.08685e-20)
(0.635939 0.248962 3.67393e-20)
(0.413388 0.161427 0)
(0.0822888 0.0321675 -2.58851e-20)
(0.250781 0.112037 -2.6437e-19)
(1.17857 0.515302 1.65933e-19)
(1.30683 0.576572 5.47274e-20)
(1.28343 0.577153 -7.40333e-20)
(1.23507 0.567561 5.20975e-20)
(1.18082 0.555315 -3.79711e-21)
(1.12151 0.540053 1.541e-20)
(1.05736 0.520722 -3.3621e-21)
(0.988882 0.495962 -2.39902e-20)
(0.916901 0.464064 1.31632e-22)
(0.852058 0.428635 -9.68876e-20)
(0.803231 0.396704 9.44102e-20)
(0.767667 0.37013 -6.04259e-20)
(0.741354 0.348497 7.51359e-20)
(0.72155 0.33111 0)
(0.706028 0.317164 -5.56736e-20)
(0.687064 0.303499 -1.34301e-21)
(0.616637 0.269675 -1.60686e-19)
(0.399652 0.173937 -2.37749e-20)
(0.0787708 0.0342239 0)
(0.247511 0.121357 0)
(1.16482 0.561877 1.79198e-19)
(1.29599 0.630287 1.27935e-19)
(1.27282 0.629967 8.36848e-20)
(1.22401 0.618222 5.00567e-20)
(1.16905 0.603608 0)
(1.10873 0.585874 1.57161e-20)
(1.04316 0.563994 -1.25672e-21)
(0.972783 0.536565 5.05126e-20)
(0.898502 0.50166 -1.1485e-20)
(0.831385 0.462957 -7.09914e-20)
(0.780983 0.427975 4.72834e-20)
(0.744651 0.398689 -1.96509e-21)
(0.71816 0.374749 7.92605e-20)
(0.698578 0.355486 5.17368e-20)
(0.68352 0.339988 -1.21333e-19)
(0.665148 0.324682 1.47062e-19)
(0.596149 0.287505 4.41204e-20)
(0.384541 0.184118 1.82612e-19)
(0.0746465 0.0355712 -4.88695e-19)
(0.245107 0.130494 -6.76382e-20)
(1.15113 0.605595 1.03541e-19)
(1.28378 0.680676 -7.99812e-20)
(1.26088 0.679675 -9.72997e-20)
(1.21179 0.666033 0)
(1.15635 0.64933 4.04054e-20)
(1.09524 0.629455 -4.53091e-20)
(1.02852 0.605377 2.09955e-21)
(0.956442 0.57564 0)
(0.87981 0.538054 -1.77317e-19)
(0.81035 0.496254 1.93424e-19)
(0.7582 0.458119 0)
(0.720886 0.425877 7.17131e-20)
(0.694085 0.399306 -2.00954e-21)
(0.674681 0.377817 -1.64234e-19)
(0.660068 0.360493 6.45368e-20)
(0.642251 0.343354 0)
(0.574463 0.302534 2.39218e-19)
(0.367924 0.191979 0)
(0.0699817 0.0362134 -2.33333e-19)
(0.243338 0.139459 7.52858e-20)
(1.13777 0.646657 1.18421e-19)
(1.27073 0.727811 -8.36879e-20)
(1.2481 0.726293 0)
(1.19887 0.710996 6.93994e-20)
(1.14312 0.692484 0)
(1.08146 0.670763 6.04987e-20)
(1.01375 0.644825 6.11248e-21)
(0.940108 0.613134 5.28979e-21)
(0.861112 0.573264 -8.74538e-20)
(0.789127 0.528616 1.87644e-20)
(0.734966 0.48737 0)
(0.696342 0.451966 -1.52912e-19)
(0.668973 0.422435 2.09069e-21)
(0.649615 0.398353 0)
(0.635454 0.37889 2.44073e-21)
(0.61816 0.359553 2.17356e-19)
(0.551381 0.314801 -2.10251e-19)
(0.349768 0.19739 6.20628e-20)
(0.0646977 0.0361298 0)
(0.241815 0.148101 0)
(1.12479 0.685259 1.32256e-19)
(1.25732 0.77178 9.8236e-20)
(1.2348 0.769909 -2.10183e-21)
(1.18556 0.753141 4.3556e-20)
(1.12966 0.733079 9.57857e-20)
(1.0676 0.709794 -1.94949e-20)
(0.999096 0.682324 1.73006e-21)
(0.924042 0.649044 3.05811e-20)
(0.842769 0.607272 -1.35879e-19)
(0.767968 0.560124 -3.15568e-21)
(0.711384 0.515919 -6.25231e-20)
(0.671002 0.477217 2.51159e-19)
(0.642638 0.444446 -2.5354e-21)
(0.623106 0.41734 -1.3034e-19)
(0.609523 0.395414 -2.37978e-19)
(0.592811 0.373456 0)
(0.526721 0.324351 0)
(0.329868 0.20026 6.86175e-20)
(0.0588159 0.0351848 -4.0064e-20)
(0.240757 0.156503 9.33202e-20)
(1.1123 0.721344 -2.88664e-19)
(1.24371 0.81275 -1.05044e-19)
(1.22127 0.810616 0)
(1.17213 0.792556 -1.45718e-21)
(1.11621 0.771168 1.15403e-19)
(1.0539 0.746574 -6.60913e-20)
(0.98477 0.717865 -2.7075e-20)
(0.908461 0.683383 3.15501e-20)
(0.824967 0.640156 -1.0438e-19)
(0.747066 0.590976 -1.63522e-19)
(0.687582 0.543945 1.66823e-19)
(0.644998 0.501816 0)
(0.615167 0.465533 -5.88643e-20)
(0.595414 0.435105 -1.43521e-19)
(0.58218 0.410108 -1.73187e-19)
(0.565857 0.385128 -2.10623e-19)
(0.499969 0.33105 6.32522e-20)
(0.307924 0.200258 -3.71193e-20)
(0.0523364 0.0333399 5.27005e-22)
(0.239662 0.164537 0)
(1.10054 0.754961 0)
(1.23009 0.850916 2.32393e-21)
(1.20772 0.848538 0)
(1.15879 0.82936 -1.63866e-19)
(1.10296 0.80684 -1.02164e-19)
(1.04054 0.781147 0)
(0.970927 0.751467 -7.01816e-21)
(0.893501 0.716147 3.94349e-20)
(0.807808 0.671978 -2.39362e-19)
(0.726638 0.621253 0)
(0.663764 0.571626 -1.0699e-19)
(0.618628 0.526086 -3.09489e-21)
(0.587058 0.486061 -2.56053e-21)
(0.566622 0.451935 1.53906e-19)
(0.553171 0.423301 -3.37678e-22)
(0.536687 0.394612 -4.59505e-19)
(0.470723 0.334737 1.38682e-19)
(0.283685 0.197072 4.12584e-20)
(0.0452028 0.0305069 0)
(0.238528 0.172179 -3.42289e-19)
(1.08924 0.786519 -1.76856e-19)
(1.21657 0.886457 -2.62708e-19)
(1.19434 0.883815 3.6548e-19)
(1.14566 0.863649 -3.07304e-19)
(1.09006 0.840169 0)
(1.02765 0.813574 -5.68889e-20)
(0.957704 0.783163 1.31521e-20)
(0.879287 0.747344 3.65821e-21)
(0.791503 0.702719 1.88932e-20)
(0.706958 0.650928 2.04729e-19)
(0.640253 0.59922 -3.65711e-20)
(0.591924 0.550631 -1.55707e-19)
(0.558067 0.506724 -7.04216e-20)
(0.535888 0.468108 8.60031e-20)
(0.522018 0.435395 -2.83401e-22)
(0.50529 0.402161 1.26906e-19)
(0.43865 0.335106 -3.01831e-19)
(0.256498 0.190193 3.61217e-19)
(0.0374162 0.0267056 5.21995e-20)
(0.237208 0.179372 1.25484e-19)
(1.07832 0.816065 -9.65029e-20)
(1.20329 0.919486 5.61941e-21)
(1.18121 0.916598 2.06285e-19)
(1.13287 0.895557 7.17758e-20)
(1.07756 0.871242 2.04261e-19)
(1.01533 0.843922 -2.52311e-20)
(0.945199 0.813015 6.36387e-20)
(0.865973 0.776985 -2.06945e-20)
(0.776217 0.732356 -1.30006e-19)
(0.688272 0.680143 0)
(0.617226 0.627053 -1.64788e-19)
(0.564498 0.575874 2.26421e-19)
(0.527075 0.527678 0)
(0.502963 0.484253 -1.8445e-19)
(0.488118 0.44596 1.14893e-19)
(0.471173 0.407424 -1.37682e-19)
(0.403414 0.332105 -1.66847e-19)
(0.226141 0.179348 -2.95697e-19)
(0.0289841 0.0218708 -2.30843e-19)
(0.235973 0.186245 -1.37683e-19)
(1.06761 0.84367 1.03215e-19)
(1.19032 0.950153 2.44499e-19)
(1.16841 0.94701 2.83414e-19)
(1.12048 0.925192 -1.50301e-19)
(1.06556 0.900157 1.41014e-19)
(1.00362 0.872253 -7.86309e-20)
(0.93348 0.841074 7.94188e-20)
(0.853635 0.805117 -5.85058e-21)
(0.762036 0.760903 1.236e-19)
(0.670579 0.708994 4.34318e-19)
(0.594939 0.655124 0)
(0.536796 0.601723 0)
(0.494435 0.54948 -8.15227e-20)
(0.467384 0.500877 0)
(0.450848 0.45631 2.51049e-19)
(0.433468 0.409693 3.02693e-19)
(0.3647 0.324172 0)
(0.193445 0.164121 0)
(0.0204512 0.0162921 2.53376e-19)
(0.234486 0.192497 1.51566e-19)
(1.05717 0.869398 1.23473e-19)
(1.17772 0.978605 1.75547e-19)
(1.15599 0.975205 -2.52636e-19)
(1.10853 0.952675 -1.67454e-19)
(1.05409 0.927005 -1.86937e-19)
(0.992562 0.898638 1.16766e-19)
(0.922576 0.867344 5.92935e-22)
(0.842313 0.831729 -4.68993e-21)
(0.749039 0.788331 -6.08494e-21)
(0.654072 0.737268 2.19895e-19)
(0.573702 0.683459 0)
(0.509885 0.628412 2.28656e-19)
(0.461084 0.572792 1.71703e-19)
(0.429392 0.518983 4.4065e-19)
(0.409456 0.466023 1.35435e-19)
(0.390461 0.408572 -1.68877e-19)
(0.322126 0.309004 -1.00011e-19)
(0.161027 0.143527 0)
(0.0135087 0.0107781 2.77586e-19)
(0.233197 0.198569 -3.32686e-19)
(1.04699 0.893563 0)
(1.16549 1.00497 1.957e-19)
(1.14399 1.00129 -2.06721e-19)
(1.09707 0.978116 1.8929e-19)
(1.04318 0.951886 2.72804e-19)
(0.982169 0.923144 -2.7084e-19)
(0.912475 0.891871 2.56254e-21)
(0.831968 0.856804 0)
(0.737295 0.81457 -1.1435e-19)
(0.639046 0.764905 -4.55098e-19)
(0.553806 0.711703 2.23845e-20)
(0.484155 0.656207 3.10182e-19)
(0.428073 0.598801 0)
(0.388773 0.540748 2.96509e-19)
(0.362248 0.478469 0)
(0.337633 0.403201 0)
(0.272914 0.279329 -1.12434e-19)
(0.138395 0.109 0)
(0.0264555 0.0131091 7.535e-20)
(0.231621 0.203972 -3.62894e-19)
(1.03705 0.916088 0)
(1.15361 1.02947 3.16613e-19)
(1.13236 1.0255 0)
(1.08603 1.00176 -1.02589e-19)
(1.03275 0.975067 0)
(0.972352 0.946061 -2.02057e-20)
(0.903061 0.914968 -1.40022e-20)
(0.822474 0.880665 -4.61816e-22)
(0.726618 0.839972 -1.11566e-19)
(0.625368 0.792323 1.18734e-20)
(0.535272 0.740711 1.85102e-19)
(0.459693 0.685419 2.99954e-19)
(0.39573 0.627418 4.29457e-20)
(0.345894 0.567563 2.30831e-19)
(0.307823 0.497205 0)
(0.264991 0.397905 3.69484e-19)
(0.197633 0.224164 -2.22617e-19)
(0.078907 0.0918488 2.57928e-19)
(-0.0641003 0.371972 -3.03759e-19)
(0.23007 0.209088 2.95419e-19)
(1.02717 0.937081 4.6586e-19)
(1.14199 1.05241 0)
(1.12098 1.04823 4.35465e-21)
(1.07526 1.02412 2.78324e-19)
(1.02257 0.997139 -5.27202e-19)
(0.962875 0.968074 -1.19432e-19)
(0.894064 0.937457 0)
(0.813524 0.904316 -2.5484e-20)
(0.716612 0.865785 -3.23905e-21)
(0.612382 0.821036 0)
(0.517292 0.772201 0)
(0.434992 0.718231 2.62285e-19)
(0.362678 0.661497 -1.33627e-19)
(0.299548 0.604833 -2.28387e-19)
(0.244537 0.531568 0)
(0.155562 0.402786 1.86935e-19)
(0.0469467 0.47143 -2.24342e-19)
(0.0508058 1.68881 -1.1798e-19)
(0.0902235 2.71067 -1.5101e-19)
(0.228418 0.213302 -2.16016e-19)
(1.01763 0.956717 -5.86624e-19)
(1.1306 1.07381 1.81886e-19)
(1.10984 1.06934 1.74751e-19)
(1.06478 1.045 0)
(1.01267 1.01785 -3.77166e-19)
(0.953867 0.988911 -1.99929e-19)
(0.885593 0.958947 9.35949e-21)
(0.805282 0.927266 -3.39868e-21)
(0.707562 0.89136 8.35235e-20)
(0.600512 0.850229 2.01552e-19)
(0.500724 0.805306 1.89261e-19)
(0.41184 0.753849 2.56229e-19)
(0.33158 0.698161 -3.03165e-19)
(0.256783 0.651274 -3.34987e-19)
(0.182044 0.585481 0)
(0.0902353 0.820921 0)
(0.148085 2.39188 9.72472e-20)
(0.156378 3.13936 0)
(0.156691 3.36312 2.24464e-19)
(0.229095 0.217574 0)
(1.00869 0.975004 0)
(1.11924 1.09354 0)
(1.09872 1.08864 4.85536e-20)
(1.0543 1.06422 2.48164e-19)
(1.00283 1.03711 -2.87503e-19)
(0.945208 1.00848 -1.43157e-19)
(0.877595 0.979335 1.06473e-20)
(0.797706 0.949351 -6.3868e-20)
(0.699483 0.916534 -1.01329e-20)
(0.589966 0.87978 3.62397e-19)
(0.4856 0.839713 -2.2173e-20)
(0.390443 0.792883 2.86338e-20)
(0.303167 0.735749 4.29724e-20)
(0.225578 0.702839 1.30453e-21)
(0.150975 0.92585 1.57994e-21)
(0.195998 2.49582 -4.6299e-19)
(0.227452 3.25513 -1.76269e-19)
(0.207868 3.42191 8.14799e-20)
(0.186308 3.45183 -8.30701e-20)
(0.144316 0.174239 1.22834e-19)
(0.992216 0.99502 0)
(1.10783 1.11183 -3.55771e-19)
(1.08841 1.10684 -4.52718e-19)
(1.04457 1.08254 5.15792e-19)
(0.993897 1.05552 3.05167e-19)
(0.936809 1.02688 1.67034e-19)
(0.870145 0.998737 -1.8194e-19)
(0.790951 0.970735 6.88293e-20)
(0.69265 0.941444 0)
(0.581308 0.909467 1.54663e-19)
(0.473239 0.874709 -1.40163e-19)
(0.371853 0.835044 0)
(0.278524 0.779451 3.75313e-20)
(0.217636 0.866943 8.91749e-20)
(0.19263 2.08709 -1.10521e-19)
(0.301274 3.28488 1.22483e-19)
(0.279714 3.44544 5.74171e-20)
(0.235066 3.47708 6.57037e-20)
(0.204345 3.49066 7.52131e-20)
(0.268957 0.250254 -2.27649e-19)
(0.97175 0.996857 0)
(1.08647 1.12947 3.61738e-19)
(1.07371 1.13322 4.65842e-19)
(1.02916 1.10862 -5.29757e-19)
(0.979304 1.082 -3.23711e-19)
(0.923383 1.05479 -2.57419e-19)
(0.858057 1.02826 -1.35653e-20)
(0.779804 1.00367 -1.00233e-19)
(0.680939 0.980522 3.62564e-21)
(0.566465 0.958088 5.89139e-21)
(0.451474 0.933931 1.07371e-19)
(0.339822 0.909137 2.32485e-20)
(0.256792 0.986699 -3.29229e-20)
(0.301346 2.01538 -7.67097e-20)
(0.388034 3.27439 4.79485e-20)
(0.380978 3.48719 -3.7425e-20)
(0.334213 3.51988 -2.04389e-20)
(0.286226 3.55602 2.08827e-20)
(0.217725 3.54656 9.35781e-22)
(0.2545 0.244889 0)
(0.965837 1.01405 9.52402e-20)
(1.07724 1.1482 -7.16564e-20)
(1.06306 1.1514 -5.18741e-20)
(1.01938 1.12675 -3.47619e-19)
(0.970389 1.10018 3.16018e-19)
(0.915242 1.07311 1.7323e-19)
(0.851215 1.04767 -1.42447e-20)
(0.774243 1.02536 1.24515e-19)
(0.676067 1.00651 -1.39006e-20)
(0.560949 0.990802 -1.95497e-19)
(0.444079 0.97518 1.52106e-20)
(0.333282 0.970534 -2.00219e-20)
(0.305324 1.33112 -2.69735e-20)
(0.425314 2.86639 1.94334e-20)
(0.480756 3.46667 4.35524e-22)
(0.426201 3.56499 -7.48212e-20)
(0.381449 3.59623 -8.13312e-20)
(0.311543 3.62956 1.06383e-19)
(0.235756 3.6209 4.64423e-20)
(0.236144 0.240852 2.33813e-19)
(0.957677 1.03346 6.40028e-19)
(1.06697 1.16808 -2.04229e-19)
(1.05179 1.17053 -1.96777e-19)
(1.00899 1.14554 0)
(0.961027 1.11881 4.61422e-19)
(0.907067 1.09192 2.63925e-19)
(0.844764 1.06756 -1.49911e-20)
(0.769579 1.04766 1.29115e-20)
(0.672802 1.03344 6.25905e-20)
(0.557706 1.02476 -5.77002e-20)
(0.440525 1.01847 -1.02074e-19)
(0.342349 1.0588 -1.30732e-19)
(0.393943 1.84248 1.42382e-19)
(0.539267 3.29274 5.19978e-20)
(0.553861 3.55305 0)
(0.484473 3.61948 0)
(0.433891 3.6848 9.98019e-20)
(0.34681 3.75413 0)
(0.252344 3.72547 2.09477e-19)
(0.222941 0.239748 -3.40381e-19)
(0.947689 1.05365 -5.31577e-19)
(1.05485 1.18848 0)
(1.03915 1.18991 4.6699e-21)
(0.997337 1.16431 -3.37128e-19)
(0.950612 1.13723 6.84439e-19)
(0.898285 1.11051 1.77281e-19)
(0.838071 1.08708 -1.8537e-20)
(0.765127 1.06957 1.39707e-19)
(0.670421 1.06025 -7.13651e-21)
(0.555961 1.05898 0)
(0.439646 1.06243 0)
(0.371192 1.20251 -9.50568e-20)
(0.508804 2.41353 2.77932e-20)
(0.645561 3.46799 -2.41433e-20)
(0.619797 3.60433 0)
(0.567571 3.68239 2.2727e-19)
(0.498907 3.7838 -3.49272e-19)