/*--------------------------------*- C++ -*----------------------------------*\
  =========                 |
  \\      /  F ield         | OpenFOAM: The Open Source CFD Toolbox
   \\    /   O peration     | Website:  https://openfoam.org
    \\  /    A nd           | Version:  10
     \\/     M anipulation  |
\*---------------------------------------------------------------------------*/
FoamFile
{
    format      ascii;
    class       volScalarField;
    location    "51";
    object      p;
}
// * * * * * * * * * * * * * * * * * * * * * * * * * * * * * * * * * * * * * //

dimensions      [0 2 -2 0 0 0 0];

internalField   nonuniform List<scalar> 
2200
(
0.777715
0.756216
0.740308
0.724641
0.710031
0.697508
0.687151
0.679043
0.673332
0.670378
0.670832
0.674621
0.680962
0.68952
0.700198
0.71296
0.727739
0.743645
0.759679
0.781179
0.710149
0.706891
0.703967
0.699845
0.694377
0.6879
0.681278
0.675319
0.670809
0.668409
0.668891
0.672175
0.67734
0.683785
0.690759
0.697504
0.703169
0.707276
0.710137
0.713491
0.670236
0.670456
0.672508
0.67385
0.674243
0.673386
0.671398
0.668714
0.666164
0.664664
0.665212
0.667653
0.670913
0.674121
0.676455
0.677455
0.677178
0.676169
0.67451
0.674262
0.647738
0.649186
0.65179
0.654253
0.65669
0.658705
0.659858
0.660083
0.6597
0.659392
0.660006
0.661372
0.66256
0.662942
0.662248
0.660573
0.658405
0.656192
0.653576
0.65217
0.633423
0.635398
0.638213
0.641036
0.643884
0.646707
0.649157
0.651011
0.652227
0.653013
0.653726
0.654183
0.653932
0.652807
0.650936
0.648556
0.646008
0.643283
0.640486
0.638561
0.626077
0.627675
0.629872
0.632397
0.635064
0.637728
0.64031
0.642714
0.644715
0.646207
0.647045
0.64704
0.646196
0.644673
0.642766
0.640618
0.638285
0.635942
0.633846
0.63227
0.622683
0.623707
0.624972
0.626831
0.628967
0.631126
0.633311
0.635589
0.637797
0.639621
0.640625
0.640617
0.639811
0.638589
0.637172
0.635597
0.633898
0.632319
0.631197
0.630181
0.620041
0.620712
0.621343
0.622642
0.624252
0.625927
0.627668
0.629578
0.631618
0.633551
0.634766
0.635046
0.6347
0.63406
0.63327
0.632303
0.631227
0.63029
0.629838
0.629162
0.616807
0.617252
0.617645
0.618638
0.619897
0.621277
0.622763
0.624406
0.626225
0.628148
0.62962
0.630366
0.630603
0.630525
0.630222
0.629738
0.629142
0.628593
0.628398
0.627935
0.612814
0.613112
0.613469
0.614335
0.615436
0.616693
0.618111
0.619705
0.62148
0.623454
0.625271
0.62655
0.627277
0.627616
0.62766
0.627484
0.627155
0.626806
0.62667
0.626348
0.608164
0.608367
0.608736
0.609562
0.61065
0.611953
0.613463
0.615176
0.617114
0.619321
0.621524
0.623263
0.624407
0.62505
0.625335
0.625376
0.625225
0.625019
0.624902
0.624667
0.603011
0.603157
0.603529
0.604336
0.605479
0.606908
0.608613
0.610582
0.612834
0.61543
0.618148
0.620376
0.621876
0.622791
0.623277
0.623478
0.623509
0.623444
0.623358
0.623172
0.59747
0.597579
0.597957
0.598771
0.59998
0.601558
0.603501
0.605818
0.608546
0.611723
0.615037
0.617778
0.619669
0.620871
0.621591
0.622
0.622211
0.622271
0.622224
0.622065
0.59155
0.591619
0.591997
0.592842
0.594179
0.59595
0.598164
0.600877
0.604185
0.608099
0.612168
0.615458
0.617762
0.619343
0.620409
0.621092
0.621517
0.621706
0.621699
0.62155
0.58512
0.585162
0.58558
0.586485
0.587951
0.589926
0.592442
0.59559
0.5995
0.604209
0.609159
0.613242
0.616187
0.6183
0.619791
0.620799
0.621459
0.621785
0.621828
0.621683
0.578096
0.578066
0.578481
0.579467
0.581145
0.58337
0.586209
0.589839
0.594459
0.600134
0.606155
0.611275
0.615039
0.617783
0.619812
0.621227
0.62215
0.622629
0.622722
0.622578
0.570216
0.570188
0.570639
0.571758
0.573654
0.57618
0.579475
0.583741
0.589214
0.596034
0.60338
0.60967
0.614446
0.617972
0.620576
0.622452
0.623692
0.624339
0.624484
0.624332
0.561368
0.561392
0.561814
0.563027
0.565254
0.568234
0.572153
0.57723
0.583767
0.59197
0.600897
0.608631
0.61452
0.618929
0.62222
0.624592
0.626161
0.626979
0.627179
0.627018
0.551064
0.551041
0.55158
0.553011
0.555605
0.559174
0.56392
0.570077
0.577972
0.587885
0.598725
0.608156
0.615384
0.620804
0.624825
0.627763
0.629708
0.630696
0.630948
0.630767
0.538854
0.538786
0.539459
0.541274
0.544385
0.548714
0.554544
0.562143
0.5719
0.584055
0.597188
0.608455
0.617071
0.623611
0.628516
0.632043
0.634399
0.635564
0.635862
0.63566
0.524385
0.524274
0.525042
0.527253
0.531146
0.536579
0.543885
0.553422
0.565606
0.580509
0.596235
0.609541
0.619726
0.627498
0.633303
0.637576
0.640375
0.64171
0.642046
0.641818
0.506736
0.506647
0.507637
0.510396
0.515291
0.522206
0.53151
0.543516
0.558627
0.576774
0.595591
0.611394
0.623372
0.632495
0.63938
0.644429
0.647681
0.649201
0.64957
0.649309
0.484934
0.484775
0.486076
0.489658
0.496013
0.505001
0.516924
0.532087
0.550712
0.572631
0.595045
0.613769
0.627935
0.638646
0.646751
0.652663
0.656408
0.658092
0.658475
0.658173
0.456819
0.456822
0.45887
0.463835
0.472396
0.484418
0.500063
0.519373
0.542358
0.568724
0.595216
0.617064
0.633501
0.645978
0.655431
0.662288
0.666523
0.668353
0.66871
0.668359
0.419465
0.419702
0.423205
0.431035
0.443567
0.460479
0.481384
0.50615
0.534556
0.566095
0.59685
0.621828
0.640547
0.654748
0.665529
0.673319
0.677936
0.679795
0.680083
0.679683
0.369538
0.369911
0.37684
0.389958
0.408948
0.433053
0.461
0.492444
0.527099
0.56435
0.599756
0.627961
0.648956
0.664895
0.67699
0.685502
0.690224
0.691878
0.691995
0.691636
0.303565
0.306389
0.321413
0.342641
0.370463
0.403431
0.439503
0.478407
0.520013
0.563723
0.604371
0.636423
0.660392
0.67861
0.692311
0.701922
0.706879
0.708296
0.708257
0.708085
0.22844
0.237812
0.262822
0.293891
0.331793
0.373751
0.417935
0.464469
0.513238
0.563657
0.610161
0.647139
0.674787
0.695779
0.711799
0.72266
0.72782
0.728861
0.728774
0.728746
0.16117
0.175867
0.207162
0.246983
0.294361
0.345111
0.397289
0.451467
0.507456
0.564586
0.617246
0.658463
0.689232
0.712776
0.730279
0.742193
0.747636
0.748628
0.748917
0.748893
0.109818
0.122994
0.159665
0.205608
0.260293
0.318528
0.378116
0.439647
0.50278
0.566627
0.62452
0.669609
0.703412
0.728912
0.748031
0.760897
0.766752
0.7683
0.76847
0.768523
0.067501
0.0799211
0.120246
0.170166
0.23037
0.294622
0.360685
0.428735
0.498081
0.567777
0.630562
0.679852
0.71616
0.74376
0.764453
0.778032
0.784598
0.786532
0.786665
0.786752
0.0311532
0.0438564
0.0868853
0.139679
0.204229
0.273288
0.344754
0.418366
0.493281
0.568744
0.637017
0.689463
0.728058
0.757285
0.779175
0.793539
0.800392
0.802565
0.802767
0.802861
-0.000522524
0.0123923
0.0575812
0.11294
0.181018
0.254016
0.330065
0.408583
0.488755
0.569491
0.641883
0.697456
0.738504
0.769146
0.791837
0.806765
0.814092
0.816418
0.816723
0.816795
-0.028832
-0.0158457
0.0309993
0.0888137
0.160005
0.236394
0.316424
0.399277
0.484054
0.569273
0.645837
0.704832
0.747451
0.779135
0.802466
0.817973
0.825492
0.828076
0.828449
0.828499
-0.0546963
-0.0416538
0.00637261
0.0665513
0.140526
0.219928
0.303456
0.390045
0.478838
0.568545
0.649504
0.710805
0.755114
0.787972
0.811553
0.827391
0.835288
0.838022
0.838461
0.838479
-0.0789335
-0.0655658
-0.0166581
0.0456792
0.122081
0.204166
0.290749
0.380644
0.473223
0.56718
0.65168
0.715756
0.761967
0.795498
0.819774
0.835619
0.843671
0.84651
0.846975
0.846931
-0.10171
-0.0881822
-0.0383732
0.0258619
0.104326
0.188769
0.27806
0.370985
0.467047
0.564748
0.653051
0.720451
0.768129
0.802669
0.827202
0.842866
0.850945
0.853739
0.854182
0.854001
-0.12321
-0.109625
-0.0590478
0.0067924
0.087028
0.17358
0.265319
0.36098
0.460124
0.56134
0.653687
0.724188
0.77385
0.80938
0.834033
0.849552
0.857284
0.860057
0.860465
0.86037
-0.143856
-0.130078
-0.0788888
-0.0117052
0.0700702
0.158522
0.252457
0.350532
0.452451
0.557169
0.653609
0.727425
0.779561
0.816126
0.840691
0.855766
0.863312
0.865838
0.86624
0.866139
-0.164037
-0.149729
-0.0980841
-0.0297335
0.0533887
0.143529
0.239413
0.339654
0.444182
0.552225
0.652526
0.730048
0.78505
0.82292
0.847613
0.862141
0.869028
0.871264
0.871563
0.871464
-0.183892
-0.168844
-0.11675
-0.0473352
0.0369622
0.128575
0.226169
0.328395
0.435346
0.546432
0.650617
0.7322
0.790246
0.830231
0.855255
0.868873
0.874896
0.876333
0.876495
0.8764
-0.203285
-0.187508
-0.13495
-0.0645388
0.0207803
0.113667
0.212777
0.316826
0.426008
0.539901
0.64771
0.73342
0.795293
0.837985
0.864022
0.876737
0.880971
0.881074
0.88091
0.880798
-0.222135
-0.205759
-0.152677
-0.0813388
0.00487802
0.0988731
0.199313
0.304984
0.416157
0.532527
0.643611
0.733609
0.799753
0.846213
0.874425
0.886308
0.888187
0.88555
0.885106
0.885948
-0.240354
-0.223521
-0.169904
-0.0977042
-0.0106929
0.0842543
0.18583
0.292893
0.405794
0.524342
0.638404
0.732612
0.803636
0.854663
0.886516
0.899116
0.898292
0.891626
0.886554
0.885152
-0.257955
-0.240744
-0.186577
-0.113591
-0.0258753
0.0698774
0.172385
0.280605
0.394996
0.515453
0.632071
0.730144
0.806111
0.862944
0.900199
0.916077
0.916133
0.904334
0.903276
0.907491
-0.274907
-0.257344
-0.20265
-0.128952
-0.0406187
0.0557931
0.159043
0.268209
0.383852
0.505905
0.6246
0.725958
0.806929
0.870043
0.914443
0.936912
0.940337
0.911665
0.871388
0.835656
-0.291177
-0.273345
-0.218152
-0.143859
-0.0550275
0.0418843
0.145673
0.25555
0.37217
0.4955
0.615828
0.719719
0.804949
0.874845
0.928262
0.960593
0.979089
0.960733
0.977668
1.03616
-0.306702
-0.288763
-0.233175
-0.158454
-0.0692821
0.027929
0.132018
0.242305
0.359495
0.483644
0.605139
0.710642
0.799095
0.874487
0.93339
0.970119
0.981704
0.960396
0.919317
0.934044
-0.321471
-0.303588
-0.247665
-0.172678
-0.0833044
0.0140357
0.118215
0.228612
0.34596
0.470467
0.592549
0.698541
0.787569
0.864438
0.923959
0.96004
0.948277
0.894748
0.830901
0.818647
-0.335453
-0.317788
-0.261619
-0.18653
-0.0970863
0.000206117
0.104269
0.214493
0.331608
0.455933
0.577861
0.68315
0.77013
0.842391
0.896217
0.905195
0.870496
0.793914
0.719532
0.697474
-0.348699
-0.331377
-0.275044
-0.20002
-0.11065
-0.0135746
0.0901788
0.199974
0.316497
0.440075
0.560985
0.664168
0.745513
0.806142
0.835363
0.822921
0.765518
0.664156
0.576965
0.55498
-0.361663
-0.344739
-0.28834
-0.213524
-0.124349
-0.0276232
0.0756685
0.184833
0.300461
0.422735
0.541681
0.64116
0.715003
0.760064
0.755241
0.720727
0.610392
0.488255
0.38105
0.354086
-0.375244
-0.358708
-0.302206
-0.22766
-0.138761
-0.0424256
0.0603315
0.168737
0.283223
0.403669
0.519707
0.613469
0.680297
0.701497
0.667904
0.580666
0.425107
0.272763
0.143721
0.116285
-0.389958
-0.373645
-0.316975
-0.242681
-0.154064
-0.0581105
0.0440784
0.151628
0.264758
0.382903
0.495098
0.582365
0.639063
0.632022
0.579489
0.430367
0.23103
0.0188459
-0.160966
-0.209221
-0.405929
-0.389705
-0.332699
-0.2586
-0.170246
-0.0746503
0.0269408
0.133534
0.245109
0.360492
0.46762
0.549127
0.591061
0.552403
0.46541
0.278069
0.0473102
-0.240934
-0.561881
-0.709547
-0.423218
-0.406911
-0.34951
-0.275521
-0.187355
-0.0921075
0.00884354
0.114383
0.224246
0.336544
0.43783
0.513358
0.537401
0.468296
0.33244
0.127381
-0.10626
-0.449608
-1.03611
-1.60794
-0.44192
-0.425439
-0.367458
-0.293486
-0.205423
-0.110483
-0.0101795
0.0942604
0.202335
0.311451
0.406791
0.474747
0.480171
0.394353
0.20383
-0.0293867
-0.231769
-0.466083
-1.02148
-2.53716
-0.462035
-0.445254
-0.38667
-0.312645
-0.224603
-0.129976
-0.0303738
0.0728825
0.179044
0.284864
0.374243
0.432695
0.418172
0.336588
0.110946
-0.127015
-0.274515
-0.311471
-0.301189
-0.689116
-0.483516
-0.466666
-0.407283
-0.333268
-0.245312
-0.151093
-0.0523561
0.0494976
0.153423
0.255347
0.339196
0.387346
0.357324
0.28784
0.0613735
-0.140865
-0.251357
-0.259044
-0.205699
-0.245982
-0.506172
-0.489339
-0.429337
-0.355461
-0.26762
-0.173953
-0.0762819
0.0239272
0.125249
0.222698
0.301861
0.340038
0.303536
0.234995
0.0298543
-0.130934
-0.212984
-0.22066
-0.268509
-0.272756
-0.530106
-0.513289
-0.452689
-0.379168
-0.291526
-0.198585
-0.102193
-0.00387827
0.0945164
0.187359
0.261977
0.290843
0.257079
0.17488
0.00200756
-0.12096
-0.191209
-0.167817
-0.188376
-0.18993
-0.554921
-0.537938
-0.477314
-0.404356
-0.316873
-0.2249
-0.130009
-0.0338065
0.0613911
0.149708
0.219681
0.238057
0.216356
0.107479
-0.0325296
-0.115756
-0.155245
-0.202092
-0.177106
-0.185494
-0.580433
-0.563055
-0.502972
-0.430746
-0.343438
-0.252753
-0.159554
-0.0656522
0.0259877
0.110065
0.176109
0.184337
0.174079
0.0472149
-0.06926
-0.133646
-0.11185
-0.171596
-0.152098
-0.15691
-0.605673
-0.588103
-0.529572
-0.458052
-0.370893
-0.281888
-0.190525
-0.0990705
-0.0114518
0.0688333
0.1321
0.132905
0.12283
-0.00465049
-0.0960195
-0.147528
-0.135585
-0.151658
-0.157082
-0.155363
-0.63032
-0.612891
-0.55624
-0.485429
-0.398869
-0.311945
-0.222525
-0.133681
-0.0504124
0.0263172
0.0882046
0.085072
0.0664194
-0.0480182
-0.110707
-0.140646
-0.179099
-0.152226
-0.158659
-0.153349
-0.653296
-0.636606
-0.581937
-0.512182
-0.427036
-0.342379
-0.255
-0.168878
-0.0900063
-0.0171892
0.0440643
0.0411693
0.0110927
-0.0857399
-0.127131
-0.115456
-0.186542
-0.135197
-0.150019
-0.142881
-0.67398
-0.658411
-0.605642
-0.537176
-0.454884
-0.372363
-0.287255
-0.204076
-0.129285
-0.0612287
-0.000537527
-4.26131e-05
-0.0364889
-0.1052
-0.140732
-0.101221
-0.144857
-0.126022
-0.132038
-0.129133
-0.690732
-0.676805
-0.626654
-0.560146
-0.481488
-0.400888
-0.318486
-0.238443
-0.167228
-0.104821
-0.045568
-0.0400117
-0.0720281
-0.109857
-0.137129
-0.116507
-0.126936
-0.126546
-0.125788
-0.125819
-0.702753
-0.690926
-0.643917
-0.579942
-0.504995
-0.427029
-0.3477
-0.271045
-0.202944
-0.146749
-0.0894733
-0.0782826
-0.102091
-0.105922
-0.123386
-0.138637
-0.125171
-0.133247
-0.128
-0.128292
-0.708601
-0.699185
-0.656362
-0.595615
-0.524333
-0.449708
-0.373846
-0.30069
-0.235532
-0.184987
-0.129964
-0.115957
-0.139526
-0.109199
-0.0843064
-0.123859
-0.104177
-0.136927
-0.137549
-0.139474
-0.708215
-0.700925
-0.662318
-0.60529
-0.538051
-0.467444
-0.395491
-0.325981
-0.263856
-0.217457
-0.164846
-0.152325
-0.181838
-0.147437
-0.0239619
-0.054703
-0.0707126
-0.0907004
-0.0970127
-0.103891
-0.700621
-0.693345
-0.659973
-0.608139
-0.545623
-0.479309
-0.411405
-0.345282
-0.285951
-0.241821
-0.193265
-0.189543
-0.227833
-0.273775
-0.264328
-0.338311
-0.350734
-0.333392
-0.317643
-0.30738
-0.681005
-0.672841
-0.647016
-0.60222
-0.545462
-0.484077
-0.420428
-0.357198
-0.299243
-0.255391
-0.209996
-0.208108
-0.308296
-0.525398
-0.880956
-1.07041
-1.09885
-1.06139
-0.969785
-0.892431
-0.640757
-0.633099
-0.622107
-0.588469
-0.538602
-0.481966
-0.422317
-0.360447
-0.301004
-0.253904
-0.210896
-0.186468
-0.309137
-0.544387
-0.815661
-0.898463
-0.855758
-0.762071
-0.690009
-0.656085
-0.597557
-0.594305
-0.592904
-0.566776
-0.525097
-0.47403
-0.41717
-0.355254
-0.290664
-0.233336
-0.180979
-0.102041
-0.0279768
0.0891808
0.18726
0.330275
0.460573
0.545648
0.609561
0.66337
-0.573418
-0.574422
-0.566237
-0.548023
-0.512565
-0.463863
-0.406557
-0.342894
-0.270147
-0.191542
-0.111555
0.0343403
0.251759
0.602345
0.939868
1.21292
1.40212
1.5093
1.55598
1.57078
-0.542056
-0.542662
-0.537861
-0.530961
-0.50036
-0.453805
-0.395069
-0.327855
-0.247434
-0.150933
-0.0449668
0.10355
0.362552
0.718604
1.06607
1.35229
1.55468
1.67236
1.72536
1.74356
-0.518805
-0.517584
-0.518961
-0.513979
-0.48951
-0.445327
-0.38506
-0.31346
-0.228679
-0.124201
-0.00922659
0.110576
0.352717
0.659875
0.964501
1.22713
1.42891
1.55235
1.60781
1.62385
-0.501182
-0.499215
-0.502017
-0.495223
-0.481206
-0.440913
-0.378944
-0.3035
-0.216767
-0.112726
-0.0028462
0.0829138
0.282714
0.541659
0.793517
1.01203
1.18812
1.29594
1.34313
1.35492
-0.486325
-0.484422
-0.482528
-0.478619
-0.475856
-0.43704
-0.374656
-0.298011
-0.212994
-0.116853
-0.0142213
0.0491927
0.20235
0.419138
0.620971
0.789599
0.925033
1.00843
1.04413
1.05308
-0.491222
-0.489512
-0.487153
-0.491327
-0.485432
-0.437914
-0.371829
-0.294315
-0.212318
-0.127908
-0.0313825
0.0210044
0.130742
0.306358
0.464663
0.589412
0.68699
0.749213
0.77614
0.782201
-0.507395
-0.508037
-0.510454
-0.519039
-0.502519
-0.443213
-0.368831
-0.288806
-0.209626
-0.137359
-0.0474749
-0.000399775
0.0721394
0.20948
0.330849
0.422592
0.4933
0.539398
0.557728
0.56282
-0.499149
-0.502047
-0.509317
-0.515297
-0.493663
-0.431182
-0.355051
-0.276792
-0.201365
-0.140346
-0.0595513
-0.0155601
0.0294895
0.133931
0.224975
0.291881
0.343598
0.377478
0.390669
0.395318
-0.425143
-0.429161
-0.439122
-0.443245
-0.425478
-0.376153
-0.315648
-0.250913
-0.184241
-0.133832
-0.0658264
-0.0261974
0.00335133
0.0832309
0.14865
0.195524
0.233601
0.258758
0.268831
0.271489
-0.294493
-0.298588
-0.302947
-0.306112
-0.297584
-0.274275
-0.241917
-0.202806
-0.155402
-0.116954
-0.0655215
-0.0323837
-0.0117295
0.0505721
0.0965475
0.128349
0.154735
0.17104
0.178151
0.180067
-0.16547
-0.167338
-0.170155
-0.174091
-0.172595
-0.167814
-0.158859
-0.142847
-0.117476
-0.09263
-0.0597036
-0.0338903
-0.0177379
0.0284258
0.0601485
0.0819185
0.0980305
0.10703
0.110347
0.11068
-0.0641199
-0.0651826
-0.0673337
-0.0724927
-0.0790174
-0.0857582
-0.089667
-0.0879308
-0.079024
-0.0675511
-0.0492077
-0.0321233
-0.0184349
0.0133467
0.0341075
0.0475286
0.055865
0.059413
0.0595486
0.0586589
0.00122335
0.000429469
-0.00136763
-0.00726135
-0.0184317
-0.0310575
-0.0408359
-0.046632
-0.0472368
-0.0454618
-0.036597
-0.0266179
-0.0168235
0.00214888
0.0140658
0.0207601
0.0239686
0.0241178
0.0225928
0.0212595
0.0351282
0.0345372
0.032914
0.027192
0.0160222
0.00231702
-0.00986134
-0.01942
-0.0246548
-0.0282326
-0.024409
-0.0196526
-0.0143868
-0.00539916
-0.000541174
0.0016245
0.00209472
0.000509658
-0.0017018
-0.0031603
0.0493458
0.0488531
0.0474249
0.0423983
0.0326623
0.0200672
0.00785001
-0.00286286
-0.0100168
-0.0159964
-0.0145547
-0.012799
-0.012263
-0.00961016
-0.00889209
-0.00928684
-0.0107925
-0.0131067
-0.0152526
-0.0166499
0.0521285
0.051755
0.0506202
0.0466282
0.0388278
0.028352
0.0173225
0.0068079
-0.000912063
-0.00771116
-0.00774116
-0.00782987
-0.0096435
-0.0102235
-0.0114973
-0.0131901
-0.0156399
-0.0181471
-0.0200843
-0.0214268
0.0490933
0.0488291
0.0479735
0.0449774
0.0391116
0.0310381
0.0219149
0.0125696
0.00524777
-0.00188073
-0.00295009
-0.00466971
-0.00718853
-0.00813523
-0.0104534
-0.0131755
-0.015721
-0.018002
-0.0195898
-0.0207821
0.0435346
0.0433661
0.0427571
0.0406137
0.0363842
0.0304422
0.0233837
0.0156336
0.00945157
0.00225293
0.000252099
-0.0017266
-0.00467455
-0.00610959
-0.0085294
-0.011151
-0.0134966
-0.0154478
-0.0165686
-0.0176095
0.0370438
0.0369402
0.0365127
0.0350275
0.0320568
0.0277618
0.022545
0.0163895
0.0115917
0.00481103
0.00244639
0.000660489
-0.0021563
-0.00390586
-0.00653198
-0.00897169
-0.0109542
-0.0124547
-0.0131334
-0.0140006
0.0306223
0.0305539
0.0302542
0.0292167
0.0270874
0.0239407
0.0199917
0.0151162
0.011716
0.00596516
0.00371766
0.00188248
-0.000524392
-0.00190426
-0.00439719
-0.00645045
-0.00795642
-0.00901011
-0.00935253
-0.0100906
0.024611
0.0245689
0.0243633
0.0236804
0.0222452
0.0199951
0.0170187
0.0131337
0.0105858
0.00597393
0.00375988
0.00210285
-0.000121824
-0.00123413
-0.00286287
-0.00404625
-0.00504586
-0.00581948
-0.00603892
-0.00665771
0.0191756
0.0191153
0.0189389
0.0184579
0.017516
0.0160388
0.0140044
0.01108
0.00923449
0.00534335
0.00316524
0.00148245
-0.00100751
-0.00154976
-0.00213129
-0.0027086
-0.00322113
-0.00358597
-0.00362943
-0.00416153
0.0147013
0.014656
0.0145508
0.0142409
0.0136078
0.0125734
0.0111674
0.00894497
0.00766563
0.0042008
0.00233125
0.000282071
-0.00213185
-0.00186358
-0.00184055
-0.00183526
-0.0018718
-0.00201899
-0.00205623
-0.00253829
0.0108821
0.0108384
0.010774
0.0105933
0.0102289
0.00952645
0.00859495
0.00692208
0.00597086
0.00300103
0.00144229
-0.000735569
-0.00258372
-0.00203749
-0.00168781
-0.00118098
-0.000874206
-0.000876699
-0.000867038
-0.00126998
0.00740612
0.00736474
0.00730881
0.00719064
0.0069407
0.00648478
0.00597558
0.00476363
0.00422674
0.00188475
0.000700697
-0.00119962
-0.00258321
-0.00185741
-0.00142418
-0.000759348
-0.000206036
2.63539e-05
7.58921e-05
-0.000383018
0.00435923
0.00432053
0.00429323
0.00427769
0.00415436
0.00388765
0.00359519
0.00270937
0.00270307
0.0011192
0.000338146
-0.00133596
-0.00227648
-0.00125334
-0.00116917
-0.000921362
-0.000513481
-0.000226548
-5.38156e-05
-0.000420701
0.00175725
0.00173925
0.00173499
0.00174688
0.00174121
0.00167741
0.00157141
0.00102262
0.0014376
0.00055248
0.000464309
-0.000257404
-0.000882836
-0.000313499
-0.00132281
-0.00221195
-0.00294245
-0.00336786
-0.00306732
-0.00309464
-1.07326
-0.232813
0.0372647
0.313732
0.495641
0.651977
0.77877
0.907992
1.04983
1.13195
-0.0923521
0.314678
0.331419
0.519848
0.644075
0.75555
0.851532
0.937009
0.964489
0.922379
0.285071
0.499085
0.534429
0.67094
0.75705
0.837034
0.903005
0.952509
0.954638
0.968665
0.514848
0.657994
0.693135
0.795127
0.852048
0.909905
0.954776
0.987157
0.996231
1.01989
0.693049
0.794614
0.824376
0.892192
0.936633
0.97777
1.00993
1.03422
1.04401
1.07556
0.836512
0.905426
0.935773
0.97877
1.01489
1.04507
1.06938
1.09011
1.10426
1.13253
0.955802
1.00643
1.03202
1.06004
1.08775
1.11154
1.13152
1.15076
1.16565
1.19214
1.05967
1.0967
1.1178
1.13848
1.15929
1.1787
1.1961
1.21421
1.22909
1.25274
1.15371
1.18284
1.19919
1.21447
1.23058
1.24665
1.2622
1.27911
1.29273
1.31504
1.24201
1.26248
1.27733
1.2905
1.30407
1.31784
1.33134
1.34593
1.35748
1.37712
1.32746
1.34325
1.35708
1.36889
1.3808
1.39243
1.40357
1.41525
1.42293
1.43973
1.41269
1.42523
1.43894
1.45069
1.46133
1.47112
1.47995
1.48821
1.49178
1.50303
1.50143
1.51224
1.52571
1.53526
1.54283
1.55011
1.55731
1.56381
1.56489
1.57226
1.59984
1.60443
1.61263
1.61739
1.62079
1.62528
1.63127
1.63896
1.64284
1.65272
1.71315
1.70005
1.69276
1.68703
1.68431
1.68565
1.69201
1.70438
1.71919
1.74885
1.83515
1.77912
1.74809
1.7309
1.72268
1.72262
1.73143
1.75103
1.78287
1.85212
)
;

boundaryField
{
    wall-4
    {
        type            zeroGradient;
    }
    pressure-outlet-7
    {
        type            fixedValue;
        value           uniform 0;
    }
    velocity-inlet-6
    {
        type            zeroGradient;
    }
    velocity-inlet-5
    {
        type            zeroGradient;
    }
    frontAndBackPlanes
    {
        type            empty;
    }
}


// ************************************************************************* //
