/*--------------------------------*- C++ -*----------------------------------*\
  =========                 |
  \\      /  F ield         | OpenFOAM: The Open Source CFD Toolbox
   \\    /   O peration     | Website:  https://openfoam.org
    \\  /    A nd           | Version:  10
     \\/     M anipulation  |
\*---------------------------------------------------------------------------*/
FoamFile
{
    format      ascii;
    class       surfaceScalarField;
    location    "51";
    object      phi;
}
// * * * * * * * * * * * * * * * * * * * * * * * * * * * * * * * * * * * * * //

dimensions      [0 3 -1 0 0 0 0];

internalField   nonuniform List<scalar> 
4262
(
0.107142
0.470846
0.0955831
0.705145
0.0694106
0.858476
0.0474218
1.02075
0.0310549
1.21488
0.0198534
1.44942
0.0124536
1.73326
0.00725741
2.07623
0.00334231
2.48916
-0.000343275
2.98598
-0.00402813
2.98598
-0.00791393
2.48913
-0.0129802
2.0761
-0.0202011
1.73308
-0.0311993
1.44922
-0.0472666
1.21458
-0.069005
1.0205
-0.095245
0.858543
-0.107081
0.705422
0.470907
0.112878
0.357968
0.135292
0.682731
0.120388
0.873379
0.097807
1.04333
0.0745464
1.23814
0.0528362
1.47113
0.0344562
1.75164
0.0202388
2.09045
0.00889394
2.5005
-0.00122997
2.9961
-0.0112487
2.996
-0.0223427
2.50022
-0.0363832
2.09014
-0.0546799
1.75138
-0.0764083
1.47095
-0.100074
1.23825
-0.123222
1.04365
-0.136879
0.8722
-0.113515
0.682058
0.357392
0.0920669
0.265901
0.125019
0.649779
0.121181
0.877218
0.104981
1.05953
0.0863444
1.25678
0.0671798
1.4903
0.048221
1.7706
0.0301963
2.10847
0.0137434
2.51696
-0.00206389
3.01191
-0.0177374
3.01167
-0.0338174
2.5163
-0.0513689
2.10769
-0.0698405
1.76985
-0.0883395
1.48945
-0.105734
1.25564
-0.119978
1.05789
-0.125253
0.877475
-0.092341
0.649146
0.265051
0.0640346
0.201867
0.104908
0.608906
0.106656
0.87547
0.0952153
1.07097
0.0813087
1.27069
0.0666153
1.50499
0.0504878
1.78673
0.0333269
2.12564
0.0155915
2.53469
-0.0031638
3.03066
-0.021658
3.03016
-0.0388992
2.53354
-0.0554153
2.12421
-0.0706786
1.78512
-0.0844846
1.50325
-0.0981418
1.2693
-0.109874
1.06963
-0.106946
0.874548
-0.0648737
0.607074
0.200177
0.0374821
0.164385
0.0807504
0.565637
0.0911381
0.865082
0.0839735
1.07814
0.071382
1.28328
0.0595593
1.51681
0.0465832
1.79971
0.031652
2.14057
0.0147584
2.55159
-0.00432868
3.04975
-0.0230449
3.04888
-0.039177
2.54968
-0.0531194
2.13815
-0.0652165
1.79721
-0.0764621
1.5145
-0.0884066
1.28125
-0.0948029
1.07602
-0.0830364
0.862781
-0.0383261
0.562363
0.161851
0.0195025
0.144882
0.0573028
0.527837
0.0727503
0.849635
0.0707189
1.08017
0.0619788
1.29202
0.0511388
1.52765
0.0400017
1.81084
0.027404
2.15316
0.0123502
2.56664
-0.00535401
3.06746
-0.0228415
3.06637
-0.0371473
2.56398
-0.0486914
2.1497
-0.0586472
1.80717
-0.0684829
1.52433
-0.0761524
1.28891
-0.077017
1.07689
-0.0599325
0.845697
-0.0203516
0.522783
0.1415
0.0106465
0.134236
0.0424394
0.496044
0.058559
0.833515
0.0588293
1.0799
0.0526949
1.29815
0.0433724
1.53697
0.0330947
1.82112
0.0218052
2.16445
0.00854119
2.5799
-0.00735288
3.08335
-0.0226192
3.08163
-0.0345096
2.57587
-0.0443633
2.15955
-0.053282
1.81609
-0.0612957
1.53235
-0.0659492
1.29357
-0.0640642
1.075
-0.0457642
0.827397
-0.0116648
0.488683
0.129835
0.0066288
0.127607
0.0331477
0.469525
0.0495747
0.817088
0.051178
1.0783
0.0460793
1.30325
0.037666
1.54539
0.028008
1.83078
0.0171923
2.17527
0.00530712
2.59179
-0.00843353
3.09709
-0.02183
3.09503
-0.0326708
2.58671
-0.0418675
2.16875
-0.0497094
1.82393
-0.0563753
1.53901
-0.0596538
1.29685
-0.056102
1.07145
-0.0370746
0.808369
-0.00783262
0.459441
0.122002
0.00476905
0.122838
0.0266957
0.447599
0.0425829
0.801201
0.0448043
1.07607
0.0403208
1.30774
0.0328013
1.55291
0.0237329
1.83985
0.0132377
2.18576
0.00147867
2.60355
-0.0115806
3.11015
-0.0234622
3.10691
-0.0331684
2.59642
-0.0415456
2.17712
-0.0484893
1.83087
-0.0538638
1.54439
-0.0561483
1.29913
-0.051242
1.06654
-0.0317339
0.788861
-0.00628812
0.433995
0.115714
0.00378092
0.119057
0.0218567
0.429523
0.037157
0.785901
0.0400317
1.0732
0.0357776
1.31199
0.0285561
1.56013
0.0198547
1.84855
0.00981215
2.19581
-0.0013269
2.61469
-0.0133336
3.12216
-0.0248476
3.11843
-0.0342652
2.60584
-0.0417722
2.18463
-0.0479138
1.83701
-0.0526797
1.54915
-0.0539668
1.30042
-0.0476428
1.06022
-0.0279313
0.76915
-0.00566463
0.411729
0.11005
0.00309145
0.115965
0.0176754
0.414939
0.0317395
0.771836
0.0348856
1.07005
0.030951
1.31592
0.0239854
1.56709
0.015617
1.85692
0.00585622
2.20557
-0.00535018
2.62589
-0.0176709
3.13448
-0.0285493
3.1293
-0.03676
2.61405
-0.043314
2.19119
-0.048385
1.84209
-0.0520588
1.55283
-0.052333
1.30069
-0.0448208
1.05271
-0.0250998
0.749429
-0.00536654
0.391996
0.104683
0.00245332
0.113512
0.0140862
0.403306
0.0268464
0.759076
0.0300191
1.06688
0.0260653
1.31988
0.0191232
1.57404
0.0108243
1.86522
0.00131613
2.21508
-0.00921647
2.63643
-0.0205938
3.14585
-0.0309708
3.13968
-0.03892
2.622
-0.0446799
2.19695
-0.0490858
1.84649
-0.0521169
1.55586
-0.0516197
1.3002
-0.0427613
1.04385
-0.0230179
0.729685
-0.00518961
0.374167
0.0994934
0.00172645
0.111786
0.0106478
0.394385
0.0216307
0.748093
0.0244542
1.06406
0.0205194
1.32381
0.0136126
1.58094
0.0053478
1.87348
-0.00393297
2.22436
-0.0145779
2.64707
-0.0264391
3.15772
-0.0361926
3.14943
-0.0425911
2.6284
-0.0472737
2.20163
-0.0509172
1.85014
-0.0528497
1.55779
-0.0515252
1.29887
-0.041504
1.03383
-0.0216572
0.709839
-0.00510452
0.357615
0.0943888
0.000902244
0.110883
0.00730341
0.387983
0.0167071
0.73869
0.0191846
1.06158
0.014969
1.32803
0.00776556
1.58815
-0.000762492
1.88201
-0.0104009
2.234
-0.0207892
2.65746
-0.031489
3.16842
-0.0405802
3.15853
-0.0467922
2.63461
-0.0506404
2.20548
-0.0534705
1.85297
-0.0543406
1.55866
-0.0520505
1.29658
-0.0406615
1.02244
-0.0206186
0.689796
-0.00498683
0.341983
0.089402
0.000203888
0.110679
0.00436032
0.383827
0.0112604
0.73179
0.0125724
1.06027
0.0081291
1.33247
0.000840797
1.59544
-0.0080881
1.89094
-0.0179925
2.2439
-0.0287371
2.6682
-0.0396254
3.1793
-0.0478913
3.16679
-0.0524928
2.63921
-0.0553879
2.20837
-0.0572692
1.85485
-0.0572126
1.5586
-0.0535111
1.29288
-0.0407291
1.00966
-0.0202779
0.669344
-0.00504464
0.32675
0.0843574
-0.000742753
0.111422
0.000723779
0.382361
0.00574608
0.726767
0.00638481
1.05963
0.00115545
1.3377
-0.00703141
1.60362
-0.0165174
1.90042
-0.0268642
2.25425
-0.0374689
2.67881
-0.0473266
3.18916
-0.0544087
3.17387
-0.0585686
2.64337
-0.060695
2.2105
-0.0616704
1.85582
-0.0606793
1.55761
-0.0553472
1.28755
-0.0411281
0.995438
-0.020181
0.648397
-0.00510875
0.311677
0.0792486
-0.00159321
0.113015
-0.00238517
0.383152
-0.000362838
0.724745
-0.0019554
1.06122
-0.00800766
1.34375
-0.0165854
1.6122
-0.0267431
1.91058
-0.0378378
2.26534
-0.0490711
2.69004
-0.0591462
3.19924
-0.0657205
3.18045
-0.0685189
2.64617
-0.0691573
2.21114
-0.0686298
1.85529
-0.0660893
1.55507
-0.0589529
1.28041
-0.0428088
0.979294
-0.0208081
0.626397
-0.005358
0.296227
0.0738906
-0.00297317
0.115989
-0.00614896
0.386328
-0.00755957
0.726156
-0.0102237
1.06389
-0.0174254
1.35095
-0.0275224
1.6223
-0.0386765
1.92174
-0.0502256
2.27689
-0.0614599
2.70128
-0.0709289
3.20871
-0.0759023
3.18542
-0.077349
2.64761
-0.0768983
2.21069
-0.0756235
1.85402
-0.0722914
1.55174
-0.0633859
1.27151
-0.0450886
0.960996
-0.0218227
0.603131
-0.00570172
0.280106
0.0681889
-0.00425969
0.120248
-0.0103671
0.392436
-0.0152794
0.731068
-0.0212404
1.06985
-0.02966
1.35937
-0.0406094
1.63325
-0.0528844
1.93401
-0.0657965
2.2898
-0.0782256
2.7137
-0.0880252
3.2185
-0.0924225
3.18982
-0.0927982
2.64799
-0.0908307
2.20872
-0.0870671
1.85026
-0.0809036
1.54558
-0.0693981
1.26
-0.0484288
0.940027
-0.0233874
0.578089
-0.00615816
0.262877
0.0620308
-0.00570772
0.125956
-0.0153423
0.40207
-0.0241375
0.739863
-0.0326876
1.0784
-0.0431749
1.36986
-0.0561896
1.64626
-0.0699703
1.94779
-0.0837005
2.30353
-0.0962282
2.72623
-0.105678
3.22795
-0.108789
3.19293
-0.106708
2.64591
-0.101975
2.20399
-0.0974
1.84568
-0.0905643
1.53874
-0.0765363
1.24597
-0.0525797
0.916071
-0.0253497
0.550859
-0.00670241
0.24423
0.0553283
-0.00798111
0.133937
-0.0221554
0.416245
-0.0363855
0.754093
-0.0483629
1.09037
-0.060502
1.382
-0.0750887
1.66085
-0.0909141
1.96362
-0.106977
2.3196
-0.121151
2.74041
-0.130196
3.237
-0.13105
3.19378
-0.127122
2.64198
-0.121754
2.19862
-0.113731
1.83766
-0.102888
1.5279
-0.0852621
1.22835
-0.057692
0.8885
-0.0276544
0.520822
-0.00728144
0.223857
0.0480469
-0.0104778
0.144415
-0.0295963
0.435363
-0.0499528
0.77445
-0.0667581
1.10718
-0.0822003
1.39744
-0.0997697
1.67842
-0.118046
1.98189
-0.135244
2.33679
-0.148606
2.75377
-0.155275
3.24367
-0.154234
3.19274
-0.148051
2.6358
-0.139139
2.18971
-0.129561
1.82808
-0.117004
1.51534
-0.0954969
1.20684
-0.0634949
0.856498
-0.0302185
0.487545
-0.00787086
0.201509
0.040176
-0.0151864
0.159601
-0.0419029
0.46208
-0.0691451
0.801692
-0.091129
1.12916
-0.110429
1.41674
-0.131455
1.69944
-0.152054
2.00249
-0.170741
2.35548
-0.184588
2.76762
-0.190262
3.24934
-0.185232
3.18771
-0.175299
2.62586
-0.164083
2.17849
-0.151024
1.81502
-0.133528
1.49784
-0.107229
1.18054
-0.0703113
0.81958
-0.0330967
0.450331
-0.00841077
0.176823
0.0317653
-0.0195059
0.179107
-0.0554156
0.497989
-0.0926067
0.838883
-0.121969
1.15853
-0.146566
1.44134
-0.171518
1.7244
-0.194447
2.02542
-0.21327
2.3743
-0.225085
2.77943
-0.226218
3.25048
-0.21766
3.17916
-0.204325
2.61253
-0.188823
2.16299
-0.172942
1.79914
-0.152599
1.4775
-0.120644
1.14859
-0.0775508
0.776487
-0.0358065
0.408586
-0.00869439
0.149711
0.0230709
-0.0325071
0.211614
-0.0815043
0.546986
-0.128555
0.885933
-0.164553
1.19452
-0.195149
1.47194
-0.224574
1.75382
-0.248714
2.04956
-0.266821
2.39241
-0.276085
2.78869
-0.273652
3.24804
-0.259125
3.16463
-0.240757
2.59416
-0.222638
2.14487
-0.202201
1.7787
-0.175222
1.45052
-0.136469
1.10983
-0.0861955
0.726213
-0.0387916
0.361182
-0.00884909
0.119769
0.0142218
-0.0470303
0.258645
-0.120576
0.620533
-0.183474
0.948831
-0.22776
1.23881
-0.263888
1.50806
-0.293705
1.78364
-0.315351
2.07121
-0.328919
2.40598
-0.331929
2.7917
-0.321839
3.23795
-0.301655
3.14445
-0.278867
2.57137
-0.255101
2.1211
-0.230779
1.75438
-0.199487
1.41923
-0.151987
1.06233
-0.0925681
0.666794
-0.0397618
0.308376
-0.0087597
0.0887665
0.00546209
-0.0339468
0.292591
-0.0971634
0.683749
-0.155265
1.00693
-0.202271
1.28582
-0.244758
1.55055
-0.282341
1.82122
-0.316975
2.10584
-0.34772
2.43672
-0.370569
2.81455
-0.379258
3.24664
-0.36978
3.13497
-0.350333
2.55193
-0.327455
2.09823
-0.29616
1.72309
-0.247743
1.37081
-0.179957
0.994547
-0.102227
0.589063
-0.0401283
0.246278
-0.0089457
0.0575838
-0.00348362
-0.0128276
0.305419
-0.0478484
0.71877
-0.0891569
1.04824
-0.128148
1.32481
-0.166727
1.58913
-0.200636
1.85513
-0.231716
2.13692
-0.257441
2.46245
-0.273054
2.83017
-0.274643
3.24823
-0.261628
3.12195
-0.239689
2.52999
-0.209204
2.06774
-0.17346
1.68734
-0.133956
1.33131
-0.0863981
0.946989
-0.0400945
0.54276
-0.0133069
0.21949
-0.0030928
0.0473697
-0.00657641
0.000141446
0.305277
-0.0247222
0.743634
-0.0543115
1.07783
-0.0841323
1.35463
-0.114987
1.61998
-0.144952
1.88509
-0.172187
2.16416
-0.194241
2.4845
-0.208123
2.84405
-0.209215
3.24932
-0.191092
3.10383
-0.161194
2.50009
-0.13143
2.03798
-0.0998638
1.65578
-0.0622462
1.29369
-0.0255559
0.910299
-0.00187781
0.519082
0.00309132
0.214521
0.000801526
0.0496595
-0.00577489
0.000762919
0.304515
-0.0124512
0.756848
-0.0338706
1.09925
-0.0584596
1.37922
-0.0840975
1.64562
-0.109219
1.91022
-0.132338
2.18727
-0.150929
2.50309
-0.161128
2.85425
-0.155551
3.24375
-0.13512
3.0834
-0.110599
2.47557
-0.0792191
2.0066
-0.0452798
1.62184
-0.0166599
1.26507
0.00495828
0.888681
0.0144549
0.509585
0.0103565
0.218619
0.00306235
0.0569537
-0.00271253
0.00388207
0.300633
-0.00569559
0.766426
-0.0235964
1.11715
-0.043971
1.39959
-0.0653525
1.667
-0.0867495
1.93161
-0.107008
2.20753
-0.12341
2.51949
-0.132172
2.86301
-0.128013
3.23959
-0.110238
3.06562
-0.0822045
2.44753
-0.0518081
1.9762
-0.0237645
1.59379
0.00409385
1.23721
0.0229816
0.869793
0.024868
0.507699
0.0149166
0.228571
0.0043368
0.0675335
0.00162427
0.00520241
0.29543
-0.000882711
0.772511
-0.0169995
1.13327
-0.0354096
1.418
-0.0545003
1.68609
-0.0733228
1.95044
-0.0909802
2.22519
-0.105062
2.53358
-0.111654
2.8696
-0.105936
3.23387
-0.086299
3.04599
-0.060619
2.42185
-0.0350389
1.95062
-0.00764441
1.5664
0.0134527
1.21612
0.0257009
0.857545
0.0258297
0.50757
0.0151882
0.239212
0.0045414
0.0781803
0.00616567
0.00378791
0.291642
-0.000772981
0.777072
-0.0142357
1.14673
-0.0309763
1.43474
-0.0481036
1.70322
-0.0651632
1.9675
-0.0814641
2.24149
-0.0949769
2.54709
-0.102427
2.87705
-0.0990432
3.23049
-0.0810148
3.02796
-0.0575119
2.39835
-0.0318345
1.92494
-0.00949777
1.54406
0.0113622
1.19526
0.0242282
0.844679
0.0227853
0.509013
0.0135437
0.248454
0.00412703
0.087597
0.0102927
0.00239557
0.289247
-0.00151447
0.780982
-0.0136142
1.15883
-0.0285601
1.44969
-0.0448033
1.71946
-0.0609833
1.98368
-0.0764995
2.25701
-0.089545
2.56013
-0.0963636
2.88387
-0.0920312
3.22615
-0.0764879
3.01241
-0.0564961
2.37836
-0.0358175
1.90426
-0.0116435
1.51989
0.00627037
1.17734
0.0165972
0.834352
0.0175656
0.508044
0.0101399
0.25588
0.00309034
0.0946466
0.013383
0.000116102
0.289131
-0.00390592
0.785004
-0.0147006
1.16962
-0.0282257
1.46321
-0.043339
1.73458
-0.0587857
1.99912
-0.074008
2.27223
-0.0871343
2.57326
-0.095277
2.89201
-0.0943246
3.2252
-0.0817838
2.99987
-0.0630974
2.35967
-0.0403015
1.88147
-0.0212984
1.50088
-0.00219634
1.15824
0.00991839
0.822237
0.0103854
0.507577
0.00645779
0.259807
0.00210359
0.0990008
0.0154866
-0.000672802
0.289803
-0.00573265
0.790063
-0.0157715
1.17966
-0.0284921
1.47593
-0.0431049
1.74919
-0.0581635
2.01418
-0.07318
2.28725
-0.0867097
2.58679
-0.0959909
2.90129
-0.0959799
3.22519
-0.0848884
2.98878
-0.0684602
2.34324
-0.0502446
1.86325
-0.0287353
1.47938
-0.0119515
1.14146
-0.00137674
0.811663
0.00293689
0.503264
0.00190454
0.260839
0.0009354
0.0999699
0.016422
-0.00220972
0.292013
-0.00772178
0.795576
-0.0174084
1.18935
-0.0295059
1.48803
-0.0433559
1.76304
-0.057964
2.02879
-0.073077
2.30236
-0.0872954
2.60101
-0.0978608
2.91186
-0.100838
3.22817
-0.0926612
2.98061
-0.0761941
2.32678
-0.0562337
1.84329
-0.039092
1.46223
-0.0213655
1.12373
-0.00845081
0.798748
-0.00364412
0.498457
-0.00141748
0.258613
-0.000272227
0.0988247
0.0161498
-0.00356354
0.295577
-0.00930503
0.801317
-0.0186377
1.19868
-0.0302947
1.49969
-0.0438049
1.77655
-0.0582543
2.04324
-0.0735012
2.31761
-0.0883391
2.61585
-0.100321
2.92384
-0.105986
3.23383
-0.0992742
2.97389
-0.0843861
2.31189
-0.0674339
1.82634
-0.0461035
1.4409
-0.0291352
1.10676
-0.0168828
0.786495
-0.00834113
0.489916
-0.00389609
0.254168
-0.000853727
0.0957823
0.0152961
-0.00418763
0.299764
-0.0104853
0.807615
-0.0198507
1.20805
-0.0311668
1.51101
-0.0441842
1.78957
-0.0583619
2.05742
-0.0737271
2.33297
-0.0891821
2.6313
-0.102706
2.93736
-0.110894
3.24202
-0.10717
2.97017
-0.0937722
2.29849
-0.0727834
1.80535
-0.0543633
1.42248
-0.0353894
1.08779
-0.0207023
0.771808
-0.0123675
0.481581
-0.00521061
0.247011
-0.00126445
0.0918362
0.0140316
-0.00440241
0.304167
-0.0112724
0.814485
-0.0205374
1.21731
-0.0315873
1.52206
-0.0443926
1.80237
-0.0584294
2.07145
-0.0738921
2.34843
-0.090019
2.64743
-0.10521
2.95256
-0.116063
3.25287
-0.115626
2.96973
-0.10291
2.28578
-0.0843629
1.7868
-0.0599153
1.39804
-0.0405492
1.06842
-0.0257512
0.75701
-0.0136179
0.469447
-0.00597075
0.239364
-0.00134165
0.0872071
0.01269
-0.00444853
0.308615
-0.0116903
0.821726
-0.0210062
1.22663
-0.0318409
1.53289
-0.0442915
1.81482
-0.0580889
2.08525
-0.073621
2.36397
-0.0902903
2.6641
-0.106707
2.96897
-0.119669
3.26584
-0.122109
2.97217
-0.111238
2.27491
-0.0890396
1.76461
-0.066405
1.3754
-0.0432301
1.04525
-0.0255555
0.739336
-0.0142505
0.458142
-0.0053427
0.230456
-0.00109873
0.0829631
0.0115913
-0.00453167
0.313147
-0.011994
0.829189
-0.0210868
1.23572
-0.0316732
1.54348
-0.0439135
1.82706
-0.0575405
2.09888
-0.0731113
2.37954
-0.0902848
2.68127
-0.108158
2.98685
-0.123859
3.28154
-0.129178
2.97749
-0.119434
2.26516
-0.100746
1.74592
-0.0716999
1.34635
-0.045232
1.01878
-0.0248463
0.71895
-0.00983821
0.443134
-0.00263034
0.223248
9.49695e-05
0.0802378
0.0116862
-0.00454446
0.317691
-0.0119875
0.836632
-0.0209575
1.24469
-0.0312905
1.55381
-0.0431872
1.83896
-0.0565858
2.11228
-0.0721438
2.39509
-0.0896836
2.69881
-0.108487
3.00565
-0.125863
3.29891
-0.134595
2.98622
-0.128053
2.25862
-0.105708
1.72357
-0.0781553
1.3188
-0.0451303
0.985753
-0.0182017
0.692021
-0.00224694
0.427179
0.00271378
0.218287
-0.00142394
0.0843755
0.0102623
-0.00456271
0.322254
-0.011962
0.844031
-0.0205935
1.25332
-0.0306154
1.56383
-0.0422449
1.85059
-0.0554138
2.12544
-0.0708898
2.41057
-0.0887097
2.71663
-0.108517
3.02546
-0.128213
3.31861
-0.139279
2.99729
-0.13474
2.25408
-0.118353
1.70719
-0.0851109
1.28556
-0.0459525
0.946595
-0.00725588
0.653325
0.0244954
0.395428
0.0367339
0.206049
0.0253993
0.0957101
0.0356616
-0.00444332
0.326697
-0.0116428
0.851231
-0.0200661
1.26175
-0.0297634
1.57353
-0.0409956
1.86182
-0.0538858
2.13833
-0.0692267
2.42591
-0.0871943
2.7346
-0.107615
3.04588
-0.12867
3.33966
-0.142695
3.01131
-0.14387
2.25525
-0.124848
1.68816
-0.0939085
1.25462
-0.0471098
0.899796
0.0015974
0.604618
0.0448734
0.352152
0.0466946
0.204228
0.0205476
0.121857
0.0562092
-0.00430095
0.330998
-0.0113661
0.858296
-0.0194058
1.26979
-0.0287241
1.58285
-0.0396574
1.87276
-0.0522429
2.15092
-0.0673875
2.44106
-0.0854321
2.75264
-0.106454
3.0669
-0.129315
3.36253
-0.145219
3.02722
-0.148588
2.25862
-0.138948
1.67852
-0.106554
1.22223
-0.0573272
0.850569
0.0155003
0.53179
0.115192
0.25246
0.191843
0.127576
0.181576
0.132124
0.237785
-0.00414904
0.335147
-0.0110502
0.865197
-0.0190789
1.27781
-0.028389
1.59216
-0.0394504
1.88382
-0.0524899
2.16396
-0.068543
2.45711
-0.0881482
2.77225
-0.111763
3.09051
-0.138684
3.38945
-0.160801
3.04934
-0.171515
2.26934
-0.161817
1.66883
-0.133892
1.1943
-0.0780696
0.794747
-0.0220439
0.475764
-0.0712411
0.301657
-0.357902
0.414237
-0.941063
0.715286
0.899907
-1.60319
-0.00398227
0.33913
-0.0107595
0.871974
-0.0185038
1.28556
-0.027634
1.60129
-0.0386283
1.89481
-0.0517652
2.1771
-0.0682221
2.47357
-0.0887746
2.7928
-0.114267
3.11601
-0.144891
3.42007
-0.171577
3.07602
-0.186029
2.28379
-0.194536
1.67733
-0.178105
1.17787
-0.152666
0.769308
-0.243815
0.566913
-0.693156
0.750999
-1.44095
1.16203
-2.04892
1.32326
1.21699
-2.36601
-0.00375055
0.34288
-0.0102097
0.878433
-0.0177752
1.29312
-0.0267078
1.61022
-0.0375256
1.90563
-0.0507468
2.19032
-0.067589
2.49041
-0.0889882
2.8142
-0.116289
3.14331
-0.150343
3.45413
-0.183571
3.10925
-0.209452
2.30967
-0.218901
1.68678
-0.20994
1.16891
-0.296344
0.855712
-0.753499
1.02407
-1.54284
1.54034
-2.10923
1.72842
-2.34868
1.56271
1.33135
-2.46303
-0.00359216
0.346472
-0.00976417
0.884605
-0.0169666
1.30033
-0.0256626
1.61892
-0.0363502
1.91632
-0.0495907
2.20356
-0.0667129
2.50753
-0.0889427
2.83643
-0.118015
3.17238
-0.155776
3.49189
-0.194576
3.14805
-0.224504
2.3396
-0.253542
1.71582
-0.335026
1.25039
-0.686693
1.20738
-1.43623
1.7736
-2.02632
2.13043
-2.26619
1.96829
-2.37947
1.67599
1.39571
-2.44383
-0.00329447
0.349767
-0.00903684
0.890348
-0.0159743
1.30726
-0.0244003
1.62734
-0.0349045
1.92682
-0.0481451
2.2168
-0.065521
2.52491
-0.0884336
2.85934
-0.119154
3.2031
-0.160459
3.53319
-0.207027
3.19462
-0.251831
2.3844
-0.294715
1.7587
-0.475441
1.43112
-1.09329
1.82523
-1.78686
2.46717
-2.10799
2.45156
-2.25634
2.11663
-2.33842
1.75808
1.46153
-2.40424
-0.00324804
0.353015
-0.00895451
0.896054
-0.0157856
1.3141
-0.024249
1.63581
-0.0350372
1.93761
-0.0485653
2.23033
-0.0664352
2.54278
-0.0903331
2.88324
-0.122845
3.23561
-0.167799
3.57815
-0.220064
3.24688
-0.266308
2.43064
-0.357102
1.8495
-0.748134
1.82215
-1.48936
2.56646
-1.96305
2.94086
-2.16295
2.65147
-2.26919
2.22287
-2.34623
1.83512
1.52506
-2.40976
-0.0033139
0.356329
-0.00919
0.90193
-0.0164743
1.32138
-0.0253815
1.64471
-0.0366253
1.94885
-0.0508121
2.24451
-0.0695795
2.56154
-0.0946806
2.90834
-0.129145
3.27008
-0.177984
3.62698
-0.235367
3.30427
-0.298746
2.49402
-0.488115
2.03887
-1.04636
2.3804
-1.67756
3.19766
-1.95352
3.21681
-2.10047
2.79842
-2.21427
2.33667
-2.30776
1.92862
1.58673
-2.36943
-0.00339638
0.359725
-0.00968678
0.908221
-0.0172766
1.32897
-0.0266677
1.6541
-0.0385103
1.9607
-0.0533553
2.25936
-0.0729855
2.58117
-0.0994293
2.93479
-0.135876
3.30652
-0.188326
3.67943
-0.251118
3.36706
-0.337121
2.58003
-0.618679
2.32043
-1.26322
3.02494
-1.75268
3.68712
-1.95983
3.42395
-2.0998
2.93839
-2.2235
2.46037
-2.33397
2.03909
1.64531
-2.39255
-0.00334315
0.363068
-0.00976797
0.914645
-0.0179675
1.33717
-0.0279085
1.66404
-0.0402331
1.97302
-0.0557917
2.27492
-0.076394
2.60178
-0.104071
2.96246
-0.142397
3.34485
-0.197664
3.7347
-0.264991
3.43438
-0.390426
2.70546
-0.776331
2.70633
-1.4099
3.65851
-1.76304
4.04026
-1.93599
3.5969
-2.03791
3.04031
-2.12645
2.54891
-2.19376
2.1064
1.63812
-2.18657
-0.00330246
0.366371
-0.0101995
0.921543
-0.0186915
1.34566
-0.0291749
1.67453
-0.0422298
1.98608
-0.0585083
2.2912
-0.0799913
2.62326
-0.109037
2.99151
-0.149262
3.38507
-0.206336
3.79178
-0.28541
3.51346
-0.455491
2.87554
-0.906619
3.15746
-1.46226
4.21416
-1.72435
4.30235
-1.87626
3.74881
-1.9695
3.13355
-1.97103
2.55044
-1.90215
2.03753
1.60306
-1.8671
-0.00309019
0.369461
-0.00993981
0.928392
-0.0190997
1.35482
-0.0300962
1.68552
-0.043479
1.99946
-0.0602153
2.30793
-0.0822001
2.64524
-0.111582
3.02089
-0.152115
3.42561
-0.208459
3.84812
-0.293656
3.59865
-0.498374
3.08026
-0.988084
3.64717
-1.42958
4.65565
-1.59489
4.46766
-1.66204
3.81595
-1.66656
3.13808
-1.519
2.40288
-1.01889
1.53741
0.584177
-0.0026119
0.372073
-0.0101222
0.935902
-0.0195064
1.36421
-0.0311853
1.6972
-0.0457502
2.01402
-0.0638205
2.326
-0.0876014
2.66902
-0.119747
3.05304
-0.164323
3.47018
-0.227237
3.91104
-0.330953
3.70237
-0.585685
3.33499
-1.1238
4.18529
-1.48218
5.01402
-1.58166
4.56715
-1.57963
3.81391
-1.47617
3.03462
-1.23687
2.16358
-0.633231
0.933773
-0.0490544
-0.002203
0.374276
-0.00915242
0.942852
-0.019309
1.37436
-0.031794
1.70969
-0.0471022
2.02933
-0.0664709
2.34537
-0.0922227
2.69478
-0.126985
3.0878
-0.175753
3.51895
-0.244803
3.98009
-0.366606
3.82417
-0.680859
3.64925
-1.24111
4.74554
-1.5031
5.27602
-1.56155
4.62559
-1.53959
3.79196
-1.33732
2.83234
-0.784541
1.6108
-0.109498
0.258731
-0.158552
-0.0016364
0.375912
-0.00883165
0.950047
-0.0188515
1.38438
-0.0319169
1.72275
-0.0484134
2.04583
-0.0691168
2.36607
-0.0966696
2.72233
-0.134322
3.12545
-0.186799
3.57143
-0.264089
4.05738
-0.41324
3.97333
-0.786204
4.02221
-1.32076
5.2801
-1.49674
5.45199
-1.52813
4.65698
-1.43987
3.7037
-1.10344
2.4959
-0.31462
0.821989
0.025223
-0.0811124
-0.133329
-0.00046599
0.376378
-0.00647454
0.956056
-0.0172389
1.39515
-0.0311171
1.73663
-0.0481067
2.06282
-0.0699714
2.38794
-0.0994212
2.75178
-0.139413
3.16544
-0.194713
3.62673
-0.280525
4.14319
-0.454523
4.14732
-0.891835
4.45952
-1.36389
5.75216
-1.48184
5.56994
-1.48425
4.65939
-1.26057
3.48002
-0.689002
1.92434
-0.062678
0.195665
0.030791
-0.174581
-0.102538
0.000415656
0.375963
-0.00476552
0.961237
-0.0149803
1.40536
-0.029232
1.75088
-0.0471941
2.08078
-0.0703176
2.41106
-0.101318
2.78278
-0.143713
3.20784
-0.202066
3.68508
-0.297281
4.2384
-0.499289
4.34933
-0.986907
4.94714
-1.36191
6.12716
-1.42494
5.63297
-1.37911
4.61356
-1.0903
3.19121
-0.324358
1.1584
0.00497746
-0.133671
0.015363
-0.184967
-0.0871752
0.00329048
0.372672
0.000477099
0.96405
-0.0107126
1.41655
-0.0256813
1.76585
-0.0435735
2.09867
-0.0675708
2.43506
-0.099991
2.8152
-0.144028
3.25188
-0.204991
3.74604
-0.308209
4.34162
-0.534958
4.57608
-1.0464
5.45858
-1.32227
6.40303
-1.36433
5.67503
-1.22561
4.47484
-0.775034
2.74063
-0.0709557
0.454319
0.0458063
-0.250433
0.0251396
-0.1643
-0.0620356
0.00485562
0.367816
0.00333763
0.965568
-0.00588524
1.42577
-0.0199184
1.77989
-0.0383818
2.11713
-0.0633289
2.46001
-0.0966474
2.84852
-0.142293
3.29752
-0.205791
3.80954
-0.316967
4.4528
-0.574291
4.8334
-1.06919
5.95348
-1.2608
6.59464
-1.26975
5.68399
-1.05074
4.25583
-0.461525
2.15142
-0.014582
0.00737549
-0.00338867
-0.261626
0.00697326
-0.174662
-0.0550623
0.00859226
0.359224
0.0100434
0.964117
0.00257448
1.43324
-0.0110916
1.79355
-0.0292049
2.13525
-0.0541738
2.48498
-0.0878161
2.88216
-0.133554
3.34326
-0.19852
3.8745
-0.315804
4.57008
-0.593264
5.11086
-1.04554
6.40576
-1.16622
6.71532
-1.15386
5.67163
-0.897975
3.99995
-0.265874
1.51932
-0.070577
-0.187922
-0.0377996
-0.294404
-0.012967
-0.199495
-0.0680293
0.0118087
0.347415
0.0171333
0.958792
0.0128402
1.43754
0.00203201
1.80436
-0.0169946
2.15427
-0.0415765
2.50956
-0.0747288
2.91531
-0.120587
3.38912
-0.186097
3.94002
-0.307067
4.69105
-0.592596
5.39639
-0.978696
6.79186
-1.04941
6.78604
-0.978712
5.60093
-0.683193
3.70443
-0.0836233
0.919746
-0.000355226
-0.27119
-0.0112099
-0.283549
-0.00531469
-0.20539
-0.0733439
0.0183096
0.329106
0.0298928
0.947209
0.0282649
1.43916
0.0176502
1.81497
0.000761864
2.17116
-0.0212841
2.5316
-0.0529594
2.94699
-0.0968694
3.43303
-0.16036
4.00351
-0.280525
4.81122
-0.5549
5.67077
-0.864865
7.10182
-0.898567
6.81974
-0.804014
5.50638
-0.460245
3.36066
0.0453423
0.414159
0.0606111
-0.286459
0.0421711
-0.265109
0.0153856
-0.178604
-0.0579584
0.0244366
0.304669
0.0432005
0.928445
0.0473349
1.43503
0.0406096
1.8217
0.0272861
2.18449
0.00587662
2.55301
-0.023559
2.97642
-0.0645972
3.47406
-0.124798
4.06371
-0.23889
4.92531
-0.480817
5.91269
-0.703436
7.32444
-0.738452
6.85475
-0.622877
5.3908
-0.301282
3.03906
-0.00539053
0.118268
0.0178429
-0.309692
0.0303048
-0.277571
0.0150262
-0.163326
-0.0429321
0.03457
0.270099
0.0643329
0.898682
0.0748781
1.42448
0.0719147
1.82466
0.062352
2.19405
0.0444648
2.5709
0.0186399
3.00225
-0.0180926
3.5108
-0.0711662
4.11678
-0.16736
5.0215
-0.361531
6.10687
-0.514145
7.47705
-0.543463
6.88407
-0.452113
5.29945
-0.161087
2.74804
-0.0383739
-0.00444509
-0.0176334
-0.330432
0.0130972
-0.308302
0.0128863
-0.163115
-0.0300459
0.0440702
0.226029
0.086812
0.855941
0.107946
1.40335
0.112853
1.81976
0.10822
2.19868
0.0943107
2.58481
0.0743642
3.02219
0.0446989
3.54046
-0.0038083
4.16529
-0.0733591
5.09105
-0.202676
6.23618
-0.284959
7.55934
-0.303998
6.90311
-0.247168
5.24262
-0.0280222
2.52889
-0.052777
0.0203097
-0.0574243
-0.325785
-0.0138546
-0.351871
0.0186405
-0.19561
-0.0114053
0.0565196
0.16951
0.118031
0.794429
0.153557
1.36782
0.165858
1.80746
0.167444
2.1971
0.159425
2.59283
0.146804
3.03482
0.127345
3.55992
0.0976715
4.19496
0.056809
5.13192
0.0175783
6.27541
-0.0193092
7.59623
-0.0328195
6.91662
-0.0914764
5.30128
-0.144503
2.58192
-0.383805
0.259611
-0.405545
-0.304045
-0.279996
-0.47742
-0.0958925
-0.379714
-0.107298
0.0595219
0.109988
0.148094
0.705857
0.204684
1.31123
0.232158
1.77998
0.243316
2.18594
0.242522
2.59362
0.238286
3.03905
0.230219
3.56799
0.219831
4.20535
0.207736
5.14401
0.282446
6.2007
0.346774
7.5319
0.28142
6.98198
0.0442551
5.53844
-0.354327
2.9805
-0.731252
0.636537
-0.742143
-0.293154
-0.5626
-0.656963
-0.260851
-0.681462
-0.368149
0.0508309
0.0591568
0.179296
0.577392
0.270908
1.21962
0.314618
1.73627
0.336041
2.16451
0.34596
2.5837
0.349806
3.03521
0.357044
3.56075
0.371508
4.19088
0.404381
5.11114
0.573313
6.03177
0.78061
7.3246
0.841711
6.92087
0.811642
5.56851
0.361735
3.43041
-0.237718
1.23599
-0.595445
0.064572
-0.62068
-0.631728
-0.335209
-0.966933
-0.703358
0.035626
0.0235308
0.212829
0.400189
0.336791
1.09566
0.412962
1.6601
0.452108
2.12537
0.475201
2.56061
0.487356
3.02305
0.508526
3.53958
0.547381
4.15203
0.633968
5.02455
0.954514
5.71122
1.47182
6.80729
1.87919
6.51351
2.19492
5.25278
1.97005
3.65527
1.23387
1.97217
0.608862
0.689577
0.169274
-0.19214
-0.0339764
-0.763683
-0.737334
0.0312524
-0.00772163
0.232873
0.198569
0.427956
0.900576
0.534443
1.55361
0.588058
2.07175
0.624384
2.52428
0.64882
2.99861
0.681477
3.50692
0.749378
4.08413
0.895539
4.87839
1.32434
5.28243
2.09276
6.03887
2.49132
6.11495
2.69203
5.05207
2.53072
3.81659
2.02322
2.47967
1.46837
1.24443
0.939351
0.33688
0.368514
-0.192846
-0.36882
0.0279597
-0.0356814
0.17369
0.0528381
0.479071
0.595195
0.662575
1.37011
0.752881
1.98145
0.803121
2.47404
0.843343
2.95839
0.878429
3.47184
0.956175
4.00638
1.1051
4.72946
1.46713
4.9204
2.24162
5.26438
2.60866
5.7479
2.78177
4.87896
2.6907
3.90766
2.25163
2.91874
1.61826
1.8778
0.962745
0.992394
0.411388
0.35851
0.0425685
0.00880833
-0.0444897
0.0906481
-0.0290017
0.407549
0.278294
0.667866
1.10979
0.792211
1.8571
0.828277
2.43798
0.838242
2.94843
0.82867
3.48141
0.827554
4.0075
0.871816
4.6852
0.985793
4.80642
1.36286
4.88732
1.56925
5.54151
1.58797
4.86024
1.51213
3.9835
1.31025
3.12062
0.971653
2.21639
0.610416
1.35363
0.251109
0.717817
0.293678
-0.00132984
-0.0431598
0.0371422
-0.0674737
0.231436
0.0840005
0.50029
0.840939
0.649671
1.70772
0.701385
2.38626
0.7163
2.93351
0.711108
3.4866
0.694693
4.02391
0.708746
4.67114
0.756952
4.75822
0.988375
4.65589
1.20779
5.32209
1.21315
4.85488
1.14942
4.04723
1.0063
3.26375
0.759392
2.4633
0.471331
1.64169
0.191082
0.998066
0.48476
-0.000513655
-0.0426462
0.0238267
-0.0918141
0.111428
-0.00360086
0.35408
0.598288
0.496214
1.56559
0.557773
2.3247
0.577633
2.91365
0.581163
3.48307
0.564293
4.04078
0.555295
4.68014
0.575519
4.73799
0.716476
4.51494
0.888991
5.14958
0.886295
4.85758
0.818795
4.11473
0.704843
3.3777
0.532231
2.63592
0.320042
1.85388
0.121539
1.19657
0.606298
0.00475734
-0.0474035
0.0319727
-0.119029
0.0835024
-0.0551306
0.259262
0.422528
0.378587
1.44626
0.429326
2.27397
0.442138
2.90084
0.447375
3.47784
0.43945
4.04871
0.430082
4.68951
0.431493
4.73658
0.513054
4.43338
0.631013
5.03162
0.624712
4.86388
0.558193
4.18125
0.467176
3.46871
0.346161
2.75693
0.199998
2.00005
0.0652749
1.33129
0.671573
0.0334314
-0.0808349
0.0861196
-0.171718
0.121004
-0.0900146
0.179476
0.364056
0.258817
1.36692
0.296157
2.23662
0.308378
2.88862
0.319078
3.46714
0.32311
4.04468
0.319672
4.69295
0.313755
4.7425
0.353168
4.39396
0.426991
4.9578
0.419875
4.87099
0.364894
4.23623
0.296639
3.53697
0.21015
2.84342
0.107964
2.10223
0.0196021