/*--------------------------------*- C++ -*----------------------------------*\
  =========                 |
  \\      /  F ield         | OpenFOAM: The Open Source CFD Toolbox
   \\    /   O peration     | Website:  https://openfoam.org
    \\  /    A nd           | Version:  10
     \\/     M anipulation  |
\*---------------------------------------------------------------------------*/
FoamFile
{
    format      ascii;
    class       volVectorField;
    location    "51";
    object      U;
}
// * * * * * * * * * * * * * * * * * * * * * * * * * * * * * * * * * * * * * //

dimensions      [0 1 -1 0 0 0 0];

internalField   nonuniform List<vector> 
2200
(
(0.878834 -0.0304146 0)
(1.00578 -0.0512834 0)
(1.00327 -0.0354063 0)
(1.00023 -0.0244558 0)
(0.999812 -0.0166887 0)
(1 -0.0107567 0)
(1.00003 -0.00687925 0)
(1.00002 -0.00422692 0)
(1 -0.00224788 0)
(1.00018 -0.000722379 0)
(1.00001 0.00102254 0)
(0.99989 0.00254927 0)
(1 0.00450385 0)
(1.00002 0.00707465 0)
(1.00009 0.0108781 0)
(1.00004 0.0166995 0)
(1.00036 0.0244166 0)
(1.00348 0.0349391 0)
(1.00596 0.0513731 0)
(0.879017 0.0303142 0)
(0.712003 -0.0327632 0)
(0.99663 -0.0630177 0)
(1.0333 -0.0561591 0)
(1.02489 -0.0464073 0)
(1.01592 -0.0360948 0)
(1.00967 -0.0263659 0)
(1.0059 -0.0181287 0)
(1.00375 -0.0114424 0)
(1.00256 -0.00605724 0)
(1.00208 -0.00153408 0)
(1.00218 0.00260979 0)
(1.00266 0.0070402 0)
(1.00365 0.0123131 0)
(1.00576 0.0189268 0)
(1.00942 0.0271756 0)
(1.01544 0.0368757 0)
(1.02454 0.04734 0)
(1.03309 0.0578135 0)
(0.996676 0.0631407 0)
(0.711777 0.0330114 0)
(0.535519 -0.0238957 0)
(0.969884 -0.0569493 0)
(1.05642 -0.054735 0)
(1.05227 -0.0488144 0)
(1.03622 -0.0404939 0)
(1.02441 -0.0323025 0)
(1.0159 -0.0240292 0)
(1.01041 -0.0161438 0)
(1.00721 -0.00888314 0)
(1.00562 -0.00227843 0)
(1.00538 0.00402394 0)
(1.00683 0.0105597 0)
(1.01015 0.0175894 0)
(1.01565 0.0252667 0)
(1.02413 0.0332984 0)
(1.03621 0.0413474 0)
(1.05227 0.0493908 0)
(1.05634 0.0534073 0)
(0.969219 0.0576203 0)
(0.534434 0.0239302 0)
(0.392233 -0.0136588 0)
(0.911733 -0.0464039 0)
(1.05745 -0.0469712 0)
(1.06942 -0.0442722 0)
(1.05486 -0.0381557 0)
(1.03937 -0.0315186 0)
(1.02751 -0.0247178 0)
(1.019 -0.0174975 0)
(1.01363 -0.0100172 0)
(1.01103 -0.00242933 0)
(1.01105 0.00511513 0)
(1.01346 0.0125274 0)
(1.01846 0.0197744 0)
(1.02681 0.0266983 0)
(1.03856 0.0330633 0)
(1.05393 0.0394897 0)
(1.06816 0.0455568 0)
(1.05559 0.0482671 0)
(0.909958 0.0469629 0)
(0.390015 0.0137743 0)
(0.307602 -0.00451088 0)
(0.84668 -0.0323876 0)
(1.0495 -0.0399451 0)
(1.0796 -0.0382582 0)
(1.06819 -0.0335977 0)
(1.05162 -0.0279995 0)
(1.03832 -0.0226205 0)
(1.02811 -0.0165755 0)
(1.02106 -0.00966359 0)
(1.01717 -0.00207345 0)
(1.01679 0.00576191 0)
(1.02029 0.0130831 0)
(1.02729 0.0196306 0)
(1.03724 0.0252566 0)
(1.05031 0.0302444 0)
(1.06683 0.0355646 0)
(1.07791 0.0398972 0)
(1.04746 0.0416102 0)
(0.843191 0.03291 0)
(0.303953 0.00471736 0)
(0.264122 9.43738e-05 0)
(0.788738 -0.0201057 0)
(1.033 -0.0315057 0)
(1.08334 -0.0321306 0)
(1.07724 -0.0288781 0)
(1.06083 -0.0239869 0)
(1.0472 -0.019531 0)
(1.03635 -0.0144255 0)
(1.0285 -0.00842335 0)
(1.02406 -0.00139759 0)
(1.02381 0.00597992 0)
(1.02769 0.0128288 0)
(1.03475 0.0184288 0)
(1.04524 0.0230569 0)
(1.05866 0.0269871 0)
(1.07488 0.0314033 0)
(1.08038 0.0341662 0)
(1.02926 0.0332445 0)
(0.7829 0.0207161 0)
(0.259041 0.000108305 0)
(0.240177 0.00106725 0)
(0.738265 -0.0123123 0)
(1.01379 -0.025032 0)
(1.08412 -0.0268051 0)
(1.08293 -0.0245025 0)
(1.06767 -0.0203963 0)
(1.05414 -0.0164122 0)
(1.04331 -0.0119697 0)
(1.0352 -0.00655362 0)
(1.0303 -0.00017049 0)
(1.02981 0.00649369 0)
(1.03385 0.0123288 0)
(1.04152 0.01709 0)
(1.05173 0.0209804 0)
(1.06494 0.0244459 0)
(1.07973 0.0279288 0)
(1.08026 0.0295139 0)
(1.00801 0.0271257 0)
(0.729437 0.0131004 0)
(0.233494 -0.000848565 0)
(0.225709 0.000946786 0)
(0.694928 -0.00808046 0)
(0.992558 -0.0208707 0)
(1.08191 -0.0233009 0)
(1.08673 -0.0214776 0)
(1.07331 -0.0178668 0)
(1.05982 -0.0140673 0)
(1.04923 -0.00973986 0)
(1.04131 -0.00488937 0)
(1.03635 0.000677877 0)
(1.0356 0.00658659 0)
(1.03919 0.0119149 0)
(1.046 0.0161674 0)
(1.05606 0.0196715 0)
(1.06928 0.0227164 0)
(1.08205 0.0255778 0)
(1.07569 0.0265709 0)
(0.983556 0.0232866 0)
(0.682477 0.00907039 0)
(0.217137 -0.000723989 0)
(0.216125 0.000613587 0)
(0.659675 -0.00572069 0)
(0.972381 -0.0176938 0)
(1.07946 -0.0203381 0)
(1.09016 -0.0188025 0)
(1.07811 -0.0157643 0)
(1.06468 -0.0120969 0)
(1.05421 -0.00797734 0)
(1.04635 -0.00312564 0)
(1.0414 0.00226208 0)
(1.04069 0.00771088 0)
(1.0442 0.0122756 0)
(1.0509 0.0161 0)
(1.06033 0.0193796 0)
(1.07302 0.0221172 0)
(1.0839 0.0241957 0)
(1.07173 0.0247777 0)
(0.960212 0.0208173 0)
(0.64284 0.00699429 0)
(0.205207 -0.000351741 0)
(0.20878 0.000294672 0)
(0.630708 -0.00424314 0)
(0.952954 -0.0151271 0)
(1.07589 -0.0180977 0)
(1.09305 -0.0168255 0)
(1.08273 -0.0139225 0)
(1.06934 -0.0104287 0)
(1.05887 -0.00631334 0)
(1.05114 -0.00169742 0)
(1.04616 0.00325156 0)
(1.04465 0.00819378 0)
(1.04727 0.0127602 0)
(1.05345 0.016433 0)
(1.06288 0.0192951 0)
(1.07565 0.0217589 0)
(1.08462 0.0235496 0)
(1.06415 0.0235038 0)
(0.935136 0.0188554 0)
(0.608051 0.00582764 0)
(0.194887 2.10312e-05 0)
(0.202944 7.44907e-05 0)
(0.607421 -0.0031925 0)
(0.935141 -0.0126493 0)
(1.07288 -0.0157634 0)
(1.0963 -0.0146892 0)
(1.08721 -0.0120399 0)
(1.07378 -0.00851003 0)
(1.06312 -0.00459603 0)
(1.05502 2.01911e-06 0)
(1.04973 0.00507456 0)
(1.04857 0.0100821 0)
(1.05132 0.0140607 0)
(1.05723 0.0172395 0)
(1.06629 0.0198546 0)
(1.07842 0.0218435 0)
(1.08528 0.023028 0)
(1.05826 0.0225172 0)
(0.912422 0.0172456 0)
(0.57857 0.00512536 0)
(0.185582 0.000296499 0)
(0.198218 -5.63897e-06 0)
(0.588916 -0.002356 0)
(0.919301 -0.0104117 0)
(1.06953 -0.0136467 0)
(1.09944 -0.012622 0)
(1.092 -0.009914 0)
(1.07841 -0.00647947 0)
(1.06751 -0.00258448 0)
(1.05931 0.00188136 0)
(1.05382 0.00658275 0)
(1.05142 0.0110556 0)
(1.05325 0.015101 0)
(1.0589 0.0180877 0)
(1.06798 0.0202491 0)
(1.08036 0.0220869 0)
(1.08509 0.0229891 0)
(1.0488 0.0218751 0)
(0.887693 0.0159396 0)
(0.551245 0.00470834 0)
(0.17637 0.000465099 0)
(0.194575 2.32836e-05 0)
(0.574093 -0.0015868 0)
(0.904795 -0.00820026 0)
(1.06694 -0.0112293 0)
(1.10309 -0.0102051 0)
(1.09694 -0.00756564 0)
(1.08329 -0.00404154 0)
(1.07192 -0.000295817 0)
(1.06306 0.0040618 0)
(1.05687 0.00893251 0)
(1.05481 0.0137342 0)
(1.05674 0.0170076 0)
(1.06217 0.0194065 0)
(1.07102 0.0212627 0)
(1.08246 0.0226437 0)
(1.08446 0.0231853 0)
(1.04082 0.0215101 0)
(0.865216 0.0150011 0)
(0.52732 0.0045013 0)
(0.167694 0.000556268 0)
(0.192364 4.93203e-05 0)
(0.563337 -0.000821666 0)
(0.893049 -0.00606405 0)
(1.0641 -0.00901172 0)
(1.10645 -0.00787781 0)
(1.10198 -0.005048 0)
(1.08812 -0.0014503 0)
(1.07639 0.00244877 0)
(1.06716 0.00684253 0)
(1.06059 0.0114198 0)
(1.05698 0.0155349 0)
(1.05785 0.0190011 0)
(1.06303 0.0212087 0)
(1.07208 0.0224632 0)
(1.08331 0.0235782 0)
(1.08289 0.0236068 0)
(1.02899 0.0214097 0)
(0.84017 0.014259 0)
(0.503653 0.00435695 0)
(0.158818 0.000584907 0)
(0.191385 9.75575e-05 0)
(0.555725 -0.000251674 0)
(0.882615 -0.00400292 0)
(1.06243 -0.00620715 0)
(1.11028 -0.00488534 0)
(1.10712 -0.00207235 0)
(1.09338 0.00164587 0)
(1.08115 0.00565332 0)
(1.07119 0.010151 0)
(1.06351 0.0149134 0)
(1.06 0.0190664 0)
(1.06122 0.0218246 0)
(1.066 0.0233388 0)
(1.07452 0.0244726 0)
(1.08368 0.0248894 0)
(1.08043 0.0245483 0)
(1.01799 0.0217281 0)
(0.817032 0.0139445 0)
(0.4822 0.00438999 0)
(0.150382 0.000618907 0)
(0.191876 6.78955e-05 0)
(0.551278 0.00076661 0)
(0.876163 -0.00167935 0)
(1.06125 -0.00366982 0)
(1.11432 -0.00200008 0)
(1.11272 0.00123605 0)
(1.0989 0.00517934 0)
(1.08644 0.00940933 0)
(1.07611 0.0139902 0)
(1.06806 0.0185079 0)
(1.06298 0.022088 0)
(1.06197 0.0244598 0)
(1.06587 0.0259545 0)
(1.07434 0.0265099 0)
(1.0834 0.0266049 0)
(1.07662 0.025738 0)
(1.00342 0.0221285 0)
(0.791096 0.0138529 0)
(0.459805 0.00445197 0)
(0.141431 0.00063596 0)
(0.193793 0.000197731 0)
(0.551429 0.00148701 0)
(0.871109 0.000391212 0)
(1.062 -0.00018721 0)
(1.11923 0.00190124 0)
(1.11862 0.00520779 0)
(1.10484 0.00941315 0)
(1.09176 0.0140111 0)
(1.0804 0.018883 0)
(1.07063 0.0235874 0)
(1.06493 0.0271281 0)
(1.06472 0.0292303 0)
(1.06846 0.029765 0)
(1.07593 0.0299667 0)
(1.08202 0.0292862 0)
(1.07131 0.0276828 0)
(0.989399 0.0232571 0)
(0.766597 0.0141987 0)
(0.438658 0.0046807 0)
(0.132655 0.000673392 0)
(0.197778 0.000656225 0)
(0.553951 0.00227136 0)
(0.871201 0.00330878 0)
(1.06392 0.00299155 0)
(1.12467 0.00564388 0)
(1.12516 0.00963348 0)
(1.11098 0.0144312 0)
(1.09738 0.0193108 0)
(1.08541 0.0242746 0)
(1.07516 0.028829 0)
(1.06789 0.0319927 0)
(1.0646 0.0330872 0)
(1.06634 0.0335656 0)
(1.07369 0.0329262 0)
(1.08022 0.0322512 0)
(1.0648 0.0300866 0)
(0.971062 0.0246644 0)
(0.738186 0.0148048 0)
(0.415221 0.0050008 0)
(0.122873 0.000714402 0)
(0.204125 0.000863973 0)
(0.560597 0.00338351 0)
(0.87478 0.00572317 0)
(1.06852 0.0073465 0)
(1.13138 0.010715 0)
(1.13254 0.015051 0)
(1.11782 0.0202276 0)
(1.10307 0.0257495 0)
(1.08962 0.0312938 0)
(1.07727 0.0362598 0)
(1.06839 0.0392226 0)
(1.06571 0.0401608 0)
(1.06835 0.0397838 0)
(1.07437 0.038791 0)
(1.07666 0.0365271 0)
(1.0562 0.0332096 0)
(0.952772 0.0266718 0)
(0.710719 0.0157922 0)
(0.392194 0.00543263 0)
(0.11294 0.000761195 0)
(0.212356 0.00103533 0)
(0.571695 0.00470019 0)
(0.882801 0.00880027 0)
(1.07547 0.0117885 0)
(1.13921 0.0161716 0)
(1.14115 0.0213141 0)
(1.12565 0.0274044 0)
(1.10991 0.0332755 0)
(1.09534 0.0390534 0)
(1.08174 0.0438767 0)
(1.07103 0.0467518 0)
(1.06486 0.0469125 0)
(1.06376 0.0453848 0)
(1.06932 0.0427722 0)
(1.07253 0.0412011 0)
(1.04577 0.0369564 0)
(0.928982 0.02904 0)
(0.677942 0.0171212 0)
(0.36549 0.00593787 0)
(0.101534 0.000818343 0)
(0.224496 0.00135638 0)
(0.589563 0.00663964 0)
(0.897113 0.0131616 0)
(1.08592 0.018016 0)
(1.14885 0.0232872 0)
(1.15067 0.0290964 0)
(1.13392 0.0359161 0)
(1.11617 0.0428153 0)
(1.09894 0.0494698 0)
(1.08241 0.0548749 0)
(1.06925 0.0569554 0)
(1.06346 0.0561151 0)
(1.06412 0.053847 0)
(1.06883 0.0513 0)
(1.06595 0.0471544 0)
(1.03264 0.041433 0)
(0.905009 0.0320979 0)
(0.64548 0.0186892 0)
(0.338577 0.00649446 0)
(0.0898238 0.000862768 0)
(0.24008 0.00192328 0)
(0.613135 0.00848909 0)
(0.918145 0.0179096 0)
(1.10059 0.0250776 0)
(1.16034 0.0320133 0)
(1.16187 0.0389771 0)
(1.14353 0.0472159 0)
(1.12419 0.0548532 0)
(1.10521 0.0616924 0)
(1.08644 0.0661797 0)
(1.07084 0.0672794 0)
(1.06147 0.0657694 0)
(1.05796 0.0624492 0)
(1.05997 0.0580198 0)
(1.05863 0.0537905 0)
(1.01663 0.0469533 0)
(0.873711 0.0354748 0)
(0.605772 0.0205056 0)
(0.306792 0.00709594 0)
(0.0763733 0.000881741 0)
(0.26184 0.00277891 0)
(0.645855 0.012293 0)
(0.946575 0.0247746 0)
(1.11982 0.0348225 0)
(1.17485 0.0430876 0)
(1.17503 0.0521166 0)
(1.15435 0.0613021 0)
(1.13202 0.0699072 0)
(1.10921 0.0772299 0)
(1.08653 0.0817437 0)
(1.06803 0.0819978 0)
(1.05788 0.0781749 0)
(1.05563 0.0736354 0)
(1.05768 0.0684754 0)
(1.04753 0.0620592 0)
(0.996834 0.0528985 0)
(0.841481 0.0396354 0)
(0.565979 0.0226325 0)
(0.274491 0.00770624 0)
(0.0627654 0.000852867 0)
(0.293267 0.00371149 0)
(0.691888 0.0155568 0)
(0.985809 0.033226 0)
(1.14562 0.0467496 0)
(1.19271 0.0576303 0)
(1.19054 0.0684683 0)
(1.16657 0.0792329 0)
(1.14149 0.088424 0)
(1.11625 0.0954146 0)
(1.09097 0.0985809 0)
(1.06883 0.096454 0)
(1.05478 0.0920999 0)
(1.04745 0.0854796 0)
(1.04528 0.0782614 0)
(1.03575 0.0710359 0)
(0.973316 0.0602241 0)
(0.799822 0.0440238 0)
(0.516408 0.0249026 0)
(0.235671 0.00813947 0)
(0.0473515 0.000755713 0)
(0.329612 0.00706958 0)
(0.749844 0.0246584 0)
(1.03456 0.046361 0)
(1.17711 0.0640431 0)
(1.21447 0.0767005 0)
(1.20781 0.0909001 0)
(1.17911 0.10264 0)
(1.14932 0.111971 0)
(1.11857 0.118337 0)
(1.08747 0.120057 0)
(1.06222 0.116893 0)
(1.04736 0.108899 0)
(1.04185 0.100732 0)
(1.04016 0.0923737 0)
(1.01884 0.0822577 0)
(0.943776 0.0684014 0)
(0.755915 0.0496626 0)
(0.466491 0.0275274 0)
(0.197009 0.00846909 0)
(0.0329051 0.000626195 0)
(0.409493 0.0106666 0)
(0.837129 0.0357557 0)
(1.09965 0.0672525 0)
(1.21636 0.0896202 0)
(1.24025 0.105221 6.46328e-34)
(1.22643 0.121023 -2.90678e-34)
(1.19109 0.132681 0)
(1.15627 0.140725 0)
(1.12139 0.144748 0)
(1.08779 0.143602 0)
(1.05916 0.13641 0)
(1.04051 0.126959 0)
(1.02964 0.116313 0)
(1.02172 0.105291 0)
(0.999684 0.0939415 0)
(0.909225 0.0777587 0)
(0.698691 0.0543185 0)
(0.401406 0.0291372 0)
(0.14816 0.00816542 0)
(0.0162082 0.000727733 0)
(0.480654 0.0259395 4.81705e-20)
(0.939304 0.0594957 -3.64524e-20)
(1.17036 0.101643 0)
(1.25694 0.128086 2.80532e-20)
(1.26768 0.143369 -2.2749e-20)
(1.2443 0.161271 3.0669e-34)
(1.202 0.17108 0)
(1.16194 0.177059 1.62727e-20)
(1.12158 0.17891 -5.33979e-20)
(1.0811 0.17505 1.08905e-20)
(1.04739 0.16477 0)
(1.02717 0.151305 -2.75487e-20)
(1.01848 0.138156 -3.30171e-20)
(1.01141 0.126575 5.77543e-20)
(0.969362 0.110946 -4.56142e-20)
(0.854009 0.0882229 0)
(0.622085 0.0601672 -1.64555e-20)
(0.324173 0.0296081 0)
(0.0971694 0.007927 -9.07151e-20)
(-0.000920146 0.000616689 1.06909e-19)
(0.516939 0.0534646 -6.29345e-21)
(1.00342 0.102625 1.09998e-19)
(1.2198 0.151537 -6.42252e-21)
(1.29018 0.175587 -6.98962e-20)
(1.29188 0.192798 -4.82273e-20)
(1.25947 0.208762 7.84391e-20)
(1.21075 0.21575 0)
(1.16492 0.219076 0)
(1.11874 0.217757 8.49873e-20)
(1.07371 0.209633 0)
(1.03724 0.196755 9.96135e-20)
(1.01277 0.1819 2.95592e-20)
(0.995939 0.167841 4.14677e-22)
(0.975822 0.150596 -6.29721e-20)
(0.930896 0.132563 0)
(0.80221 0.10679 0)
(0.55681 0.0693472 -2.68853e-19)
(0.267946 0.0318846 6.75499e-19)
(0.0693006 0.00774191 -3.99376e-19)
(-0.0107675 -0.000583604 -4.70907e-19)
(0.524832 0.0760802 -6.38844e-20)
(1.04155 0.159375 2.42675e-20)
(1.2568 0.212071 1.30776e-20)
(1.31648 0.23475 1.22047e-19)
(1.31081 0.250193 1.43813e-20)
(1.27097 0.261703 -2.0466e-19)
(1.21668 0.264759 6.96653e-20)
(1.16572 0.264677 0)
(1.11464 0.260266 -1.79877e-19)
(1.06555 0.250513 1.59447e-19)
(1.02305 0.234496 -2.68909e-19)
(0.99343 0.215636 1.26037e-19)
(0.975666 0.196805 -8.1654e-20)
(0.958134 0.181781 1.83948e-19)
(0.900667 0.160348 0)
(0.762654 0.125383 -6.72725e-20)
(0.52097 0.0804045 0)
(0.255558 0.0358146 3.71367e-19)
(0.0669635 0.00957576 -8.78083e-19)
(-0.0117081 -0.0018786 5.50511e-19)
(0.520233 0.10784 1.80497e-19)
(1.06103 0.215691 -7.88617e-20)
(1.27811 0.276655 -1.66674e-20)
(1.33342 0.298806 0)
(1.32276 0.312279 -9.02112e-20)
(1.27763 0.318668 1.11248e-19)
(1.2186 0.316894 -7.46276e-20)
(1.1625 0.312728 0)
(1.10586 0.30415 1.2786e-19)
(1.0499 0.289239 -1.12079e-19)
(1.00143 0.267154 2.33215e-19)
(0.970004 0.247085 0)
(0.950143 0.229789 -1.73647e-19)
(0.923002 0.208582 9.78383e-20)
(0.869004 0.184912 2.46781e-19)
(0.73621 0.149022 -2.17155e-19)
(0.5057 0.0970472 3.44734e-19)
(0.255523 0.0463894 -7.6433e-19)
(0.0750844 0.0130925 4.825e-19)
(-0.00768807 -0.00177925 -6.0345e-19)
(0.509158 0.13212 -6.40933e-20)
(1.06959 0.269969 4.59312e-20)
(1.28938 0.342738 -5.53374e-20)
(1.34245 0.364498 1.09506e-19)
(1.32819 0.375588 -1.02992e-19)
(1.27927 0.376959 3.53311e-20)
(1.21657 0.370712 3.60312e-21)
(1.15643 0.362548 -1.45436e-19)
(1.0957 0.350053 -1.34244e-19)
(1.03634 0.33137 -2.40953e-19)
(0.987847 0.308517 -5.01543e-19)
(0.952206 0.285394 -1.5451e-19)
(0.925196 0.262669 2.28566e-21)
(0.904335 0.242507 -3.35345e-19)
(0.844083 0.217073 -5.8876e-21)
(0.711172 0.171876 3.1625e-19)
(0.494329 0.11368 -9.53745e-20)
(0.260559 0.0581748 -5.52566e-20)
(0.086821 0.0186117 0)
(-0.00133103 -0.000676136 1.28453e-18)
(0.492518 0.152874 0)
(1.0642 0.31943 -4.63572e-21)
(1.29156 0.405693 -9.83469e-21)
(1.3446 0.428311 -1.2798e-20)
(1.32778 0.438354 9.99197e-20)
(1.27634 0.435399 -8.21451e-20)
(1.21095 0.424756 8.15763e-20)
(1.14773 0.412221 2.38686e-19)
(1.08399 0.395285 -7.46656e-20)
(1.0208 0.371538 1.19196e-19)
(0.964048 0.342946 2.69644e-19)
(0.924068 0.316028 3.36807e-19)
(0.901282 0.29364 -2.02878e-19)
(0.868388 0.271729 3.6315e-19)
(0.814673 0.242041 -2.878e-19)
(0.6925 0.199231 0)
(0.49072 0.135097 -7.24389e-19)
(0.272236 0.0736235 9.74931e-19)
(0.102241 0.0271516 7.2777e-20)
(0.00677094 0.00166592 -1.35881e-18)
(0.478276 0.173156 -5.10033e-21)
(1.05657 0.367805 8.39343e-21)
(1.28886 0.466795 7.18678e-20)
(1.34192 0.490405 -9.33486e-20)
(1.32302 0.499242 8.25042e-20)
(1.26975 0.492254 -7.97718e-20)
(1.20242 0.477848 1.61902e-19)
(1.13675 0.46156 -7.18551e-20)
(1.06928 0.440673 -3.01605e-19)
(1.00132 0.413567 -1.20405e-22)
(0.943679 0.382967 -2.93066e-19)
(0.904658 0.352791 -3.62256e-19)
(0.873906 0.328129 2.23929e-19)
(0.85134 0.304773 -1.307e-19)
(0.791947 0.276005 3.12849e-19)
(0.672362 0.222659 0)
(0.482641 0.156267 -4.49785e-19)
(0.278493 0.0886701 6.64291e-19)
(0.113858 0.0362007 1.25748e-18)
(0.0136484 0.00436775 -1.47908e-18)
(0.464417 0.19096 -4.83009e-20)
(1.04444 0.412435 1.80808e-20)
(1.28198 0.524247 -4.96416e-20)
(1.33539 0.549223 9.67864e-20)
(1.3148 0.55764 1.19422e-20)
(1.26016 0.547415 -1.56781e-19)
(1.19124 0.529613 -9.37354e-20)
(1.12337 0.509678 -9.15696e-20)
(1.05369 0.485072 -1.70008e-19)
(0.98482 0.453851 2.7368e-19)
(0.924013 0.417804 2.9637e-19)
(0.878242 0.385443 5.74879e-19)
(0.850664 0.360815 0)
(0.816116 0.333729 6.42863e-21)
(0.764336 0.299962 -8.59342e-19)
(0.653781 0.250566 2.00858e-19)
(0.477796 0.177626 9.73209e-19)
(0.284877 0.105313 -2.87174e-19)
(0.123888 0.0459148 5.972e-19)
(0.0194829 0.00738022 -4.97998e-20)
(0.45475 0.209238 5.89406e-21)
(1.03339 0.455478 4.01535e-20)
(1.273 0.579414 -2.25611e-20)
(1.32627 0.605985 1.0922e-19)
(1.30408 0.613442 -1.68141e-19)
(1.24831 0.599994 1.55997e-19)
(1.17817 0.579257 9.70936e-20)
(1.10881 0.556299 2.73924e-19)
(1.03688 0.528166 3.41748e-19)
(0.963682 0.493366 -3.15524e-19)
(0.898799 0.454466 0)
(0.854595 0.421256 -2.17257e-19)
(0.82369 0.391565 2.49435e-19)
(0.798707 0.364586 3.14797e-19)
(0.742674 0.332074 -1.82021e-19)
(0.633908 0.271627 -4.4415e-19)
(0.467817 0.197989 -1.32542e-19)
(0.286307 0.120451 -1.71147e-21)
(0.129725 0.054631 0)
(0.0234138 0.00998653 0)
(0.446742 0.225553 -6.63259e-20)
(1.02155 0.495736 0)
(1.26211 0.630971 -8.28894e-21)
(1.31501 0.659384 -9.54326e-21)
(1.29161 0.666427 1.90354e-19)
(1.23496 0.650381 -4.84803e-20)
(1.16386 0.62697 9.86345e-20)
(1.09315 0.600963 -1.85538e-19)
(1.01958 0.570008 2.5916e-19)
(0.94497 0.532243 -1.03273e-19)
(0.87976 0.490132 1.69726e-19)
(0.832702 0.452864 6.88694e-19)
(0.800156 0.422387 1.42966e-20)
(0.76424 0.391036 -3.28121e-19)
(0.714299 0.351476 6.08046e-19)
(0.613894 0.297341 4.08907e-21)
(0.457791 0.216882 1.418e-19)
(0.283036 0.134078 -6.76246e-19)
(0.13039 0.0615831 6.97304e-19)
(0.0252899 0.0118473 -8.21582e-19)
(0.440201 0.243606 3.29068e-23)
(1.01021 0.534098 0)
(1.25022 0.680003 0)
(1.30248 0.710479 -4.99836e-21)
(1.27793 0.716635 -5.70529e-20)
(1.22056 0.697966 7.34847e-20)
(1.14879 0.672184 -1.84471e-19)
(1.07707 0.643804 0)
(1.00152 0.610048 -3.82013e-19)
(0.923775 0.569029 4.56721e-19)
(0.85528 0.523998 4.83e-19)
(0.806449 0.483747 -2.52759e-19)
(0.772554 0.449442 -3.05737e-19)
(0.74717 0.417526 7.16795e-19)
(0.691748 0.380194 -2.16005e-19)
(0.592389 0.313404 -2.57908e-19)
(0.442795 0.233605 -1.54342e-19)
(0.276874 0.144653 -7.29394e-19)
(0.127269 0.0667977 1.06638e-19)
(0.0253743 0.0128169 8.86808e-19)
(0.436088 0.261791 -3.38725e-20)
(0.999713 0.570654 -4.36818e-20)
(1.23759 0.725907 2.36173e-20)
(1.289 0.758193 -1.84991e-22)
(1.26363 0.763962 -5.65427e-20)
(1.2057 0.743228 1.20283e-19)
(1.13327 0.715373 0)
(1.06045 0.684588 1.11822e-19)
(0.983669 0.648708 -8.81721e-20)
(0.905224 0.605722 7.61088e-19)
(0.834821 0.558301 -1.10011e-19)
(0.784188 0.51384 1.25242e-19)
(0.750264 0.477032 0)
(0.71172 0.440252 -3.88065e-19)
(0.663601 0.393706 4.69958e-19)
(0.570921 0.334647 0)
(0.429873 0.246895 -3.32575e-19)
(0.26772 0.154019 9.77949e-19)
(0.122521 0.0694822 1.15432e-19)
(0.0238776 0.0134608 -1.09075e-18)
(0.433626 0.27873 -8.71297e-20)
(0.98971 0.605088 1.11903e-19)
(1.22475 0.769242 0)
(1.2752 0.803564 8.50587e-21)
(1.2489 0.808562 0)
(1.1904 0.785739 -1.5417e-19)
(1.11754 0.756002 0)
(1.04412 0.723406 0)
(0.96601 0.685406 -1.16178e-19)
(0.8847 0.639872 -7.23346e-19)
(0.810873 0.589033 -8.9236e-19)
(0.758138 0.541466 1.46354e-19)
(0.72116 0.500456 5.27852e-19)
(0.694352 0.461932 4.27174e-19)
(0.641359 0.418381 -1.50757e-18)
(0.549343 0.344606 -6.04779e-19)
(0.411739 0.257996 3.54191e-19)
(0.256278 0.159212 0)
(0.115754 0.0706871 9.91583e-19)
(0.0217601 0.0132677 -1.17477e-18)
(0.432072 0.294467 1.05529e-19)
(0.980574 0.638068 -1.31174e-19)
(1.21195 0.809785 0)
(1.26114 0.845746 -1.10334e-20)
(1.23415 0.850494 2.4233e-21)
(1.17524 0.826035 0)
(1.10197 0.794654 5.65532e-20)
(1.02777 0.760174 7.71256e-20)
(0.948502 0.720709 -2.18828e-19)
(0.865813 0.673928 9.59529e-20)
(0.789811 0.620916 0)
(0.734515 0.570158 6.05956e-19)
(0.697316 0.525525 5.07864e-21)
(0.658392 0.480505 2.30382e-19)
(0.612465 0.425445 2.73658e-19)
(0.526861 0.360967 0)
(0.396528 0.265104 -5.78423e-19)
(0.243785 0.162549 1.13464e-18)
(0.108518 0.0705137 -1.20002e-18)
(0.0194037 0.0126681 2.52894e-18)
(0.430835 0.309515 0)
(0.971578 0.668997 0)
(1.19936 0.847843 -6.34332e-20)
(1.24728 0.88572 0)
(1.21944 0.889833 0)
(1.16008 0.863735 -1.28631e-19)
(1.08662 0.830877 5.78744e-20)
(1.01203 0.795051 1.76049e-20)
(0.93152 0.754038 -5.01156e-20)
(0.846434 0.70529 0)
(0.767933 0.649594 -1.35687e-19)
(0.708738 0.595626 -4.94243e-19)
(0.667084 0.545637 -5.95191e-19)
(0.639499 0.496903 -2.39264e-19)
(0.589566 0.445666 2.96337e-19)
(0.50473 0.363446 -6.98502e-19)
(0.376634 0.269849 1.2445e-18)
(0.231316 0.162579 2.19482e-21)
(0.10132 0.0693341 -1.14933e-18)
(0.0173878 0.0119124 -1.70484e-19)
(0.429797 0.324101 0)
(0.963559 0.699052 -1.0788e-19)
(1.18713 0.883598 7.83776e-20)
(1.23349 0.922821 0)
(1.20508 0.926783 0)
(1.14547 0.899405 2.58292e-19)
(1.07179 0.865281 0)
(0.996512 0.827982 0)
(0.91486 0.78595 -4.79468e-19)
(0.828141 0.736615 1.32211e-19)
(0.746136 0.679311 -1.20299e-18)
(0.684217 0.621764 0)
(0.643033 0.568371 -6.45642e-19)
(0.601523 0.512754 1.06136e-20)
(0.558559 0.445094 -9.52074e-19)
(0.481185 0.37316 3.75818e-19)
(0.362075 0.268834 1.5116e-21)
(0.220026 0.159912 -1.30964e-18)
(0.0955296 0.0666694 6.17728e-19)
(0.014845 0.0103902 1.82372e-19)
(0.428774 0.338344 0)
(0.955537 0.726992 -1.51449e-19)
(1.17523 0.91707 8.2865e-20)
(1.22019 0.957935 1.03837e-19)
(1.19104 0.961299 -1.36453e-20)
(1.13108 0.932636 2.5987e-20)
(1.05731 0.897401 -3.5073e-20)
(0.981723 0.859157 4.61618e-19)
(0.898977 0.816075 5.12895e-19)
(0.810029 0.765321 1.00759e-18)
(0.726115 0.70671 9.99549e-19)
(0.659637 0.646948 1.75575e-19)
(0.610386 0.586798 9.28924e-19)
(0.580199 0.524793 5.73596e-19)
(0.533025 0.460722 6.83459e-19)
(0.458015 0.36531 -4.1122e-19)
(0.34249 0.262948 -4.77811e-19)
(0.212584 0.151226 5.60637e-19)
(0.0957721 0.0689583 -3.31532e-19)
(0.0187942 0.0167148 5.90165e-19)
(0.427899 0.352121 2.146e-19)
(0.948513 0.754267 2.3698e-19)
(1.16378 0.948635 4.85072e-20)
(1.20711 0.990469 1.61258e-20)
(1.17749 0.99372 1.04633e-20)
(1.1174 0.964056 -7.17036e-20)
(1.04353 0.927876 3.3843e-20)
(0.96742 0.888549 -2.01527e-20)
(0.883717 0.844832 -5.96428e-19)
(0.793377 0.794056 -1.0933e-18)
(0.705361 0.734594 6.94179e-20)
(0.635245 0.670741 0)
(0.586568 0.608648 0)
(0.538713 0.54051 -2.99043e-19)
(0.496801 0.452234 -1.11795e-18)
(0.431218 0.364641 8.85801e-19)
(0.334648 0.243085 5.22417e-19)
(0.220173 0.132577 0)
(0.109647 0.0427724 1.0619e-18)
(0.012466 -0.00877249 -6.30092e-19)
(0.427013 0.365355 -1.13768e-19)
(0.94129 0.779229 1.00737e-19)
(1.15264 0.978051 -1.17348e-19)
(1.19465 1.02124 -9.35333e-20)
(1.16441 1.02387 -1.22563e-20)
(1.10406 0.993187 -2.28359e-20)
(1.03022 0.95622 0)
(0.953985 0.916333 -5.79909e-19)
(0.869439 0.871996 7.31709e-20)
(0.77691 0.820338 0)
(0.686805 0.760402 0)
(0.611616 0.696725 1.11896e-19)
(0.551292 0.627914 1.5032e-19)
(0.513442 0.549966 -3.2282e-19)
(0.464848 0.466182 8.02489e-19)
(0.398705 0.341643 -9.65156e-19)
(0.308196 0.219999 -1.11777e-18)
(0.229534 0.114208 9.89888e-19)
(0.167344 0.085735 -3.77888e-19)
(0.113075 0.0794229 2.1992e-19)
(0.426172 0.37778 1.43596e-19)
(0.934977 0.803689 0)
(1.14199 1.00585 0)
(1.18245 1.04966 -2.543e-20)
(1.15186 1.05221 2.05878e-20)
(1.09151 1.02074 -2.06417e-20)
(1.01774 0.983104 1.49958e-19)
(0.941147 0.942469 5.93946e-19)
(0.855773 0.897814 1.08173e-18)
(0.762099 0.8465 -8.21688e-20)
(0.668068 0.786616 1.69732e-19)
(0.58843 0.719656 -1.00064e-18)
(0.528573 0.650444 -9.96736e-19)
(0.467407 0.569636 -1.73204e-19)
(0.414816 0.453212 0)
(0.357486 0.339624 -6.70498e-21)
(0.28406 0.151289 6.15628e-19)
(0.259284 0.0128775 -1.03614e-18)
(0.222598 -0.0918316 7.87767e-19)
(0.0853321 -0.0968485 6.53038e-19)
(0.425155 0.38981 -3.17582e-19)
(0.928229 0.825763 -1.43507e-19)
(1.13155 1.03174 6.97067e-21)
(1.17084 1.07677 5.53348e-20)
(1.13971 1.07875 0)
(1.07915 1.04653 -7.4949e-20)
(1.00548 1.00845 -2.1541e-19)
(0.928851 0.967673 -1.56625e-21)
(0.842801 0.922854 -5.66827e-19)
(0.747035 0.871243 -8.06179e-20)
(0.650882 0.811775 7.48798e-20)
(0.566222 0.747579 8.78995e-19)
(0.490674 0.673821 9.72704e-19)
(0.436816 0.580317 1.68625e-19)
(0.375431 0.477227 8.61756e-19)
(0.288813 0.307142 0)
(0.168813 0.136921 0)
(0.00123992 0.200767 7.12768e-19)
(-0.0778879 0.630012 -2.93783e-20)
(0.00738395 1.53759 -8.78134e-19)
(0.424227 0.401119 1.75651e-19)
(0.922452 0.847832 4.01441e-19)
(1.12156 1.05655 -5.48796e-19)
(1.15935 1.10212 2.732e-19)
(1.12789 1.10426 -6.46623e-21)
(1.06735 1.07164 -2.84282e-20)
(0.993751 1.03334 0)
(0.916754 0.99233 -4.95152e-19)
(0.829877 0.947795 0)
(0.733126 0.897219 1.13611e-18)
(0.632939 0.83879 -9.1028e-20)
(0.542669 0.772821 1.02068e-19)
(0.468959 0.70184 1.11323e-18)
(0.383266 0.615901 -3.65594e-19)
(0.283993 0.470919 -4.3849e-19)
(0.195058 0.362223 0)
(0.085816 0.497153 0)
(0.0258592 1.33473 0)
(0.0723609 2.46404 -4.04861e-19)
(0.0996367 2.91115 -2.49272e-19)
(0.422873 0.41186 0)
(0.916099 0.867324 0)
(1.11176 1.07955 2.00427e-19)
(1.14851 1.12642 -2.21641e-19)
(1.11652 1.12819 9.63575e-20)
(1.05576 1.09519 3.50967e-20)
(0.982223 1.0569 2.77312e-20)
(0.905251 1.01633 -2.15908e-20)
(0.817945 0.972362 7.98549e-20)
(0.719156 0.922372 -1.30385e-18)
(0.616618 0.865407 1.65058e-19)
(0.52223 0.805304 8.77872e-19)
(0.428839 0.734442 -1.10908e-18)
(0.349679 0.629943 -1.21769e-18)
(0.266764 0.531401 4.09793e-19)
(0.189034 0.667471 0)
(0.120935 1.56189 5.66389e-19)
(0.122696 2.69436 6.20167e-19)
(0.130716 3.08832 -6.93292e-19)
(0.122492 3.22239 7.43766e-19)
(0.421654 0.422332 0)
(0.910794 0.887055 3.56531e-19)
(1.10245 1.10165 -5.0212e-20)
(1.13783 1.14901 3.12882e-19)
(1.10552 1.15119 -1.01143e-19)
(1.0448 1.11813 0)
(0.971375 1.07997 0)
(0.894109 1.03961 0)
(0.806088 0.996516 4.50336e-19)
(0.706567 0.948224 6.02272e-20)
(0.600578 0.893217 0)
(0.500157 0.832187 -8.7308e-19)
(0.414415 0.765993 0)
(0.298954 0.678842 8.71535e-19)
(0.204355 0.741987 -5.87589e-19)
(0.153259 1.46279 -4.72539e-19)
(0.155769 2.68205 -1.10329e-18)
(0.177816 3.12673 -5.81647e-19)
(0.168625 3.26707 -7.8949e-19)
(0.154844 3.30731 5.92808e-19)
(0.42012 0.431796 -1.24783e-19)
(0.904797 0.904025 1.53967e-20)
(1.09332 1.12198 -5.60024e-20)
(1.12785 1.17077 -2.41492e-19)
(1.09502 1.17274 0)
(1.0341 1.13956 0)
(0.960741 1.10176 0)
(0.883599 1.06228 3.45502e-20)
(0.795401 1.0203 -5.69211e-19)
(0.694129 0.973407 0)
(0.586152 0.920876 0)
(0.484453 0.867964 0)
(0.372939 0.801932 0)
(0.305813 0.770979 6.3701e-19)
(0.270352 1.16109 1.56575e-18)
(0.247014 2.38706 4.6315e-19)
(0.261191 3.08302 9.33084e-19)
(0.255789 3.28246 -7.15421e-19)
(0.207075 3.3481 2.64164e-19)
(0.174701 3.36087 0)
(0.418748 0.441022 1.28581e-19)
(0.899763 0.922093 -7.93098e-19)
(1.08448 1.14221 -2.12717e-19)
(1.11775 1.19144 -4.6638e-20)
(1.08464 1.19406 2.34618e-20)
(1.02383 1.16108 -7.75916e-20)
(0.95064 1.12365 -3.31271e-21)
(0.873287 1.08465 -3.86539e-19)
(0.784484 1.04393 0)
(0.682956 0.999349 -7.62215e-20)
(0.572941 0.949871 6.93381e-20)
(0.465645 0.895504 0)
(0.375088 0.843627 0)
(0.320117 0.959197 -7.97241e-19)
(0.272105 1.85512 9.8688e-20)
(0.268459 2.9438 -3.47917e-19)
(0.291377 3.28649 7.27058e-19)
(0.263583 3.38488 5.26783e-19)
(0.198188 3.40932 -7.16182e-19)
(0.173486 3.41895 3.54964e-19)
(0.416717 0.450467 2.532e-19)
(0.893221 0.938467 7.73999e-19)
(1.07495 1.16226 2.55269e-19)
(1.10758 1.21307 0)
(1.07403 1.21545 0)
(1.01311 1.18236 6.06259e-20)
(0.940086 1.14537 7.12642e-20)
(0.863065 1.10742 3.44722e-19)
(0.774478 1.06801 2.23582e-20)
(0.671762 1.02525 9.75823e-19)
(0.560793 0.97861 -1.15143e-18)
(0.44922 0.929602 0)
(0.373457 0.922355 0)
(0.333592 1.32816 -5.43592e-19)
(0.334064 2.48995 -6.53287e-19)
(0.377442 3.19755 0)
(0.401924 3.36829 -7.35865e-19)
(0.3319 3.43098 4.88367e-20)
(0.262691 3.47584 3.46158e-19)
(0.240261 3.50115 -1.14379e-19)
(0.414664 0.460257 -4.82146e-19)
(0.887317 0.958234 -3.71879e-19)
(1.06485 1.18414 0)
(1.09623 1.23505 0)
(1.06255 1.23813 0)
(1.00192 1.20516 0)
(0.929318 1.16841 -8.37093e-20)
(0.852329 1.13078 3.03607e-19)
(0.76345 1.09261 0)
(0.661382 1.05243 -8.88556e-19)
(0.550128 1.00937 2.06524e-18)
(0.440254 0.969955 8.42367e-20)
(0.391292 1.04393 1.12247e-19)
(0.386125 1.74869 8.86205e-19)
(0.399914 2.9013 -4.76722e-19)
(0.437997 3.31913 0)
(0.421304 3.44193 2.06283e-19)
(0.335796 3.53035 9.16717e-20)
(0.26056 3.59408 1.49086e-19)
(0.185219 3.57354 -1.1973e-20)
(0.411647 0.470546 2.29591e-19)
(0.87901 0.975883 -3.80825e-19)
(1.0535 1.20611 0)
(1.08446 1.25873 -6.81674e-20)
(1.05043 1.26121 2.33364e-19)
(0.989863 1.22782 0)
(0.91768 1.19133 0)
(0.84142 1.15468 -5.27307e-19)
(0.753396 1.11777 -5.70613e-20)
(0.650928 1.0793 8.71608e-19)
(0.536149 1.03799 -9.81689e-19)
(0.446325 1.01688 5.7221e-19)
(0.407677 1.22837 0)
(0.421815 2.18758 -4.6998e-19)
(0.464898 3.14541 3.08097e-19)
(0.528545 3.42229 1.93368e-19)
(0.520417 3.5184 0)
(0.45769 3.59975 -3.73441e-20)
(0.387851 3.64052 -4.11475e-19)
(0.30726 3.61213 -9.63521e-20)
(0.408609 0.480997 -4.58518e-19)
(0.871654 0.998268 5.45579e-19)
(1.04151 1.23043 3.76675e-19)
(1.07122 1.28254 -9.3362e-20)
(1.03721 1.2857 -3.56858e-19)