/*--------------------------------*- C++ -*----------------------------------*\
  =========                 |
  \\      /  F ield         | OpenFOAM: The Open Source CFD Toolbox
   \\    /   O peration     | Website:  https://openfoam.org
    \\  /    A nd           | Version:  10
     \\/     M anipulation  |
\*---------------------------------------------------------------------------*/
FoamFile
{
    format      ascii;
    class       volScalarField;
    location    "68";
    object      p;
}
// * * * * * * * * * * * * * * * * * * * * * * * * * * * * * * * * * * * * * //

dimensions      [0 2 -2 0 0 0 0];

internalField   nonuniform List<scalar> 
8800
(
0.866365
0.818579
0.779893
0.750902
0.730044
0.715222
0.70464
0.697179
0.692388
0.69037
0.69168
0.695906
0.702577
0.711912
0.724706
0.742449
0.767233
0.801177
0.843731
0.902433
0.697608
0.705287
0.712767
0.716078
0.714579
0.709509
0.703034
0.696974
0.692276
0.689467
0.689231
0.691778
0.696299
0.702268
0.709054
0.715345
0.718993
0.718261
0.712847
0.704161
0.676003
0.682163
0.686293
0.689242
0.691298
0.691913
0.690821
0.688739
0.686754
0.68589
0.686899
0.68932
0.692149
0.694351
0.694974
0.693786
0.691452
0.688065
0.683509
0.679748
0.670178
0.672829
0.675585
0.677993
0.679635
0.680808
0.681566
0.681708
0.681447
0.681445
0.68225
0.683464
0.684336
0.684425
0.683833
0.682755
0.680948
0.678384
0.675985
0.674481
0.664777
0.666202
0.667985
0.670023
0.671816
0.67317
0.674177
0.675003
0.675657
0.676275
0.676986
0.677532
0.677669
0.677409
0.676733
0.675499
0.673815
0.671975
0.670672
0.66984
0.659675
0.660596
0.661841
0.663414
0.665057
0.666596
0.667902
0.669001
0.670011
0.670967
0.671725
0.672111
0.672113
0.671706
0.67085
0.669669
0.668356
0.667106
0.666288
0.665736
0.654736
0.655406
0.656373
0.657683
0.659103
0.660577
0.662041
0.663399
0.66465
0.66583
0.666732
0.667168
0.667136
0.666667
0.665891
0.664966
0.663971
0.66306
0.66248
0.662073
0.649913
0.65043
0.651218
0.652357
0.653647
0.655039
0.656512
0.658025
0.659513
0.660934
0.662035
0.662587
0.662624
0.662287
0.661721
0.661024
0.660272
0.659603
0.659174
0.658856
0.645133
0.645544
0.646205
0.64722
0.64844
0.649788
0.651265
0.652867
0.654557
0.656252
0.657609
0.658363
0.658602
0.658492
0.658153
0.657671
0.657128
0.656653
0.656336
0.656077
0.640309
0.640644
0.641216
0.642153
0.643326
0.644663
0.646179
0.647885
0.64977
0.651765
0.653452
0.654513
0.655039
0.655189
0.655087
0.654834
0.654489
0.654177
0.653944
0.653726
0.635351
0.635628
0.636139
0.637032
0.63819
0.639553
0.641147
0.643
0.645123
0.647465
0.649569
0.651023
0.651893
0.652342
0.6525
0.65248
0.652333
0.652164
0.652
0.651811
0.630169
0.630401
0.630874
0.631752
0.632933
0.634368
0.636083
0.638137
0.640564
0.643337
0.645951
0.647877
0.64915
0.649944
0.650394
0.650613
0.650669
0.650632
0.650524
0.650355
0.624668
0.624866
0.625319
0.626212
0.627459
0.62901
0.630901
0.633223
0.636036
0.639349
0.64258
0.645069
0.646814
0.648002
0.64878
0.649258
0.649532
0.649621
0.64956
0.649405
0.618746
0.618915
0.619366
0.620303
0.621657
0.623375
0.625509
0.62818
0.631482
0.635461
0.639439
0.642601
0.644903
0.646545
0.647698
0.648488
0.648981
0.649191
0.649171
0.649023
0.612281
0.612426
0.61289
0.613901
0.615409
0.617353
0.619808
0.622923
0.626838
0.631634
0.636516
0.640481
0.643445
0.645622
0.647204
0.648338
0.649079
0.649415
0.649432
0.649288
0.605133
0.605253
0.605744
0.60686
0.608573
0.610813
0.613678
0.617358
0.622034
0.627827
0.6338
0.638723
0.642468
0.645277
0.647367
0.648892
0.649915
0.650383
0.650434
0.650289
0.59711
0.597215
0.597749
0.599004
0.60098
0.603595
0.606983
0.611371
0.616989
0.623998
0.631284
0.637348
0.642015
0.645567
0.648265
0.650254
0.651588
0.652193
0.652275
0.652126
0.587991
0.58809
0.588681
0.590098
0.592405
0.59551
0.599561
0.604834
0.611616
0.620108
0.628967
0.636384
0.642139
0.646565
0.649982
0.65251
0.654198
0.654949
0.655059
0.654902
0.577455
0.577534
0.578214
0.579856
0.582601
0.586328
0.591214
0.597598
0.605822
0.616118
0.626858
0.635867
0.6429
0.648356
0.652592
0.655764
0.657848
0.658749
0.658883
0.658713
0.565118
0.565185
0.565965
0.567918
0.571221
0.575748
0.581701
0.589493
0.59951
0.612
0.624973
0.635844
0.644357
0.65101
0.656205
0.660112
0.662626
0.663676
0.663828
0.663642
0.550419
0.550474
0.551398
0.553768
0.557811
0.56339
0.570734
0.580326
0.592586
0.607736
0.623341
0.636367
0.64657
0.654591
0.660895
0.665624
0.668592
0.66978
0.669937
0.669733
0.532582
0.532626
0.533763
0.53672
0.541776
0.548778
0.557973
0.569907
0.584983
0.603347
0.622021
0.637497
0.649609
0.659168
0.666688
0.672338
0.675755
0.677052
0.6772
0.676976
0.510431
0.510473
0.511959
0.515801
0.522318
0.531322
0.543056
0.558078
0.576699
0.598915
0.621107
0.639313
0.653523
0.66478
0.673625
0.680227
0.684049
0.685404
0.685523
0.685278
0.482198
0.482261
0.484342
0.489613
0.498406
0.510351
0.525664
0.54479
0.567837
0.594596
0.62074
0.641909
0.658361
0.671414
0.681675
0.68919
0.693307
0.694642
0.69471
0.694448
0.444818
0.444984
0.448288
0.456195
0.468825
0.485273
0.505688
0.530203
0.558664
0.590649
0.621109
0.645387
0.664163
0.679056
0.690737
0.699018
0.703245
0.704455
0.704453
0.704178
0.392408
0.393409
0.399983
0.413318
0.432621
0.456037
0.483493
0.514816
0.549651
0.587429
0.622422
0.649856
0.670943
0.687615
0.700598
0.70938
0.71346
0.714445
0.714365
0.714088
0.315953
0.323343
0.338558
0.362072
0.391312
0.424062
0.460122
0.499281
0.541176
0.585213
0.625034
0.65581
0.679359
0.697935
0.712111
0.721155
0.724929
0.725677
0.725548
0.725307
0.233819
0.251285
0.275933
0.310246
0.349825
0.392037
0.436746
0.483903
0.533213
0.584131
0.629602
0.66442
0.690874
0.711619
0.72708
0.735911
0.738972
0.739434
0.739334
0.739171
0.165338
0.185912
0.218345
0.261836
0.310529
0.361646
0.414743
0.46974
0.526312
0.583894
0.634713
0.673271
0.702327
0.724811
0.740725
0.748978
0.751533
0.751936
0.751896
0.751774
0.109253
0.131495
0.169485
0.219458
0.275354
0.333971
0.394488
0.456681
0.52008
0.58401
0.639899
0.681945
0.71334
0.737196
0.75359
0.761655
0.763995
0.764361
0.764356
0.764265
0.0625971
0.0860192
0.127818
0.182935
0.244618
0.309431
0.376322
0.444918
0.514576
0.584457
0.645178
0.69055
0.724198
0.749528
0.76651
0.774508
0.776869
0.777218
0.777241
0.777176
0.0230933
0.0471664
0.0918503
0.15103
0.217583
0.287672
0.360107
0.434405
0.509783
0.58524
0.650578
0.699192
0.735073
0.761836
0.779525
0.787924
0.790307
0.790649
0.790678
0.790628
-0.0113025
0.0131844
0.0601346
0.122675
0.193345
0.268028
0.345386
0.424846
0.505513
0.586228
0.655998
0.707765
0.745851
0.774088
0.792698
0.801467
0.803996
0.804353
0.804384
0.804356
-0.0421037
-0.0172609
0.031534
0.0969388
0.171169
0.249887
0.331674
0.415858
0.501451
0.587163
0.661218
0.716079
0.756352
0.786058
0.805506
0.814767
0.817505
0.817883
0.817917
0.8179
-0.0702974
-0.045141
0.0052274
0.0731131
0.15047
0.232774
0.318551
0.407074
0.497297
0.587806
0.666042
0.723931
0.766316
0.797459
0.817748
0.827446
0.830411
0.830863
0.830874
0.83086
-0.0967028
-0.0711898
-0.0194077
0.0506468
0.130799
0.216306
0.305698
0.398232
0.492823
0.587955
0.670301
0.731172
0.775621
0.808123
0.829168
0.839294
0.842431
0.842923
0.84292
0.842894
-0.12171
-0.0958439
-0.0427523
0.0291713
0.111827
0.200215
0.292894
0.389133
0.487839
0.587453
0.673877
0.737728
0.784195
0.817977
0.83967
0.850068
0.853333
0.853834
0.853797
0.853758
-0.145772
-0.11949
-0.0653624
0.00844561
0.0933256
0.184303
0.279973
0.379627
0.482213
0.58618
0.676696
0.743572
0.792039
0.826979
0.849158
0.859745
0.863043
0.863528
0.863456
0.863401
-0.169028
-0.14225
-0.087188
-0.0117166
0.0751483
0.168451
0.266828
0.369628
0.475859
0.58405
0.678693
0.7487
0.799213
0.835234
0.857765
0.868353
0.871617
0.87207
0.871968
0.871895
-0.191633
-0.164435
-0.108331
-0.0314282
0.0572193
0.152598
0.253412
0.359083
0.468717
0.580986
0.679809
0.753128
0.805817
0.842906
0.865619
0.876043
0.879174
0.879578
0.879454
0.879365
-0.213717
-0.186021
-0.128934
-0.0507349
0.0394943
0.136725
0.239719
0.347986
0.460761
0.576936
0.679986
0.756857
0.81197
0.85017
0.872908
0.882972
0.885852
0.886163
0.886013
0.885911
-0.235347
-0.207046
-0.149069
-0.0696522
0.0219857
0.12084
0.225771
0.336358
0.451999
0.571855
0.679156
0.759865
0.817764
0.857249
0.879863
0.889297
0.891744
0.891912
0.891737
0.891629
-0.256372
-0.227499
-0.168666
-0.08817
0.00470857
0.104992
0.211611
0.324255
0.442467
0.565745
0.677238
0.762094
0.823244
0.864372
0.886838
0.895285
0.89699
0.896918
0.896728
0.896626
-0.276782
-0.247361
-0.187724
-0.106251
-0.0122931
0.0892275
0.197318
0.31174
0.432226
0.558615
0.674171
0.763426
0.828373
0.87173
0.89431
0.901495
0.90192
0.901305
0.901097
0.901059
-0.296647
-0.266605
-0.206233
-0.123875
-0.0289652
0.0736205
0.182967
0.298904
0.421355
0.550511
0.669886
0.763704
0.833004
0.879346
0.902776
0.908883
0.907396
0.905484
0.905065
0.905359
-0.31581
-0.285218
-0.22414
-0.140994
-0.0452568
0.0582459
0.168645
0.285849
0.409957
0.541513
0.664351
0.762733
0.836871
0.886957
0.912399
0.918612
0.915494
0.911208
0.909232
0.90923
-0.334366
-0.303196
-0.24147
-0.157642
-0.0612033
0.0430604
0.154297
0.272523
0.397971
0.53155
0.657432
0.760236
0.839689
0.894123
0.922733
0.931192
0.928599
0.921419
0.913969
0.900472
-0.352247
-0.320526
-0.258336
-0.174019
-0.0770824
0.0277441
0.139523
0.258462
0.384887
0.520023
0.648528
0.755494
0.840993
0.900295
0.932348
0.944855
0.943331
0.929705
0.908954
0.898618
-0.369287
-0.337363
-0.274556
-0.189934
-0.092541
0.0126335
0.124542
0.243981
0.370993
0.50716
0.637649
0.747953
0.839825
0.904243
0.937205
0.94977
0.949856
0.924732
0.85753
0.827579
-0.38483
-0.354981
-0.289824
-0.204914
-0.106778
-0.00177108
0.10967
0.229305
0.356501
0.493073
0.624691
0.73723
0.834586
0.905143
0.931918
0.939431
0.924499
0.868118
0.798744
0.756258
-0.439462
-0.370504
-0.30362
-0.220087
-0.121459
-0.0169624
0.0948342
0.214142
0.341025
0.477275
0.608994
0.722555
0.821175
0.898676
0.899658
0.898508
0.843807
0.770581
0.692898
0.64969
-0.401147
-0.385233
-0.3242
-0.239564
-0.14319
-0.0387278
0.072041
0.19073
0.316689
0.451663
0.581722
0.694088
0.78574
0.869016
0.851112
0.731979
0.623214
0.547596
0.472863
0.501752
-0.431373
-0.402371
-0.340463
-0.256676
-0.160347
-0.0560043
0.055046
0.173109
0.298022
0.431245
0.558603
0.666801
0.748646
0.792766
0.740658
0.586389
0.455161
0.361496
0.261593
0.310103
-0.454639
-0.422721
-0.359697
-0.275788
-0.179343
-0.0751116
0.035855
0.153084
0.276604
0.407437
0.531082
0.632992
0.705717
0.714827
0.603938
0.427392
0.271863
0.150934
0.0185857
0.0505923
-0.477352
-0.443954
-0.379811
-0.295005
-0.198493
-0.094426
0.0160028
0.13226
0.254178
0.382214
0.501126
0.594966
0.651945
0.629224
0.466419
0.267073
0.0746417
-0.094806
-0.284116
-0.303664
-0.499463
-0.465651
-0.400659
-0.315104
-0.218476
-0.114651
-0.00489339
0.110258
0.230298
0.355105
0.468518
0.554097
0.591145
0.531236
0.335381
0.122259
-0.0966736
-0.287039
-0.529495
-0.825537
-0.521864
-0.488066
-0.422571
-0.336564
-0.239779
-0.136149
-0.0269982
0.0870004
0.205038
0.326321
0.433857
0.510797
0.525971
0.414392
0.221216
0.00886858
-0.197118
-0.370559
-0.440972
-0.519455
-0.545497
-0.511658
-0.445893
-0.359696
-0.262891
-0.159556
-0.0511104
0.0615532
0.177253
0.294452
0.395657
0.461237
0.450921
0.305541
0.119597
-0.0737021
-0.238448
-0.332588
-0.356962
-0.372775
-0.570665
-0.53672
-0.470793
-0.384573
-0.28794
-0.185079
-0.0775864
0.0334295
0.146359
0.258799
0.353168
0.404104
0.37581
0.204349
0.0274293
-0.140699
-0.269042
-0.308773
-0.321592
-0.322886
-0.597567
-0.563425
-0.497335
-0.411191
-0.314877
-0.212722
-0.106445
0.00257959
0.112291
0.21938
0.30595
0.342116
0.293469
0.110899
-0.0569033
-0.207431
-0.284908
-0.302049
-0.303403
-0.303209
-0.626261
-0.591835
-0.525547
-0.439549
-0.343718
-0.242477
-0.137691
-0.03101
0.0750612
0.176272
0.25413
0.27837
0.19303
0.0255487
-0.13378
-0.257779
-0.294984
-0.293445
-0.292586
-0.292003
-0.656464
-0.621777
-0.555326
-0.469564
-0.374378
-0.274289
-0.171294
-0.0673115
0.0347121
0.129593
0.198615
0.205531
0.101828
-0.0535782
-0.194698
-0.271822
-0.282246
-0.284966
-0.285668
-0.285406
-0.687628
-0.652795
-0.586419
-0.50101
-0.406675
-0.308004
-0.207102
-0.106192
-0.0085656
0.0797079
0.139932
0.131555
0.0200332
-0.120532
-0.239471
-0.271338
-0.279822
-0.281254
-0.281016
-0.280721
-0.71929
-0.684353
-0.618371
-0.533497
-0.440266
-0.343306
-0.244839
-0.147365
-0.0544808
0.0273234
0.0771686
0.0614358
-0.055137
-0.174677
-0.26953
-0.287214
-0.278467
-0.277583
-0.277572
-0.277342
-0.750554
-0.715737
-0.650334
-0.566426
-0.474615
-0.379725
-0.28406
-0.190349
-0.102564
-0.0269095
0.0131564
-0.00261022
-0.121189
-0.215588
-0.269832
-0.280464
-0.277793
-0.276621
-0.276068
-0.275845
-0.779884
-0.745778
-0.681334
-0.598886
-0.508965
-0.416571
-0.324117
-0.234469
-0.152012
-0.082386
-0.0458263
-0.072884
-0.174999
-0.254797
-0.254958
-0.274137
-0.278354
-0.276664
-0.275984
-0.275561
-0.805672
-0.772632
-0.710252
-0.629715
-0.542291
-0.452922
-0.364158
-0.278885
-0.201699
-0.138222
-0.101663
-0.139918
-0.221246
-0.282086
-0.298945
-0.290031
-0.285022
-0.282766
-0.281773
-0.281128
-0.825803
-0.794492
-0.734985
-0.657508
-0.573317
-0.487658
-0.403111
-0.322587
-0.25051
-0.193097
-0.15871
-0.19295
-0.254851
-0.328879
-0.353883
-0.319512
-0.299813
-0.29516
-0.292936
-0.291814
-0.838062
-0.809452
-0.75373
-0.68037
-0.600565
-0.519471
-0.439802
-0.364392
-0.297418
-0.245367
-0.212973
-0.233583
-0.258514
-0.315202
-0.306579
-0.299206
-0.29896
-0.298387
-0.297305
-0.297175
-0.839839
-0.815267
-0.764497
-0.696526
-0.622353
-0.546958
-0.472922
-0.403075
-0.34133
-0.293841
-0.257486
-0.263087
-0.233142
-0.217346
-0.239674
-0.266234
-0.279739
-0.285357
-0.288006
-0.288889
-0.828907
-0.80914
-0.765122
-0.704393
-0.637222
-0.568656
-0.501142
-0.437369
-0.381157
-0.337842
-0.295239
-0.292179
-0.245135
-0.166537
-0.219802
-0.269781
-0.29183
-0.300513
-0.303888
-0.304914
-0.803363
-0.788535
-0.753816
-0.70272
-0.644168
-0.583565
-0.523293
-0.465932
-0.415557
-0.377076
-0.333122
-0.343451
-0.365279
-0.366255
-0.380982
-0.370968
-0.359138
-0.352729
-0.349941
-0.349594
-0.765756
-0.756211
-0.731411
-0.691652
-0.643147
-0.591379
-0.538653
-0.487683
-0.442707
-0.40967
-0.385349
-0.410184
-0.512916
-0.698124
-0.673085
-0.507
-0.407419
-0.370762
-0.360221
-0.356854
-0.722763
-0.717347
-0.70271
-0.673967
-0.636053
-0.59282
-0.547232
-0.50186
-0.460802
-0.430696
-0.407041
-0.397581
-0.361418
-0.349425
-0.32381
-0.280208
-0.265973
-0.261979
-0.257993
-0.254657
-0.68406
-0.680782
-0.673811
-0.655015
-0.625799
-0.589736
-0.550035
-0.508447
-0.468405
-0.434592
-0.412445
-0.328357
-0.152747
0.0717057
0.236983
0.157081
-0.00341786
-0.120925
-0.156955
-0.167133
-0.656121
-0.654074
-0.65049
-0.639074
-0.616237
-0.585219
-0.549005
-0.50911
-0.466793
-0.428202
-0.402781
-0.352434
-0.317655
-0.372779
-0.573387
-0.829007
-0.97564
-0.944638
-0.826706
-0.792709
-0.634972
-0.634191
-0.633002
-0.627355
-0.610122
-0.582044
-0.546597
-0.505426
-0.46031
-0.413951
-0.381883
-0.388763
-0.518813
-0.840624
-1.22798
-1.43575
-1.48737
-1.37333
-1.21996
-1.15037
-0.62281
-0.622557
-0.622028
-0.619498
-0.607173
-0.580355
-0.543622
-0.499856
-0.449748
-0.390413
-0.343411
-0.303896
-0.374545
-0.513374
-0.704653
-0.791994
-0.677084
-0.465048
-0.290694
-0.209293
-0.614186
-0.614116
-0.613802
-0.613052
-0.605208
-0.580062
-0.541717
-0.49409
-0.436129
-0.367613
-0.290736
-0.19412
-0.0687203
0.111542
0.34697
0.584428
0.860886
1.07505
1.19023
1.23189
-0.607813
-0.607743
-0.607434
-0.607305
-0.602295
-0.581343
-0.541875
-0.489379
-0.425211
-0.344834
-0.241188
-0.135032
0.0824471
0.445052
0.880435
1.31252
1.65524
1.85985
1.94569
1.96755
-0.604165
-0.603894
-0.603017
-0.601212
-0.59961
-0.585326
-0.545433
-0.488384
-0.418358
-0.327719
-0.218431
-0.1031
0.104203
0.497048
0.939046
1.33948
1.64417
1.81585
1.88267
1.89736
-0.60471
-0.605129
-0.606174
-0.60725
-0.607959
-0.595886
-0.552853
-0.493063
-0.418663
-0.325169
-0.216352
-0.103538
0.0480458
0.392881
0.752833
1.07092
1.3019
1.42639
1.4726
1.48179
-0.60615
-0.607502
-0.611207
-0.619155
-0.625072
-0.606865
-0.561721
-0.503312
-0.427498
-0.3323
-0.228717
-0.124091
-0.00827847
0.247489
0.516848
0.738679
0.89578
0.97568
1.00371
1.00715
-0.623578
-0.623947
-0.617998
-0.599045
-0.580038
-0.575633
-0.56474
-0.520698
-0.443825
-0.347273
-0.248514
-0.155373
-0.0639077
0.111303
0.288898
0.427958
0.520842
0.56414
0.580573
0.584994
-0.670608
-0.668137
-0.649451
-0.602316
-0.5594
-0.566847
-0.590064
-0.54964
-0.464666
-0.363726
-0.272812
-0.193695
-0.122302
0.000629455
0.116682
0.195107
0.240073
0.261152
0.271561
0.275914
-0.754846
-0.756927
-0.774692
-0.801634
-0.800466
-0.774878
-0.720644
-0.605608
-0.489529
-0.379928
-0.293738
-0.228847
-0.175064
-0.0859372
-0.00592037
0.0481432
0.0774828
0.0925144
0.101853
0.104993
-0.904399
-0.927938
-0.984812
-1.0369
-1.04501
-0.999033
-0.854466
-0.667189
-0.509031
-0.388104
-0.306471
-0.256794
-0.221817
-0.142597
-0.0724486
-0.0224867
0.0112725
0.0303429
0.039174
0.0408039
-0.975717
-1.00124
-1.04412
-1.07992
-1.08518
-1.03155
-0.871335
-0.667438
-0.500324
-0.378714
-0.303869
-0.265988
-0.23849
-0.169686
-0.10573
-0.0585099
-0.0231244
-0.0039941
0.00308092
0.00384567
-0.853951
-0.875363
-0.911084
-0.945187
-0.952354
-0.898632
-0.744529
-0.582109
-0.44524
-0.343438
-0.281071
-0.250975
-0.224922
-0.16807
-0.115197
-0.0735678
-0.0423098
-0.0244279
-0.0177603
-0.0181351
-0.552992
-0.570817
-0.604414
-0.641539
-0.659143
-0.624767
-0.536141
-0.438932
-0.354139
-0.286689
-0.240122
-0.212062
-0.18751
-0.14658
-0.108427
-0.0780577
-0.0554397
-0.0421431
-0.0380098
-0.0386518
-0.200815
-0.211397
-0.233938
-0.266579
-0.296518
-0.308766
-0.30228
-0.280198
-0.251279
-0.218258
-0.188459
-0.162674
-0.139595
-0.117411
-0.0951449
-0.0760226
-0.0613302
-0.0530148
-0.0507946
-0.0520106
0.0535387
0.0483647
0.0330477
0.00405745
-0.0381871
-0.0835491
-0.120129
-0.145352
-0.155442
-0.150707
-0.136004
-0.116525
-0.0994684
-0.0900026
-0.081
-0.0723562
-0.0644384
-0.0600161
-0.0592535
-0.0607843
0.171515
0.168387
0.157158
0.132015
0.0904795
0.0380468
-0.0135778
-0.0552688
-0.082524
-0.0940985
-0.0901068
-0.0784546
-0.0701626
-0.0710699
-0.0724251
-0.0720847
-0.0718472
-0.0726449
-0.0738945
-0.0752138
0.197
0.194929
0.18674
0.16735
0.133889
0.0900646
0.042753
-0.000498174
-0.0337089
-0.0525419
-0.0553738
-0.0509522
-0.0501368
-0.058177
-0.0670897
-0.0755708
-0.0824881
-0.0888721
-0.0916623
-0.0923474
0.180137
0.178808
0.173211
0.159595
0.135586
0.102838
0.0648638
0.0278463
-0.0035178
-0.0242724
-0.0304903
-0.0283686
-0.030612
-0.0441597
-0.0603615
-0.0746446
-0.087054
-0.0959064
-0.0989376
-0.0991799
0.149327
0.148543
0.144906
0.135819
0.119404
0.0961526
0.06759
0.0379327
0.0108114
-0.00883403
-0.0155535
-0.0118772
-0.0125594
-0.0319696
-0.0520263
-0.0682326
-0.0809
-0.0884916
-0.0907371
-0.0909722
0.116539
0.116216
0.113965
0.108102
0.0971717
0.0810587
0.0602742
0.0373625
0.0145575
-0.00435194
-0.0137004
-0.0124328
-0.013199
-0.0320342
-0.049506
-0.0618212
-0.0702359
-0.074192
-0.0753244
-0.0757012
0.0866899
0.0864295
0.085064
0.0813681
0.0742163
0.0632415
0.0484053
0.0309429
0.0117852
-0.00792829
-0.0248983
-0.0360263
-0.0432949
-0.0527504
-0.0580096
-0.0605967
-0.0623012
-0.0626476
-0.0629537
-0.0634732
0.0606442
0.0605434
0.0597299
0.0575088
0.0529912
0.045686
0.0353485
0.0222509
0.00618933
-0.014303
-0.0413219
-0.075454
-0.0939113
-0.0835205
-0.07226
-0.0644031
-0.0607553
-0.0591835
-0.0588235
-0.0591954
0.0383975
0.0383725
0.037972
0.0367962
0.0342359
0.0297763
0.0230747
0.0139447
0.00159098
-0.0176917
-0.0492761
-0.0960682
-0.117513
-0.0962536
-0.0750678
-0.0647845
-0.0605543
-0.0587239
-0.057807
-0.0577467
0.0195399
0.0195668
0.0194606
0.0190375
0.0179078
0.0157914
0.0123182
0.00720765
-0.000130815
-0.0133622
-0.0382904
-0.0766773
-0.0900289
-0.0702123
-0.0553392
-0.0500198
-0.0487017
-0.0480213
-0.0468817
-0.0463892
0.00309974
0.00316126
0.0031531
0.00335515
0.00373686
0.00380756
0.00341952
0.00262595
0.00133479
-0.000735908
-0.0051816
-0.0148242
-0.0208929
-0.0192832
-0.0204281
-0.0202668
-0.0189295
-0.0166498
-0.0151099
-0.0140534
-0.0585095
0.107269
0.300462
0.468992
0.60314
0.708143
0.794606
0.868284
0.902069
0.878849
0.2407
0.360436
0.489116
0.600086
0.693336
0.770258
0.832499
0.876741
0.89889
0.91109
0.457151
0.539163
0.627068
0.704527
0.771039
0.826657
0.870911
0.903289
0.926774
0.94484
0.616377
0.675142
0.735948
0.792496
0.841579
0.883285
0.917581
0.944985
0.967635
0.985986
0.7407
0.783378
0.828952
0.87235
0.910715
0.944245
0.972976
0.996924
1.01722
1.03509
0.844323
0.876945
0.914797
0.950088
0.982508
1.01159
1.03703
1.05843
1.07623
1.09359
0.936438
0.964986
0.998783
1.03077
1.06059
1.08767
1.11133
1.131
1.14647
1.16355
1.02477
1.05388
1.08779
1.11974
1.14927
1.17579
1.19861
1.21706
1.23041
1.24744
1.11992
1.15307
1.18966
1.22318
1.25318
1.27933
1.30125
1.31851
1.33036
1.34776
1.23483
1.27262
1.31123
1.34544
1.37476
1.39948
1.41983
1.43571
1.44716
1.46523
1.37971
1.41824
1.45435
1.48502
1.51068
1.53276
1.55181
1.56732
1.57974
1.59774
1.55475
1.58637
1.61253
1.63497
1.65493
1.67364
1.69135
1.70783
1.72317
1.74123
1.74335
1.76054
1.77557
1.79179
1.80769
1.82222
1.83542
1.84935
1.86688
1.88704
1.92506
1.93459
1.94613
1.95693
1.96621
1.97579
1.98657
1.99794
2.0093
2.02465
2.13228
2.13594
2.12099
2.10619
2.09991
2.10558
2.12406
2.15436
2.18654
2.2132
2.4386
2.30374
2.2271
2.18471
2.16728
2.17125
2.19864
2.25506
2.35768
2.58204
0.756961
0.754834
0.750351
0.74173
0.72951
0.717388
0.707169
0.699288
0.693691
0.690464
0.690144
0.692914
0.698044
0.705284
0.714684
0.726232
0.738889
0.749927
0.756041
0.759097
0.681406
0.687254
0.693588
0.698085
0.70056
0.700242
0.697515
0.69372
0.690232
0.688001
0.68789
0.690121
0.69381
0.698118
0.701938
0.70383
0.7029
0.699424
0.694263
0.687642
0.672966
0.675263
0.678669
0.681668
0.683749
0.685253
0.68602
0.68572
0.684718
0.683867
0.684081
0.685545
0.687388
0.688714
0.688909
0.688029
0.686488
0.684157
0.680898
0.677979
0.667434
0.66852
0.670355
0.672738
0.674768
0.676205
0.677238
0.678009
0.678437
0.678695
0.67923
0.680078
0.680707
0.680797
0.680401
0.679565
0.678105
0.676028
0.673946
0.672565
0.662202
0.662865
0.663975
0.665685
0.667474
0.669116
0.670427
0.671464
0.672377
0.673209
0.673988
0.674587
0.674817
0.674677
0.67413
0.67309
0.671674
0.670139
0.668826
0.668048
0.65719
0.65765
0.658438
0.659742
0.661238
0.662767
0.664248
0.665571
0.666742
0.667845
0.668819
0.669442
0.66963
0.669389
0.668716
0.667745
0.666634
0.665512
0.664603
0.664087
0.652316
0.65266
0.653273
0.654348
0.655651
0.657039
0.658497
0.659971
0.661384
0.662719
0.663899
0.664655
0.664884
0.664648
0.664079
0.663325
0.662493
0.661639
0.660975
0.660598
0.647526
0.647793
0.648288
0.649204
0.650384
0.651696
0.653113
0.654633
0.65622
0.657804
0.659233
0.66018
0.660544
0.660472
0.660116
0.659586
0.65896
0.658338
0.657855
0.657568
0.642735
0.642947
0.643359
0.644165
0.645267
0.646533
0.647944
0.649515
0.65124
0.65307
0.654797
0.656019
0.656632
0.65681
0.656692
0.656388
0.655973
0.655546
0.655205
0.65498
0.637855
0.638026
0.63838
0.639113
0.64017
0.641418
0.64286
0.64452
0.646409
0.648504
0.650588
0.65218
0.653128
0.653603
0.653746
0.653678
0.653482
0.653232
0.653008
0.652829
0.632797
0.632934
0.633246
0.633936
0.634979
0.636253
0.637765
0.639558
0.641665
0.644083
0.646602
0.648655
0.650006
0.650826
0.651266
0.651453
0.651472
0.651395
0.651272
0.651128
0.627468
0.627578
0.627863
0.628534
0.629596
0.630943
0.63257
0.634549
0.636943
0.639769
0.642824
0.645431
0.647258
0.648478
0.649255
0.64972
0.649969
0.650065
0.650029
0.649912
0.62177
0.621857
0.622126
0.622803
0.623921
0.625382
0.627179
0.629414
0.632173
0.635514
0.639226
0.642498
0.644888
0.646574
0.647732
0.648523
0.649026
0.649287
0.649329
0.649234
0.615593
0.615659
0.615921
0.616626
0.617839
0.619462
0.621493
0.624062
0.627287
0.631267
0.63578
0.639852
0.642912
0.645146
0.646744
0.6479
0.648686
0.649127
0.649244
0.649165
0.608804
0.60885
0.609114
0.60987
0.611216
0.613058
0.615396
0.618392
0.622205
0.626975
0.632461
0.637494
0.64135
0.644231
0.646348
0.647914
0.649026
0.649663
0.649853
0.649787
0.601249
0.601275
0.601542
0.602371
0.603896
0.606021
0.608752
0.61229
0.616838
0.622578
0.629245
0.635429
0.640228
0.643871
0.646604
0.648662
0.650144
0.650991
0.651253
0.651197
0.592708
0.592721
0.592999
0.593929
0.595689
0.598159
0.601398
0.605621
0.611082
0.618014
0.626108
0.633666
0.639584
0.644123
0.647582
0.650231
0.652134
0.65321
0.653546
0.653497
0.582896
0.58288
0.58321
0.584284
0.586332
0.589262
0.593141
0.598224
0.604823
0.613218
0.623036
0.632226
0.639462
0.645059
0.649368
0.652704
0.655097
0.656426
0.656834
0.656787
0.571501
0.57146
0.571839
0.573105
0.575524
0.579045
0.583738
0.58991
0.597933
0.608127
0.62002
0.631138
0.639913
0.646746
0.652055
0.65618
0.659135
0.660731
0.661208
0.661159
0.558031
0.557963
0.558422
0.559942
0.562848
0.567138
0.572886
0.580454
0.590271
0.60268
0.617058
0.630439
0.640992
0.649245
0.655719
0.660754
0.664327
0.666198
0.666733
0.666676
0.541825
0.541728
0.542314
0.544189
0.547747
0.553067
0.560213
0.569602
0.581704
0.596843
0.614179
0.630179
0.642762
0.652626
0.660415
0.666476
0.670722
0.672857
0.673431
0.67336
0.52193
0.521807
0.522598
0.524991
0.529469
0.536219
0.545273
0.557088
0.572124
0.590624
0.611447
0.630433
0.645289
0.656947
0.666169
0.673378
0.678307
0.680669
0.681254
0.68116
0.496907
0.496769
0.497897
0.501095
0.506966
0.515811
0.527574
0.542688
0.561513
0.584117
0.608989
0.631305
0.648636
0.662239
0.673024
0.681427
0.686992
0.689502
0.690056
0.689932
0.464413
0.464298
0.466045
0.470639
0.478827
0.490941
0.506677
0.52632
0.549991
0.577523
0.606993
0.632927
0.652876
0.668516
0.680921
0.690516
0.696577
0.699108
0.699581
0.699422
0.420243
0.420296
0.423404
0.43091
0.443398
0.460844
0.48247
0.508219
0.537922
0.571195
0.605723
0.635451
0.658078
0.675776
0.689783
0.700439
0.706729
0.709102
0.709447
0.709255
0.356519
0.357752
0.365354
0.37936
0.399719
0.42565
0.455572
0.489098
0.525938
0.565603
0.60546
0.639019
0.664267
0.683934
0.699368
0.710753
0.71696
0.718936
0.719108
0.718898
0.281021
0.282833
0.297388
0.321448
0.352824
0.388772
0.427728
0.469519
0.51397
0.560622
0.606572
0.64476
0.673277
0.695331
0.712351
0.724369
0.730231
0.731868
0.731992
0.731865
0.203177
0.209465
0.230955
0.265348
0.307192
0.352865
0.400812
0.450908
0.50304
0.556766
0.608933
0.651838
0.683605
0.708037
0.726811
0.738876
0.743909
0.745036
0.745105
0.745052
0.139478
0.148114
0.174194
0.215661
0.265708
0.319663
0.375711
0.433577
0.493031
0.553557
0.611662
0.658975
0.693738
0.720157
0.739797
0.75178
0.756458
0.757491
0.757605
0.757612
0.0876806
0.0969169
0.126571
0.173308
0.229542
0.290171
0.353069
0.417797
0.48394
0.550838
0.614574
0.666067
0.703611
0.731882
0.752535
0.764692
0.76913
0.77009
0.770261
0.770316
0.0443756
0.0538925
0.0860066
0.136759
0.198072
0.264242
0.332954
0.403687
0.475853
0.54864
0.617702
0.673213
0.713469
0.743605
0.765317
0.777687
0.782138
0.783286
0.783483
0.783577
0.00718807
0.0168078
0.0507586
0.104725
0.170245
0.241145
0.314928
0.390988
0.468624
0.546887
0.621007
0.680397
0.723315
0.755274
0.77808
0.791069
0.795819
0.797029
0.797223
0.797323
-0.0255705
-0.0159285
0.0194258
0.0761024
0.14515
0.220133
0.298412
0.379282
0.461955
0.545347
0.624295
0.68745
0.732983
0.766796
0.790832
0.804452
0.809526
0.810831
0.811018
0.811098
-0.0552005
-0.0455359
-0.0090351
0.0499806
0.122054
0.200618
0.282907
0.36815
0.455483
0.543726
0.627332
0.694164
0.742259
0.777865
0.803012
0.817359
0.822796
0.82418
0.824352
0.824413
-0.0826058
-0.0729114
-0.0354254
0.0256449
0.100395
0.182136
0.268015
0.357246
0.448922
0.541789
0.629922
0.700362
0.750964
0.788297
0.814551
0.829495
0.835342
0.836785
0.836923
0.836952
-0.108368
-0.0986226
-0.0602255
0.00257839
0.0797453
0.164326
0.253446
0.34633
0.442059
0.539335
0.631896
0.705918
0.758982
0.797979
0.825241
0.840706
0.846824
0.848316
0.848432
0.848429
-0.132985
-0.12312
-0.0838352
-0.0195381
0.0598151
0.146935
0.23899
0.335216
0.434724
0.536214
0.633137
0.710767
0.766296
0.806885
0.835052
0.850868
0.85713
0.858647
0.858735
0.8587
-0.156747
-0.146677
-0.106677
-0.0408866
0.0404072
0.129794
0.224499
0.323782
0.426804
0.532325
0.633563
0.714861
0.772905
0.81504
0.843948
0.859994
0.866281
0.867767
0.867825
0.867764
-0.179768
-0.169509
-0.128825
-0.0616175
0.0213881
0.112811
0.209893
0.311957
0.418233
0.527581
0.633089
0.718177
0.778857
0.822571
0.852103
0.868203
0.874377
0.875785
0.875819
0.875737
-0.202247
-0.191719
-0.150292
-0.0818379
0.00269603
0.0959321
0.195139
0.299713
0.408976
0.521935
0.631648
0.720684
0.78422
0.829622
0.85968
0.875648
0.881579
0.882855
0.882841
0.88274
-0.224137
-0.213356
-0.171242
-0.101606
-0.0156902
0.0791515
0.180249
0.287064
0.399036
0.515358
0.629183
0.722333
0.789046
0.836353
0.866903
0.882511
0.88801
0.889077
0.889001
0.888881
-0.245515
-0.234453
-0.191611
-0.120921
-0.0337676
0.0624851
0.165245
0.27405
0.388446
0.507851
0.625637
0.723057
0.79334
0.842922
0.874044
0.889042
0.893788
0.894509
0.894361
0.894237
-0.266236
-0.254961
-0.211396
-0.139746
-0.0515027
0.0459911
0.150183
0.260728
0.377264
0.499454
0.620972
0.722766
0.797048
0.849432
0.881445
0.895671
0.899235
0.8993
0.899022
0.898922
-0.286439
-0.274841
-0.230599
-0.158074
-0.0688737
0.0296994
0.135144
0.247169
0.365563
0.490231
0.615179
0.721345
0.800037
0.855872
0.889421
0.903078
0.905037
0.903783
0.903108
0.903062
-0.30597
-0.294078
-0.249198
-0.175872
-0.0858091
0.0136879
0.120201
0.233484
0.353445
0.480235
0.608282
0.718672
0.802106
0.862063
0.898055
0.912037
0.912568
0.909179
0.907034
0.906409
-0.324896
-0.312721
-0.267146
-0.193096
-0.10228
-0.00197973
0.105433
0.219747
0.341014
0.469591
0.600332
0.714623
0.802996
0.867631
0.906939
0.922798
0.923479
0.918309
0.912056
0.904231
-0.343138
-0.330729
-0.284537
-0.2099
-0.118492
-0.0175673
0.0905179
0.205579
0.327846
0.457831
0.590838
0.708695
0.802283
0.872348
0.915589
0.934958
0.938401
0.932727
0.921618
0.917131
-0.360652
-0.348025
-0.301359
-0.226261
-0.134456
-0.0330713
0.0754644
0.190955
0.313888
0.444824
0.579582
0.700467
0.799134
0.875417
0.922095
0.944579
0.950131
0.947059
0.908846
0.857248
-0.377161
-0.363831
-0.317462
-0.24211
-0.150277