/*--------------------------------*- C++ -*----------------------------------*\
  =========                 |
  \\      /  F ield         | OpenFOAM: The Open Source CFD Toolbox
   \\    /   O peration     | Website:  https://openfoam.org
    \\  /    A nd           | Version:  10
     \\/     M anipulation  |
\*---------------------------------------------------------------------------*/
FoamFile
{
    format      ascii;
    class       surfaceScalarField;
    location    "68";
    object      phi;
}
// * * * * * * * * * * * * * * * * * * * * * * * * * * * * * * * * * * * * * //

dimensions      [0 3 -1 0 0 0 0];

internalField   nonuniform List<scalar> 
17370
(
-0.0916061
0.0960093
0.284608
-0.0775945
0.0594198
0.36495
-0.0430418
0.0316218
0.427588
-0.0223177
0.016265
0.505304
-0.011672
0.00879831
0.602276
-0.00658729
0.00510239
0.720542
-0.00386542
0.00298503
0.863787
-0.00221196
0.00163355
1.03603
-0.00110169
0.000680296
1.24292
-0.000268342
-0.000126495
1.49159
0.000515527
-0.000930271
1.49161
0.00133614
-0.00184144
1.2432
0.00239091
-0.00313146
1.03638
0.00398646
-0.0052037
0.864124
0.0066771
-0.00887842
0.721259
0.0117416
-0.016319
0.603792
0.0223552
-0.0316412
0.508725
0.0430416
-0.059408
0.432534
0.077587
-0.0960026
0.365191
0.0916213
0.19739
-0.127093
0.0880254
0.0390675
-0.364358
0.354033
-0.0714728
0.0817978
-0.446654
0.454258
-0.079167
0.0715635
-0.521012
0.529113
-0.0637086
0.0556076
-0.612992
0.620763
-0.0482191
0.0404482
-0.727165
0.733688
-0.0338351
0.0273128
-0.867582
0.872436
-0.0221072
0.0172529
-1.03857
1.04191
-0.0135525
0.0102108
-1.24472
1.24713
-0.00765764
0.00524881
-1.49284
1.49486
-0.00328175
0.00126429
-1.49269
1.49452
0.000557492
-0.00237973
-1.2441
1.24602
0.00435551
-0.00626902
-1.03761
1.04008
0.00860497
-0.0110819
-0.866186
0.869809
0.0143358
-0.0179597
-0.724592
0.729744
0.0227421
-0.0278935
-0.609063
0.61563
0.0343643
-0.0409316
-0.515122
0.522455
0.0486492
-0.0559826
-0.43988
0.447654
0.0640015
-0.0717761
-0.374704
0.377355
0.0792653
-0.0819158
-0.256894
0.22443
0.0715652
-0.0391016
-0.0688155
0.0592059
0.00960956
-0.0520949
0.0589174
-0.374842
0.36802
-0.0580666
0.0542221
-0.45395
0.457795
-0.048733
0.0441716
-0.527623
0.532184
-0.0396191
0.0357204
-0.620807
0.624706
-0.0315038
0.0275047
-0.734666
0.738666
-0.0231431
0.0192511
-0.873963
0.877855
-0.0152006
0.0117386
-1.04337
1.04683
-0.00821366
0.00517616
-1.24866
1.25169
-0.00196368
-0.00102142
-1.49695
1.49993
0.00398391
-0.00713468
-1.49742
1.50057
0.0100814
-0.0134815
-1.25006
1.25346
0.016814
-0.0207142
-1.04564
1.04954
0.0244737
-0.0287052
-0.877127
0.881358
0.0325996
-0.036713
-0.738972
0.743086
0.0405262
-0.0449944
-0.625961
0.630429
0.0494854
-0.0549054
-0.535008
0.540428
0.0586698
-0.0594258
-0.458067
0.458823
0.0524712
-0.0320745
-0.336751
0.316354
0.00967658
-0.0686537
0.0589771
-0.0534193
0.0493106
0.00410867
-0.0332243
0.0436393
-0.35858
0.348165
-0.0473079
0.0467161
-0.459592
0.460184
-0.0437831
0.0405666
-0.536145
0.539362
-0.0368849
0.0335255
-0.62841
0.63177
-0.0298858
0.0266389
-0.742051
0.745298
-0.0231789
0.0199746
-0.881355
0.88456
-0.0163738
0.0130148
-1.05026
1.05362
-0.00930779
0.00589639
-1.25496
1.25837
-0.00209916
-0.00152172
-1.50329
1.50691
0.00511017
-0.00881357
-1.50406
1.50776
0.0120969
-0.015627
-1.25701
1.26054
0.0188025
-0.0221897
-1.05325
1.05663
0.0252051
-0.0284786
-0.884959
0.888233
0.0315751
-0.0350661
-0.746761
0.750252
0.0382994
-0.0418498
-0.634543
0.638093
0.0449525
-0.0477578
-0.544565
0.547371
0.0482171
-0.0443644
-0.456931
0.453078
0.0337238
-0.0163939
-0.297023
0.279693
0.00418296
-0.0531233
0.0489404
-0.0461444
0.0435925
0.00255195
-0.0230219
0.0333583
-0.337584
0.327248
-0.03908
0.0400205
-0.45994
0.459
-0.0387616
0.0364274
-0.542023
0.544358
-0.0337779
0.0312241
-0.634744
0.637298
-0.0282383
0.0253818
-0.748391
0.751247
-0.0221344
0.0191116
-0.887624
0.890647
-0.0157505
0.0126072
-1.05681
1.05995
-0.00904026
0.00563166
-1.26177
1.26518
-0.00171354
-0.00208865
-1.51064
1.51444
0.00584892
-0.00964028
-1.51154
1.51533
0.0128788
-0.0162132
-1.26399
1.26733
0.0191154
-0.0221966
-1.05984
1.06292
0.0249695
-0.0279653
-0.891419
0.894415
0.0306151
-0.0333953
-0.75342
0.756201
0.0357763
-0.0382506
-0.641037
0.643511
0.0404349
-0.0414969
-0.549196
0.550258
0.0403511
-0.0343297
-0.44794
0.441918
0.0236639
-0.0103937
-0.264486
0.251216
0.00264407
-0.045691
0.0430469
-0.0414781
0.0396823
0.00179588
-0.0169124
0.0261795
-0.317395
0.308128
-0.0327574
0.0348643
-0.45745
0.455343
-0.0344178
0.0327091
-0.546395
0.548104
-0.03047
0.0283308
-0.639618
0.641757
-0.0258799
0.023489
-0.753858
0.756249
-0.0206602
0.0179009
-0.893516
0.896275
-0.0147027
0.0116556
-1.06301
1.06605
-0.00817768
0.00485136
-1.26851
1.27184
-0.00100236
-0.00275022
-1.51821
1.52197
0.00644858
-0.010137
-1.51907
1.52275
0.0132469
-0.0164301
-1.27059
1.27377
0.0191711
-0.0220111
-1.06594
1.06878
0.0244472
-0.0269499
-0.897185
0.899688
0.0290742
-0.0312615
-0.758627
0.760815
0.0331804
-0.0351935
-0.645726
0.647739
0.0366842
-0.0368619
-0.550825
0.551003
0.0344397
-0.0274233
-0.435304
0.428288
0.0177143
-0.00749858
-0.239615
0.229399
0.00190866
-0.0408306
0.0389219
-0.0381374
0.0367912
0.00134621
-0.0129065
0.0208821
-0.299509
0.291533
-0.0276247
0.0305277
-0.452804
0.449901
-0.0307179
0.0295789
-0.549552
0.550691
-0.0275652
0.0256239
-0.643826
0.645767
-0.0233947
0.0212371
-0.758506
0.760664
-0.0187111
0.0162262
-0.898841
0.901325
-0.0132884
0.0104171
-1.06897
1.07184
-0.00707131
0.00384182
-1.27509
1.27831
-9.74102e-05
-0.00353879
-1.52564
1.52928
0.00710791
-0.0106505
-1.52636
1.5299
0.0136099
-0.0165879
-1.27687
1.27985
0.0190764
-0.0215651
-1.07149
1.07398
0.0236455
-0.0257621
-0.901984
0.904101
0.0275823
-0.029476
-0.762839
0.764733
0.0311384
-0.0328806
-0.649593
0.651335
0.0337013
-0.0331361
-0.550811
0.550246
0.0297823
-0.0224387
-0.42105
0.413706
0.0138954
-0.00580274
-0.220346
0.212253
0.0014838
-0.0372526
0.0357688
-0.035616
0.0345812
0.00103482
-0.0100746
0.0168202
-0.284196
0.27745
-0.0233068
0.0266672
-0.446748
0.443387
-0.0274301
0.0267209
-0.551606
0.552315
-0.0249379
0.0231381
-0.647675
0.649474
-0.0210567
0.0190325
-0.762754
0.764778
-0.0166515
0.0143153
-0.903674
0.90601
-0.0115677
0.00887408
-1.07456
1.07725
-0.0057064
0.00261683
-1.28144
1.28452
0.000987044
-0.00448799
-1.53282
1.53632
0.00790482
-0.0112595
-1.53334
1.53669
0.0140135
-0.0167254
-1.2827
1.28542
0.0189471
-0.0211411
-1.07637
1.07856
0.0229775
-0.0248513
-0.906107
0.90798
0.0264577
-0.0281233
-0.766502
0.768167
0.0295777
-0.030987
-0.65293
0.654339
0.0312999
-0.0300046
-0.54933
0.548035
0.0260231
-0.0187452
-0.406369
0.399091
0.0112865
-0.00468129
-0.204974
0.198369
0.0012022
-0.0344422
0.03324
-0.0336727
0.0328684
0.000804303
-0.00797425
0.0136416
-0.271271
0.265604
-0.0196461
0.0232066
-0.439914
0.436353
-0.0244479
0.0239846
-0.552929
0.553393
-0.0224722
0.0207812
-0.651267
0.652958
-0.0187952
0.0168598
-0.766756
0.768691
-0.0145787
0.0123366
-0.908238
0.91048
-0.0096958
0.00711458
-1.07981
1.0824
-0.00409131
0.00114088
-1.28749
1.29044
0.00229973
-0.00563683
-1.53971
1.54305
0.00887227
-0.0120088
-1.53992
1.54306
0.0145468
-0.0170143
-1.28801
1.29048
0.0190181
-0.0209786
-1.08071
1.08267
0.022606
-0.0242634
-0.909761
0.911419
0.0256851
-0.0271585
-0.769728
0.771201
0.0284184
-0.0294472
-0.65554
0.656568
0.0293873
-0.0274196
-0.546408
0.54444
0.0230289
-0.016009
-0.391938
0.384918
0.00945582
-0.00390717
-0.192343
0.186794
0.00100779
-0.0321475
0.0311397
-0.0321618
0.0315357
0.000626148
-0.00635526
0.0111002
-0.260424
0.255679
-0.0165145
0.0200771
-0.432788
0.429225
-0.0216426
0.0214041
-0.553775
0.554014
-0.0201236
0.0184941
-0.654663
0.656292
-0.0165639
0.0146776
-0.770598
0.772485
-0.0124555
0.0102734
-0.912621
0.914803
-0.007705
0.00519767
-1.08486
1.08737
-0.00226855
-0.000567948
-1.29328
1.29612
0.00386354
-0.00703428
-1.54627
1.54944
0.0100793
-0.0130001
-1.54606
1.54898
0.0153404
-0.0175931
-1.29284
1.29509
0.0193974
-0.021136
-1.0846
1.08634
0.0225672
-0.0240272
-0.912993
0.914453
0.0252844
-0.0265843
-0.77258
0.77388
0.0276973
-0.0283058
-0.65738
0.657989
0.0278738
-0.0253391
-0.542204
0.539669
0.0206954
-0.0140008
-0.378071
0.371376
0.00816281
-0.00336824
-0.181661
0.176866
0.000873239
-0.0302095
0.0293363
-0.0309889
0.030507
0.00048194
-0.00505266
0.00900172
-0.251356
0.247407
-0.0137796
0.0171943
-0.425741
0.422326
-0.0189434
0.0188945
-0.554194
0.554243
-0.0178105
0.0162156
-0.657967
0.659562
-0.0143088
0.0124381
-0.774357
0.776227
-0.0102345
0.0080759
-0.916891
0.919049
-0.00554442
0.00308391
-1.08977
1.09223
-0.000225051
-0.00253735
-1.29886
1.30162
0.00571255
-0.0087347
-1.5525
1.55552
0.0116043
-0.0143247
-1.55177
1.55449
0.0164786
-0.0185241
-1.29724
1.29929
0.0201345
-0.0216577
-1.08807
1.0896
0.0229036
-0.0241826
-0.915835
0.917114
0.0252909
-0.0264306
-0.77509
0.776229
0.027351
-0.0275778
-0.658401
0.658628
0.0267465
-0.0237295
-0.536909
0.533892
0.0189305
-0.0125532
-0.364859
0.358481
0.00725905
-0.0029984
-0.172371
0.168111
0.000782478
-0.028518
0.0277355
-0.0300923
0.0297323
0.000359979
-0.00396151
0.00721104
-0.243829
0.24058
-0.0113399
0.0144962
-0.419051
0.415895
-0.016302
0.0164048
-0.55426
0.554157
-0.0154044
0.0138812
-0.661195
0.662718
-0.0119698
0.0100818
-0.778096
0.779984
-0.00785866
0.00568845
-0.92112
0.92329
-0.0031569
0.000710558
-1.09459
1.09704
0.00211867
-0.00482519
-1.30429
1.30699
0.00790853
-0.0108068
-1.55844
1.56134
0.0135203
-0.0160516
-1.55708
1.55961
0.018023
-0.0198647
-1.30123
1.30307
0.0212853
-0.0225973
-1.09114
1.09245
0.0236625
-0.0247681
-0.918318
0.919423
0.0257332
-0.0267054
-0.777276
0.778248
0.0273666
-0.0273041
-0.658726
0.658664
0.0260266
-0.0225804
-0.530672
0.527226
0.01767
-0.0115544
-0.35226
0.346145
0.00665294
-0.00275706
-0.164062
0.160166
0.00072533
-0.026991
0.0262657
-0.0294322
0.029181
0.000251214
-0.00300521
0.00562323
-0.237665
0.235047
-0.0091031
0.0119175
-0.412924
0.41011
-0.0136656
0.0138489
-0.554062
0.553878
-0.0128893
0.0114097
-0.664301
0.665781
-0.00947113
0.00753719
-0.781878
0.783812
-0.00525933
0.0030436
-0.925375
0.927591
-0.000474785
-0.0019973
-1.09939
1.10187
0.0048302
-0.00751491
-1.30962
1.3123
0.010538
-0.0133388
-1.56414
1.56694
0.0159162
-0.0182718
-1.56202
1.56438
0.0200681
-0.0217099
-1.3048
1.30644
0.0229401
-0.0240362
-1.09382
1.09491
0.0249159
-0.0258447
-0.92045
0.921379
0.0266654
-0.0274651
-0.779113
0.779913
0.0278347
-0.0274836
-0.658456
0.658104
0.0257547
-0.0218893
-0.523591
0.519726
0.0168663
-0.0109285
-0.340153
0.334215
0.00628494
-0.00261762
-0.156414
0.152746
0.000694878
-0.0255655
0.0248706
-0.0289863
0.0288383
0.000147969
-0.00211999
0.00414529
-0.232743
0.230718
-0.00697124
0.00937333
-0.40752
0.405118
-0.0109554
0.01114
-0.553752
0.553568
-0.0101881
0.00871402
-0.667357
0.668831
-0.00672154
0.00471142
-0.785758
0.787768
-0.00234259
4.96526e-05
-0.929724
0.932017
0.00260413
-0.00513392
-1.10425
1.10678
0.00800841
-0.0107029
-1.31491
1.3176
0.0136957
-0.01642
-1.56965
1.57238
0.0188749
-0.0210629
-1.5666
1.56879
0.0226881
-0.0241301
-1.30797
1.30941
0.0251631
-0.0260279
-1.09609
1.09695
0.0267078
-0.0274451
-0.922214
0.922952
0.0281136
-0.0287691
-0.780591
0.781247
0.0288223
-0.0280907
-0.657542
0.656811
0.0259066
-0.0216269
-0.515698
0.511419
0.0164667
-0.0106127
-0.328362
0.322507
0.0061097
-0.00255996
-0.149167
0.145618
0.000685841
-0.0241905
0.0235047
-0.0287464
0.0287029
4.35201e-05
-0.0012571
0.00270455
-0.228996
0.227548
-0.00486288
0.00678924
-0.402974
0.401048
-0.00810135
0.00820444
-0.553493
0.55339
-0.00721285
0.00570626
-0.670443
0.671949
-0.00362074
0.0015008
-0.789794
0.791914
0.00099934
-0.00341422
-0.934233
0.936648
0.00618591
-0.00881129
-1.10923
1.11186
0.0117679
-0.0145063
-1.32023
1.32297
0.0174996
-0.0201674
-1.57502
1.57768
0.022511
-0.0245356
-1.57085
1.57287
0.0259896
-0.0272298
-1.31072
1.31196
0.0280603
-0.0286906
-1.09794
1.09857
0.0291636
-0.0296948
-0.923591
0.924122
0.0301962
-0.0306426
-0.781703
0.78215
0.0304049
-0.0292103
-0.65586
0.654666
0.0265355
-0.0218094
-0.506985
0.502259
0.0164549
-0.0105761
-0.316692
0.310813
0.0061031
-0.00257333
-0.14211
0.13858
0.000695459
-0.0228252
0.0221298
-0.0287154
0.0287816
-6.61809e-05
-0.000372269
0.00123621
-0.226403
0.22554
-0.00269942
0.00408492
-0.399412
0.398027
-0.00502378
0.00496025
-0.553457
0.553521
-0.00387198
0.00228079
-0.673646
0.675237
-6.84756e-05
-0.00220026
-0.794056
0.796324
0.00487858
-0.00745511
-0.938981
0.941558
0.0103961
-0.0131611
-1.11441
1.11718
0.0162446
-0.0190638
-1.32565
1.32847
0.0220921
-0.0247271
-1.58027
1.58291
0.0269721
-0.0288344
-1.57476
1.57663
0.0301101
-0.0311374
-1.31304
1.31407
0.0317568
-0.0321436
-1.09934
1.09973
0.032401
-0.0327117
-0.924549
0.92486
0.0330216
-0.0331808
-0.782289
0.782448
0.0326444
-0.0308986
-0.653267
0.651521
0.0276841
-0.0224561
-0.497378
0.49215
0.0168272
-0.0108039
-0.304921
0.298898
0.00625259
-0.00265169
-0.135048
0.131447
0.000722002
-0.021433
0.020711
-0.0289084
0.0290897
-0.000181273
0.000548901
-0.000302309
-0.22499
0.224743
-0.000413381
0.00117901
-0.396961
0.396195
-0.00163359
0.0013176
-0.55382
0.554136
-7.80389e-05
-0.00167461
-0.677077
0.67883
0.00407645
-0.00654523
-0.798625
0.801094
0.00945403
-0.0122406
-0.944057
0.946843
0.0154035
-0.0183543
-1.11988
1.12283
0.0216114
-0.0245486
-1.33124
1.33417
0.0276437
-0.0302642
-1.58547
1.58809
0.0324158
-0.0341094
-1.57834
1.58004
0.0351992
-0.0359948
-1.31491
1.3157
0.0363903
-0.0365209
-1.10026
1.10039
0.0365459
-0.0366205
-0.92505
0.925125
0.036733
-0.0365219
-0.782236
0.782025
0.0356004
-0.0332351
-0.649608
0.647243
0.0294068
-0.0235877
-0.486747
0.480928
0.0175801
-0.011282
-0.292804
0.286506
0.00654566
-0.00278846
-0.127804
0.124047
0.000763432
-0.019981
0.0192176
-0.0293547
0.0296836
-0.000328912
0.00157737
-0.00197302
-0.224841
0.225236
0.00210809
-0.00207167
-0.395751
0.395715
0.00223288
-0.0029129
-0.554805
0.555485
0.00439003
-0.00633847
-0.680886
0.682835
0.00897983
-0.0116996
-0.803592
0.806312
0.0148994
-0.0179525
-0.949556
0.952609
0.0213978
-0.0245864
-1.12573
1.12891
0.0280675
-0.0311598
-1.33706
1.34016
0.0343506
-0.0369701
-1.59063
1.59325
0.0390271
-0.0405353
-1.58157
1.58308
0.0414199
-0.0419757
-1.31627
1.31683
0.0421335
-0.0419815
-1.10064
1.10048
0.0417486
-0.0415678
-0.925042
0.924861
0.0414745
-0.0407849
-0.781392
0.780703
0.0393937
-0.0363073
-0.644733
0.641647
0.0317605
-0.0252275
-0.474902
0.468369
0.0187145
-0.0120007
-0.280076
0.273363
0.00697223
-0.00297757
-0.120209
0.116215
0.000817523
-0.0184405
0.017623
-0.0300824
0.0305904
-0.000508006
0.0028723
-0.00403315
-0.226032
0.227193
0.00503917
-0.00580767
-0.396002
0.396771
0.00669094
-0.00783713
-0.556639
0.557785
0.00963741
-0.0118617
-0.685173
0.687397
0.0148281
-0.0178723
-0.809067
0.812112
0.0214404
-0.0248274
-0.955594
0.958981
0.0286243
-0.0321075
-1.13206
1.13554
0.0358653
-0.039149
-1.34321
1.34649
0.0424593
-0.0450815
-1.59579
1.59841
0.0470318
-0.0483358
-1.58441
1.58571
0.0489782
-0.0492758
-1.3171
1.31739
0.0491735
-0.0487131
-1.10042
1.09996
0.0482027
-0.0477513
-0.924461
0.92401
0.0473306
-0.0461797
-0.779614
0.778463
0.044166
-0.0402181
-0.638424
0.634476
0.0348132
-0.0274046
-0.46158
0.454172
0.0202341
-0.012951
-0.266451
0.259168
0.00752192
-0.00321261
-0.112103
0.107794
0.00088208
-0.0167872
0.0159051
-0.0311662
0.0318978
-0.000731644
0.00438524
-0.006438
-0.22876
0.230813
0.00851054
-0.0101951
-0.397924
0.399609
0.011909
-0.0136409
-0.559579
0.561311
0.0159001
-0.018502
-0.690102
0.692703
0.0219031
-0.0253579
-0.815201
0.818655
0.0293843
-0.0331821
-0.96231
0.966108
0.0374063
-0.0412428
-1.13899
1.14283
0.0453259
-0.048828
-1.34974
1.35324
0.052264
-0.0548729
-1.60094
1.60355
0.0566832
-0.0577388
-1.58682
1.58787
0.0580988
-0.0580971
-1.31732
1.31732
0.0577081
-0.0569149
-1.09955
1.09876
0.0561006
-0.0553432
-0.923262
0.922504
0.054518
-0.0528414
-0.776941
0.775265
0.0500645
-0.0450709
-0.630389
0.625395
0.0386204
-0.03013
-0.446444
0.437954
0.0221247
-0.0141087
-0.251616
0.2436
0.00817321
-0.00348112
-0.103336
0.0986443
0.000952689
-0.0150023
0.0140496
-0.0326899
0.0337111
-0.00102119
0.00627568
-0.00938912
-0.233272
0.236386
0.0127427
-0.0154919
-0.401787
0.404537
0.0181811
-0.0206238
-0.563905
0.566348
0.0234851
-0.0265855
-0.695891
0.698991
0.0305522
-0.0345263
-0.822165
0.826139
0.0391165
-0.0434105
-0.96986
0.974154
0.0481419
-0.0523865
-1.14663
1.15088
0.0568306
-0.0605579
-1.35669
1.36041
0.0640995
-0.066653
-1.60603
1.60859
0.0682682
-0.0690098
-1.58869
1.58943
0.0690268
-0.0686535
-1.3168
1.31643
0.0679516
-0.0667856
-1.09795
1.09679
0.0656289
-0.0645718
-0.921387
0.92033
0.063221
-0.0609273
-0.773221
0.770927
0.0572119
-0.0509251
-0.620249
0.613962
0.0431903
-0.0333701
-0.429073
0.419253
0.0243343
-0.015422
-0.235247
0.226334
0.00888703
-0.00376269
-0.0937805
0.0886562
0.00102278
-0.0130764
0.0120537
-0.0347785
0.036201
-0.0014225
0.0087505
-0.0132198
-0.239895
0.244364
0.0180714
-0.0220635
-0.407957
0.411949
0.0258969
-0.0292022
-0.569945
0.573251
0.0328411
-0.0365989
-0.702803
0.706561
0.0412942
-0.0459178
-0.83017
0.834794
0.0511912
-0.0560701
-0.978416
0.983295
0.0613783
-0.066064
-1.15509
1.15977
0.0708682
-0.0747869
-1.36406
1.36798
0.0783613
-0.0807651
-1.61096
1.61336
0.0820818
-0.0824074
-1.58988
1.5902
0.0820161
-0.0811788
-1.31544
1.3146
0.0801081
-0.0785515
-1.09552
1.09396
0.0770621
-0.0755907
-0.918803
0.917332
0.07372
-0.0705917
-0.768224
0.765096
0.0656914
-0.0577963
-0.607492
0.599597
0.0484798
-0.0370372
-0.408963
0.397521
0.026763
-0.0168045
-0.217026
0.207068
0.00960272
-0.0040275
-0.0833517
0.0777765
0.00108317
-0.0110152
0.00993203
-0.0376347
0.0396217
-0.00198695
0.0121831
-0.0183839
-0.249145
0.255346
0.0250389
-0.0304846
-0.416933
0.422379
0.0356733
-0.0400389
-0.578092
0.582458
0.044665
-0.0492826
-0.711179
0.715796
0.0549148
-0.0603366
-0.839471
0.844893
0.0664101
-0.0719385
-0.988149
0.993677
0.0778463
-0.0829481
-1.1644
1.1695
0.0880366
-0.0920374
-1.37174
1.37574
0.0954894
-0.0975793
-1.6155
1.61759
0.0984359
-0.0981951
-1.59015
1.58991
0.0972998
-0.0958959
-1.31307
1.31167
0.0943884
-0.0924133
-1.09217
1.0902
0.0905522
-0.0885379
-0.91523
0.913215
0.0861377
-0.0819117
-0.76146
0.757234
0.0755204
-0.0656107
-0.591465
0.581555
0.0543458
-0.0409518
-0.385538
0.372144
0.0292369
-0.0181204
-0.19668
0.185563
0.0102316
-0.00423475
-0.0720367
0.0660398
0.001122
-0.00884341
0.00772141
-0.0415786
0.0444416
-0.00286298
0.0171692
-0.0256317
-0.261769
0.270232
0.0345285
-0.0417328
-0.429381
0.436585
0.0485653
-0.054199
-0.588836
0.59447
0.0601223
-0.0658784
-0.72144
0.727196
0.0726438
-0.0789733
-0.850342
0.856671
0.0858986
-0.0920584
-0.99916
1.00532
0.0984773
-0.103857
-1.17445
1.17983
0.109023
-0.112881
-1.37947
1.38332
0.115938
-0.117454
-1.61927
1.62079
0.117613
-0.116596
-1.58918
1.58817
0.115033
-0.112972
-1.30951
1.30745
0.110958
-0.10853
-1.08783
1.0854
0.106284
-0.103596
-0.910388
0.9077
0.100498
-0.0948347
-0.752346
0.746683
0.086548
-0.0741221
-0.571311
0.558885
0.0604861
-0.0448021
-0.358176
0.342492
0.0314844
-0.0191766
-0.174038
0.16173
0.0106561
-0.00433382
-0.0599299
0.0536076
0.00112537
-0.0066102
0.00548482
-0.0471927
0.0515391
-0.00434641
0.0248942
-0.0364384
-0.278923
0.290467
0.0482556
-0.0577943
-0.446336
0.455875
0.0666578
-0.0737583
-0.602779
0.609879
0.0812217
-0.0884978
-0.733951
0.741228
0.0964608
-0.103618
-0.86298
0.870137
0.111231
-0.117804
-1.01133
1.0179
0.124419
-0.129738
-1.18489
1.19021
0.134571
-0.137894
-1.3867
1.39002
0.140117
-0.140669
-1.62169
1.62224
0.139795
-0.137745
-1.58652
1.58447
0.135342
-0.132495
-1.30454
1.30169
0.12989
-0.126971
-1.08236
1.07944
0.124225
-0.120861
-0.904098
0.900734
0.116742
-0.109137
-0.740132
0.732527
0.0983756
-0.082831
-0.545959
0.530414
0.0663868
-0.048135
-0.326286
0.308035
0.0331505
-0.0197456
-0.149139
0.135734
0.0107475
-0.00427316
-0.047275
0.0408006
0.00107934
-0.00439099
0.00331165
-0.0555576
0.0630175
-0.00745999
0.0384715
-0.0545037
-0.302769
0.318801
0.0704046
-0.0831669
-0.469442
0.482205
0.094215
-0.102683
-0.620359
0.628827
0.111647
-0.120201
-0.749108
0.757662
0.129093
-0.136665
-0.877082
0.884655
0.144379
-0.150759
-1.02405
1.03043
0.156883
-0.161494
-1.1949
1.19951
0.165309
-0.167471
-1.39254
1.3947
0.168274
-0.167403
-1.6219
1.62103
0.165138
-0.161753
-1.58165
1.57826
0.158285
-0.154473
-1.29789
1.29408
0.151201
-0.14779
-1.07562
1.0722
0.144446
-0.14021
-0.896116
0.891879
0.134537
-0.124227
-0.723643
0.713334
0.110216
-0.090856
-0.51407
0.49471
0.0713164
-0.0504396
-0.289465
0.268589
0.0339265
-0.0196973
-0.122365
0.108136
0.0104627
-0.00405008
-0.0344958
0.0280832
0.000984214
-0.002288
0.00130379
-0.0699631
0.07414
-0.00417692
0.0294688
-0.043358
-0.337332
0.351221
0.057449
-0.0691255
-0.500155
0.511832
0.0795901
-0.089342
-0.641169
0.650921
0.100241
-0.110223
-0.765795
0.775778
0.121324
-0.13124
-0.891351
0.901267
0.141828
-0.151265
-1.03587
1.04531
0.161132
-0.169603
-1.20303
1.2115
0.178034
-0.184781
-1.39571
1.40246
0.190817
-0.194803
-1.61897
1.62296
0.196717
-0.197154
-1.57389
1.57432
0.196462
-0.195147
-1.28922
1.28791
0.194111
-0.192657
-1.06739
1.06593
0.190893
-0.186646
-0.885724
0.881477
0.178673
-0.163018
-0.70118
0.685525
0.141574
-0.113161
-0.474273
0.44586
0.0860897
-0.0586272
-0.247742
0.22028
0.0381654
-0.0214453
-0.0945993
0.0778792
0.0110525
-0.00413836
-0.0221865
0.0152724
0.000969224
-0.00040261
-0.000566614
-0.0813714
0.0795185
0.00185289
0.00758273
-0.0167548
-0.367941
0.377113
0.0274697
-0.0357536
-0.52822
0.536504
0.0441651
-0.0524353
-0.663249
0.671519
0.0624657
-0.0718101
-0.785431
0.794775
0.0817696
-0.0908836
-0.910632
0.919746
0.100578
-0.108876
-1.05445
1.06275
0.117735
-0.124969
-1.21978
1.22702
0.132109
-0.137532
-1.4089
1.41432
0.14182
-0.144252
-1.62614
1.62857
0.144639
-0.143561
-1.57409
1.57301
0.141351
-0.138393
-1.28577
1.28282
0.135764
-0.13291
-1.06196
1.05911
0.129843
-0.12452
-0.872788
0.867465
0.115863
-0.101633
-0.665718
0.651487
0.0847147
-0.0643944
-0.415833
0.395513
0.046882
-0.0308703
-0.193472
0.17746
0.0197597
-0.0110863
-0.0623185
0.0536451
0.00578151
-0.00219707
-0.00871547
0.00513103
0.000461984
0.0016112
-0.00207319
-0.0828309
0.0798955
0.00293535
-0.0017386
-0.00358937
-0.388621
0.393949
0.0109096
-0.0168969
-0.548998
0.554985
0.023119
-0.0303612
-0.681933
0.689176
0.039033
-0.0471432
-0.803242
0.811352
0.0560122
-0.0639589
-0.928107
0.936053
0.0721555
-0.0795232
-1.07085
1.07822
0.0871618
-0.0934652
-1.23378
1.24008
0.0991962
-0.103295
-1.41902
1.42312
0.106424
-0.107555
-1.63024
1.63137
0.106665
-0.104322
-1.57128
1.56894
0.101105
-0.097253
-1.27945
1.2756
0.093359
-0.0892763
-1.05396
1.04987
0.0851065
-0.0791797
-0.857875
0.851948
0.0712115
-0.0594071
-0.63415
0.622346
0.0471145
-0.0339311
-0.373645
0.360461
0.0240062
-0.0157993
-0.161279
0.153072
0.0103777
-0.00617194
-0.0451935
0.0409877
0.00342933
-0.00129489
-0.00169879
-0.000435645
0.00030229
0.00274524
-0.00304753
-0.0815213
0.0787299
0.00279135
-0.00548166
0.00293816
-0.402394
0.404937
0.00179692
-0.00632195
-0.564331
0.568856
0.0115541
-0.0176099
-0.697342
0.703397
0.0249903
-0.0319163
-0.818833
0.825759
0.0394795
-0.0462761
-0.943457
0.950254
0.0536576
-0.0598673
-1.08513
1.09134
0.0664737
-0.0714313
-1.24593
1.25088
0.0761914
-0.0794147
-1.42693
1.43016
0.0814136
-0.0813009
-1.63196
1.63185
0.0795999
-0.076465
-1.56595
1.56281
0.0725348
-0.0675234
-1.27127
1.26625
0.0628231
-0.0577088
-1.04398
1.03886
0.0525392
-0.0466456
-0.841834
0.835941
0.0395245
-0.0305477
-0.607836
0.598859
0.0223659
-0.0149844
-0.34615
0.338769
0.0103117
-0.00696983
-0.144085
0.140743
0.00490106
-0.00325848
-0.0363126
0.03467
0.00195515
-0.000815519
0.00253905
-0.00367868
0.000212799
0.00360198
-0.00381478
-0.0799264
0.0774302
0.00249621
-0.00672451
0.00584018
-0.411514
0.412399
-0.002371
-0.000865728
-0.576592
0.579829
0.00509599
-0.0105703
-0.710225
0.7157
0.0167406
-0.0227882
-0.831985
0.838033
0.0293001
-0.0351579
-0.956573
0.962431
0.0414313
-0.0468853
-1.09737
1.10283
0.052392
-0.056812
-1.25565
1.26007
0.060718
-0.0631862
-1.43294
1.43541
0.0643792
-0.0635325
-1.63145
1.6306
0.0611496
-0.0571432
-1.55885
1.55485
0.0526308
-0.0471255
-1.26098
1.25547
0.0418022
-0.0357953
-1.03237
1.02637
0.0301904
-0.0241799
-0.826173
0.820163
0.0182233
-0.0115164
-0.587708
0.581002
0.0065005
-0.00307907
-0.329843
0.326422
0.0016362
-0.00116357
-0.135998
0.135526
0.00110049
-0.00101446
-0.0323492
0.0322632
0.000731122
-0.000359003
0.00495493
-0.00532705
0.000112319
0.00426043
-0.00437275
-0.0784008
0.0762401
0.00216067
-0.00670317
0.00638009
-0.417669
0.417992
-0.00434124
0.00174694
-0.585946
0.58854
0.00229315
-0.00694931
-0.721089
0.725746
0.0122181
-0.0174399
-0.843285
0.848507
0.0231876
-0.0283709
-0.967912
0.973096
0.0340344
-0.0387339
-1.10796
1.11266
0.0435738
-0.047417
-1.26414
1.26799
0.0506669
-0.0525652
-1.43753
1.43943
0.0531411
-0.0521279
-1.62955
1.62854
0.0492231
-0.0449017
-1.55027
1.54595
0.0399825
-0.0340344
-1.2496
1.24366
0.0285312
-0.0219435
-1.0195
1.01291
0.0159621
-0.00992998
-0.811108
0.805076
0.00469672
0.0003245
-0.572221
0.5672
-0.00335764
0.00456265
-0.320686
0.319481
-0.00404317
0.00296223
-0.133505
0.134586
-0.00195844
0.000952999
-0.0317341
0.0327395
-0.000401298
9.68849e-05
0.00576035
-0.00545594
-1.41153e-06
0.00464757
-0.00464616
-0.0771812
0.0754732
0.00170794
-0.00590222
0.00595927
-0.422112
0.422055
-0.00436702
0.0024603
-0.594029
0.595935
0.00126914
-0.00545525
-0.730418
0.734604
0.0104132
-0.0148733
-0.853318
0.857778
0.0198756
-0.0244186
-0.978221
0.982764
0.0297152
-0.0339046
-1.11736
1.12154
0.038097
-0.0416046
-1.27159
1.2751
0.0448201
-0.0463557
-1.44127
1.44281
0.046705
-0.0453215
-1.62703
1.62565
0.0424692
-0.0376712
-1.54129
1.53649
0.0327411
-0.0267691
-1.23742
1.23145
0.0209619
-0.014401
-1.00588
0.999317
0.00825558
-0.00193475
-0.796623
0.790303
-0.00238806
0.00641876
-0.559663
0.555633
-0.00866351
0.00877349
-0.315607
0.315497
-0.00755294
0.00582501
-0.134254
0.135982
-0.00415293
0.00245604
-0.0333269
0.0350238
-0.00130328
0.00049313
0.00517159
-0.00436145
-0.000105598
0.00472277
-0.00461717
-0.0764462
0.075086
0.00136018
-0.00487891
0.0050972
-0.425509
0.42529
-0.00374501
0.00195381
-0.600972
0.602764
0.00158323
-0.00528091
-0.738727
0.742425
0.00948748
-0.0137474
-0.862164
0.866424
0.0183164
-0.0229381
-0.987085
0.991707
0.0274259
-0.0313498
-1.12579
1.12972
0.0355658
-0.0387116
-1.27843
1.28158
0.041294
-0.0430798
-1.44419
1.44597
0.0433875
-0.0420396
-1.62424
1.62289
0.0390744
-0.0345568
-1.53181
1.52729
0.0296776
-0.0237387
-1.22508
1.21914
0.018054
-0.0115353
-0.992337
0.985818
0.0055032
0.000511027
-0.782588
0.776574
-0.00495869
0.00846053
-0.548885
0.545383
-0.0103202
0.0103836
-0.312612
0.312548
-0.00906404
0.00706703
-0.136285
0.138282
-0.00524339
0.00328575
-0.0362078
0.0381654
-0.00183876
0.000757128
0.00357941
-0.00249777
-0.000183203
0.00453325
-0.00435005
-0.0762315
0.0750875
0.00114396
-0.00363257
0.00364047
-0.42846
0.428452
-0.00260285
0.000865644
-0.607263
0.609
0.00249581
-0.00603105
-0.746364
0.749899
0.010027
-0.0138398
-0.870443
0.874256
0.0184753
-0.022251
-0.99572
0.999495
0.0266412
-0.0303131
-1.13376
1.13743
0.0343253
-0.0375743
-1.28466
1.28791
0.0403238
-0.0417594
-1.44746
1.4489
0.0422412
-0.0411131
-1.62141
1.62028
0.0385946
-0.0341791
-1.5226
1.51818
0.029557
-0.0238323
-1.21327
1.20755
0.0183763
-0.0120123
-0.97891
0.972546
0.00627658
-0.000246227
-0.769198
0.763168
-0.00418348
0.00754214
-0.539101
0.535742
-0.0094522
0.00980074
-0.31004
0.309691
-0.0089603
0.00729273
-0.138628
0.140295
-0.00561396
0.00366152
-0.0395173
0.0414697
-0.00212988
0.000951295
0.00146543
-0.000286849
-0.000259087
0.0041722
-0.00391311
-0.076293
0.0754827
0.000810309
-0.00248756
0.00204417
-0.431442
0.431885
-0.00116875
-0.000653443
-0.612744
0.614566
0.00366144
-0.00702709
-0.753426
0.756792
0.0108206
-0.0147291
-0.877903
0.881812
0.0187015
-0.0225957
-1.00345
1.00734
0.0268956
-0.0303045
-1.1415
1.14491
0.0343395
-0.0374708
-1.29092
1.29405
0.0401896
-0.0420627
-1.4507
1.45257
0.0429137
-0.0419424
-1.61914
1.61817
0.0395395
-0.0357129
-1.51391
1.51008
0.0315332
-0.0260914
-1.20171
1.19626
0.0208383
-0.0150042
-0.966044
0.96021
0.0091801
-0.0035259
-0.756109
0.750454
-0.00113878
0.00468841
-0.529756
0.526207
-0.00654616
0.00744633
-0.30702
0.30612
-0.00721023
0.00621839
-0.140384
0.141376
-0.0049395
0.00336341
-0.0426235
0.0441996
-0.0020463
0.000934961
-0.000772235
0.00188357
-0.000268239
0.00368581
-0.00341757
-0.076775
0.0761318
0.000643106
-0.00151522
0.00115051
-0.434616
0.434981
0.000207949
-0.00202523
-0.618236
0.620053
0.005155
-0.00836063
-0.759922
0.763127
0.0119761
-0.0154535
-0.88536
0.888838
0.0195188
-0.023064
-1.01122
1.01476
0.0272747
-0.0310823
-1.14874
1.15255
0.0347049
-0.0381167
-1.29719
1.3006
0.041194
-0.0430908
-1.4543
1.4562
0.0442316
-0.0439616
-1.61739
1.61712
0.0419189
-0.038644
-1.50611
1.50284
0.0346399
-0.029667
-1.19089
1.18592
0.0248731
-0.0192657
-0.953955
0.948348
0.0138842
-0.0083424
-0.743669
0.738127
0.00365815
0.000469674
-0.520227
0.516099
-0.00280235
0.00415516
-0.303156
0.301803
-0.00464028
0.00431609
-0.140952
0.141276
-0.00362565
0.00260799
-0.044933
0.0459507
-0.00166015
0.000788476
-0.00271496
0.00358663
-0.000242699
0.00319078
-0.00294808
-0.0775445
0.0770836
0.000460927
-0.000461249
-4.69245e-07
-0.437969
0.43843
0.0014395
-0.00352508
-0.62343
0.625515
0.0065452
-0.00957481
-0.766137
0.769166
0.013262
-0.0165672
-0.892271
0.895576
0.0204505
-0.0240968
-1.01877
1.02241
0.028182
-0.031927
-1.15618
1.15993
0.0357389
-0.0391416
-1.3039
1.3073
0.0423622
-0.0449648
-1.45835
1.46095
0.0464917
-0.0464558
-1.61675
1.61671
0.0450481
-0.0420552
-1.49944
1.49645
0.0386087
-0.0342235
-1.18093
1.17655
0.0295628
-0.0242838
-0.942491
0.937212
0.019164
-0.0136053
-0.731688
0.726129
0.00894383
-0.00439163
-0.51046
0.505908
0.00154405
0.000516003
-0.298279
0.296219
-0.00161121
0.00201485
-0.140136
0.139733
-0.00196978
0.00155773
-0.0460997
0.0465117
-0.00106731
0.000542557
-0.00409077
0.00461552
-0.000179056
0.00276642
-0.00258737
-0.0785524
0.0782272