/*--------------------------------*- C++ -*----------------------------------*\
  =========                 |
  \\      /  F ield         | OpenFOAM: The Open Source CFD Toolbox
   \\    /   O peration     | Website:  https://openfoam.org
    \\  /    A nd           | Version:  10
     \\/     M anipulation  |
\*---------------------------------------------------------------------------*/
FoamFile
{
    format      ascii;
    class       volVectorField;
    location    "68";
    object      U;
}
// * * * * * * * * * * * * * * * * * * * * * * * * * * * * * * * * * * * * * //

dimensions      [0 1 -1 0 0 0 0];

internalField   nonuniform List<vector> 
8800
(
(0.980136 -0.0915202 0)
(1.00234 -0.0587302 0)
(0.999584 -0.0321285 0)
(0.999985 -0.0165212 0)
(1.00009 -0.00884045 0)
(1.00011 -0.00509541 0)
(1.00007 -0.00299115 0)
(1.00002 -0.00167981 0)
(0.999999 -0.000777632 0)
(1.00007 -7.79659e-05 0)
(0.999978 0.000631666 0)
(0.999988 0.00138977 0)
(1.00003 0.00241255 0)
(1.00005 0.00400973 0)
(1.00004 0.00675245 0)
(0.999999 0.0120527 0)
(0.999806 0.023095 0)
(0.999033 0.0431553 0)
(1.00724 0.0790248 0)
(0.775026 0.0478395 0)
(0.358998 -0.014748 0)
(1.04651 -0.0724773 0)
(1.08848 -0.0660133 0)
(1.04944 -0.0509048 0)
(1.02556 -0.0376816 0)
(1.01277 -0.0258736 0)
(1.0066 -0.0166741 0)
(1.00364 -0.0101801 0)
(1.00219 -0.0055448 0)
(1.00151 -0.00194643 0)
(1.00137 0.00126817 0)
(1.00172 0.0045801 0)
(1.0027 0.00846846 0)
(1.00476 0.0137713 0)
(1.00898 0.0214405 0)
(1.01794 0.031926 0)
(1.03579 0.0446935 0)
(1.06742 0.0581315 0)
(1.09468 0.0699501 0)
(0.845607 0.0555091 0)
(0.217819 -0.00137961 0)
(1.0757 -0.0506316 0)
(1.09943 -0.0489099 0)
(1.06441 -0.0399883 0)
(1.03994 -0.0325232 0)
(1.02385 -0.0253019 0)
(1.01406 -0.0180728 0)
(1.00853 -0.0114414 0)
(1.00566 -0.0056756 0)
(1.00448 -0.000377957 0)
(1.00477 0.00473626 0)
(1.00661 0.0100249 0)
(1.01057 0.0159827 0)
(1.01789 0.022721 0)
(1.03048 0.0298134 0)
(1.05046 0.0368909 0)
(1.08002 0.0446583 0)
(1.10563 0.0519723 0)
(0.94321 0.0410256 0)
(0.217146 0.00140692 0)
(0.176697 -0.00062764 0)
(1.01947 -0.0354364 0)
(1.10576 -0.041368 0)
(1.07803 -0.0363425 0)
(1.05252 -0.0302875 0)
(1.0353 -0.0243985 0)
(1.02342 -0.0185887 0)
(1.01559 -0.0125757 0)
(1.01096 -0.00646572 0)
(1.0089 -0.000217393 0)
(1.00941 0.00594417 0)
(1.01247 0.0118583 0)
(1.01845 0.0176089 0)
(1.02805 0.023159 0)
(1.04222 0.0286926 0)
(1.06303 0.0344588 0)
(1.09382 0.0403302 0)
(1.09436 0.0418368 0)
(0.830047 0.0228013 0)
(0.175547 0.000649597 0)
(0.154816 -0.000461333 0)
(0.958335 -0.0256563 0)
(1.10449 -0.0350568 0)
(1.08816 -0.0325935 0)
(1.06136 -0.028073 0)
(1.04332 -0.0230938 0)
(1.03091 -0.0177726 0)
(1.02229 -0.0122107 0)
(1.01671 -0.0062812 0)
(1.01402 0.000186762 0)
(1.01463 0.00665085 0)
(1.01839 0.012521 0)
(1.0252 0.0178138 0)
(1.03533 0.0227873 0)
(1.05003 0.0275914 0)
(1.07196 0.0320123 0)
(1.10092 0.0358703 0)
(1.06954 0.0340514 0)
(0.742258 0.0144848 0)
(0.153091 0.000485952 0)
(0.140165 -0.000333073 0)
(0.901429 -0.0192845 0)
(1.09696 -0.0301469 0)
(1.09634 -0.0292491 0)
(1.06911 -0.0254492 0)
(1.05028 -0.0213431 0)
(1.03728 -0.0166199 0)
(1.02827 -0.0113459 0)
(1.02229 -0.00559958 0)
(1.01925 0.000774098 0)
(1.01982 0.00715206 0)
(1.02379 0.012798 0)
(1.03083 0.0177501 0)
(1.04132 0.0221783 0)
(1.05665 0.026101 0)
(1.07943 0.0295924 0)
(1.10318 0.0322822 0)
(1.03765 0.028237 0)
(0.675282 0.0103466 0)
(0.137733 0.000362306 0)
(0.129465 -0.000251432 0)
(0.851683 -0.0148806 0)
(1.08469 -0.0260314 0)
(1.10207 -0.0263507 0)
(1.07598 -0.0230088 0)
(1.05663 -0.0193297 0)
(1.04321 -0.015105 0)
(1.03382 -0.0102127 0)
(1.02755 -0.00468497 0)
(1.02429 0.00150536 0)
(1.02473 0.00766664 0)
(1.02869 0.0130293 0)
(1.03589 0.0175566 0)
(1.04666 0.0213747 0)
(1.06234 0.024695 0)
(1.08557 0.0277033 0)
(1.10233 0.0294855 0)
(1.0028 0.023723 0)
(0.623039 0.00795346 0)
(0.126169 0.000286991 0)
(0.121323 -0.000192415 0)
(0.809338 -0.0116882 0)
(1.06948 -0.0224212 0)
(1.10565 -0.0236986 0)
(1.08227 -0.0208051 0)
(1.06247 -0.0173497 0)
(1.04877 -0.0134041 0)
(1.03912 -0.00882963 0)
(1.03257 -0.00357228 0)
(1.02906 0.0023878 0)
(1.02932 0.00828047 0)
(1.03323 0.0132872 0)
(1.04047 0.0173519 0)
(1.05133 0.0206909 0)
(1.06726 0.0236141 0)
(1.09087 0.026302 0)
(1.0986 0.0271698 0)
(0.967493 0.0201813 0)
(0.58103 0.00639685 0)
(0.116977 0.000235607 0)
(0.115025 -0.000147572 0)
(0.773676 -0.00929681 0)
(1.05274 -0.0192396 0)
(1.10806 -0.0212439 0)
(1.08818 -0.0187287 0)
(1.06797 -0.0154308 0)
(1.05402 -0.0116498 0)
(1.04417 -0.00727277 0)
(1.03739 -0.00225035 0)
(1.0336 0.00345251 0)
(1.03363 0.00903744 0)
(1.0374 0.0136653 0)
(1.04457 0.0173231 0)
(1.05544 0.0202783 0)
(1.07159 0.022868 0)
(1.09489 0.0252035 0)
(1.09202 0.0252598 0)
(0.933066 0.017448 0)
(0.546243 0.0053326 0)
(0.109401 0.000199983 0)
(0.110123 -0.000112083 0)
(0.743773 -0.00744188 0)
(1.03556 -0.0164146 0)
(1.10952 -0.0189318 0)
(1.09381 -0.0167252 0)
(1.0733 -0.0135236 0)
(1.05906 -0.00983719 0)
(1.04901 -0.00558044 0)
(1.04201 -0.000724395 0)
(1.03793 0.00473347 0)
(1.03766 0.00999801 0)
(1.04119 0.014264 0)
(1.04823 0.0175566 0)
(1.05907 0.0201605 0)
(1.07543 0.0224587 0)
(1.09761 0.0244171 0)
(1.08296 0.0237027 0)
(0.900102 0.0153748 0)
(0.516604 0.00459273 0)
(0.102947 0.00017556 0)
(0.106326 -8.27172e-05 0)
(0.718811 -0.00594657 0)
(1.01876 -0.0138752 0)
(1.11016 -0.0166939 0)
(1.09932 -0.0147656 0)
(1.07854 -0.0115793 0)
(1.064 -0.00792522 0)
(1.05372 -0.00372997 0)
(1.04646 0.00101751 0)
(1.04205 0.00627099 0)
(1.04141 0.0112361 0)
(1.04463 0.0151636 0)
(1.05148 0.0181089 0)
(1.06228 0.0203722 0)
(1.07883 0.022406 0)
(1.09897 0.0239569 0)
(1.07182 0.0224944 0)
(0.868719 0.0138487 0)
(0.490638 0.00408553 0)
(0.097264 0.000159781 0)
(0.103443 -5.72759e-05 0)
(0.698145 -0.00469255 0)
(1.00296 -0.011555 0)
(1.11013 -0.0144927 0)
(1.10469 -0.0127629 0)
(1.08379 -0.00954277 0)
(1.06892 -0.00586184 0)
(1.05837 -0.0016658 0)
(1.0508 0.0030242 0)
(1.04599 0.00812257 0)
(1.04489 0.0128187 0)
(1.04773 0.0164192 0)
(1.05435 0.019025 0)
(1.06507 0.020953 0)
(1.08177 0.0227294 0)
(1.0993 0.0238781 0)
(1.05886 0.0216491 0)
(0.838755 0.0127805 0)
(0.46724 0.00375416 0)
(0.0920887 0.000150792 0)
(0.101352 -3.38212e-05 0)
(0.681304 -0.00359147 0)
(0.988628 -0.00938422 0)
(1.10963 -0.0122438 0)
(1.10988 -0.0106291 0)
(1.08911 -0.00735435 0)
(1.07389 -0.00358783 0)
(1.06302 0.000673806 0)
(1.05507 0.0053626 0)
(1.04976 0.0103591 0)
(1.04811 0.0148199 0)
(1.0505 0.0181039 0)
(1.05684 0.0203686 0)
(1.06746 0.0219569 0)
(1.08421 0.0234612 0)
(1.09861 0.0241818 0)
(1.04424 0.0211796 0)
(0.80988 0.0120994 0)
(0.445546 0.00356033 0)
(0.0872164 0.000147136 0)
(0.0999914 -1.06492e-05 0)
(0.667983 -0.00257396 0)
(0.976121 -0.00728838 0)
(1.109 -0.00988733 0)
(1.11502 -0.0083048 0)
(1.0946 -0.00494037 0)
(1.07899 -0.00102239 0)
(1.06775 0.00336702 0)
(1.05933 0.00811988 0)
(1.05341 0.0130644 0)
(1.05109 0.0173146 0)
(1.05294 0.0202887 0)
(1.05895 0.0222 0)
(1.06943 0.02343 0)
(1.0862 0.0246696 0)
(1.09667 0.0249298 0)
(1.02799 0.0210761 0)
(0.781657 0.0117516 0)
(0.424845 0.00347878 0)
(0.0824807 0.00014781 0)
(0.0993438 1.43834e-05 0)
(0.658025 -0.00158584 0)
(0.965757 -0.00519594 0)
(1.10854 -0.00735953 0)
(1.12026 -0.00571537 0)
(1.10034 -0.00221008 0)
(1.08431 0.00192554 0)
(1.07261 0.00651093 0)
(1.06362 0.0113973 0)
(1.05696 0.0163391 0)
(1.05385 0.0203975 0)
(1.05504 0.0230642 0)
(1.06065 0.024609 0)
(1.07097 0.0254677 0)
(1.08765 0.0264024 0)
(1.09345 0.0261354 0)
(1.01009 0.0213737 0)
(0.753603 0.0117078 0)
(0.404545 0.00349433 0)
(0.0777457 0.000152267 0)
(0.0994276 3.56786e-05 0)
(0.651398 -0.000581048 0)
(0.957839 -0.00303514 0)
(1.10861 -0.00458871 0)
(1.12575 -0.00277722 0)
(1.10643 0.000928395 0)
(1.08993 0.00535685 0)
(1.07768 0.0102193 0)
(1.06801 0.0153127 0)
(1.06045 0.0203082 0)
(1.05637 0.0241967 0)
(1.05679 0.0265443 0)
(1.06192 0.02771 0)
(1.07204 0.0281763 0)
(1.08833 0.0287391 0)
(1.08869 0.0278372 0)
(0.990354 0.022108 0)
(0.725171 0.0119539 0)
(0.384105 0.00359852 0)
(0.072888 0.000160087 0)
(0.100289 7.13275e-05 0)
(0.648179 0.000453311 0)
(0.952683 -0.000734478 0)
(1.10957 -0.00149138 0)
(1.13169 0.000612084 0)
(1.11298 0.00459988 0)
(1.09596 0.00941259 0)
(1.08306 0.0146389 0)
(1.07254 0.0200158 0)
(1.06391 0.0251166 0)
(1.05867 0.028848 0)
(1.05816 0.0308557 0)
(1.06272 0.031625 0)
(1.07258 0.0316715 0)
(1.08811 0.0318108 0)
(1.08211 0.0301403 0)
(0.968499 0.023307 0)
(0.695757 0.0124795 0)
(0.363015 0.00378295 0)
(0.0677972 0.00017073 0)
(0.10213 0.000104127 0)
(0.648761 0.00162268 0)
(0.950654 0.00180434 0)
(1.11186 0.00204686 0)
(1.1383 0.00453713 0)
(1.12013 0.00895181 0)
(1.10252 0.014248 0)
(1.08884 0.0199358 0)
(1.07729 0.0256788 0)
(1.06734 0.0309322 0)
(1.06072 0.0345092 0)
(1.05912 0.0361415 0)
(1.063 0.0364907 0)
(1.07254 0.0360815 0)
(1.08673 0.0357326 0)
(1.07346 0.0331226 0)
(0.944114 0.0250084 0)
(0.66472 0.0132783 0)
(0.3408 0.00404051 0)
(0.0623787 0.000183422 0)
(0.105012 0.000152593 0)
(0.653593 0.00308525 0)
(0.952228 0.00472909 0)
(1.11595 0.00612717 0)
(1.1458 0.00917673 0)
(1.12805 0.0141608 0)
(1.10976 0.0200604 0)
(1.09511 0.0263247 0)
(1.0823 0.032521 0)
(1.07076 0.0379673 0)
(1.0625 0.0413664 0)
(1.05963 0.0425732 0)
(1.06269 0.0424717 0)
(1.07185 0.0415537 0)
(1.08403 0.0406906 0)
(1.06234 0.0369014 0)
(0.916643 0.0272551 0)
(0.631353 0.0143455 0)
(0.317003 0.00436335 0)
(0.0565514 0.000197534 0)
(0.109215 0.000215633 0)
(0.663071 0.004778 0)
(0.957862 0.00817894 0)
(1.12235 0.0109283 0)
(1.15447 0.0147333 0)
(1.13695 0.0204693 0)
(1.11782 0.0271199 0)
(1.10198 0.0340851 0)
(1.08762 0.0408148 0)
(1.07416 0.0464667 0)
(1.06398 0.0496319 0)
(1.05963 0.0503432 0)
(1.06173 0.0497452 0)
(1.07041 0.0482539 0)
(1.08008 0.0467869 0)
(1.04824 0.041584 0)
(0.885379 0.0300736 0)
(0.594902 0.0156597 0)
(0.291202 0.00473577 0)
(0.0502575 0.000211644 0)
(0.115079 0.000300104 0)
(0.677974 0.00687911 0)
(0.968187 0.0123543 0)
(1.13162 0.0166929 0)
(1.16469 0.0214719 0)
(1.14709 0.0281913 0)
(1.12691 0.0357621 0)
(1.10957 0.04356 0)
(1.09328 0.0508831 0)
(1.07751 0.0567104 0)
(1.06506 0.0595492 0)
(1.05895 0.0596415 0)
(1.06003 0.058493 0)
(1.06822 0.05638 0)
(1.07461 0.0542126 0)
(1.03052 0.0472441 0)
(0.849454 0.0334534 0)
(0.55459 0.017172 0)
(0.263057 0.00513132 0)
(0.0434762 0.000223924 0)
(0.12311 0.000422363 0)
(0.699274 0.00963513 0)
(0.984081 0.0175675 0)
(1.14443 0.0237681 0)
(1.17693 0.0297896 0)
(1.15878 0.0377849 0)
(1.13721 0.0464689 0)
(1.11795 0.0552161 0)
(1.09925 0.0631355 0)
(1.08071 0.0690239 0)
(1.06564 0.0713614 0)
(1.05754 0.0706933 0)
(1.05751 0.0688683 0)
(1.06516 0.0660572 0)
(1.06728 0.0629809 0)
(1.00829 0.0539439 0)
(0.807854 0.0373372 0)
(0.509682 0.0187962 0)
(0.232371 0.00551078 0)
(0.036242 0.000231971 0)
(0.134037 0.000595411 0)
(0.728191 0.0134152 0)
(1.00671 0.0242923 0)
(1.16156 0.0327063 0)
(1.1918 0.0402933 0)
(1.17237 0.0499385 0)
(1.14889 0.0599238 0)
(1.12711 0.0696642 0)
(1.10541 0.0780625 0)
(1.08358 0.0837614 0)
(1.06556 0.0853251 0)
(1.0553 0.0837091 0)
(1.05406 0.0810944 0)
(1.06091 0.0774131 0)
(1.05735 0.0732719 0)
(0.98044 0.0616467 0)
(0.759453 0.0415835 0)
(0.459587 0.0203893 0)
(0.199179 0.00581902 0)
(0.028663 0.00023295 0)
(0.149119 0.000873926 0)
(0.766765 0.0188323 0)
(1.03774 0.0333197 0)
(1.18396 0.0444556 0)
(1.21009 0.0541514 0)
(1.18819 0.0656849 0)
(1.162 0.0770723 0)
(1.13691 0.0876753 0)
(1.11151 0.0962203 0)
(1.08585 0.101286 0)
(1.06458 0.101669 0)
(1.05206 0.0988325 0)
(1.04956 0.0952869 0)
(1.05513 0.0908262 0)
(1.04401 0.0851442 0)
(0.945547 0.0701841 0)
(0.703139 0.0459148 0)
(0.404064 0.0217412 0)
(0.163882 0.00598626 0)
(0.0209392 0.000223841 0)
(0.170574 0.00135599 0)
(0.818283 0.0270574 0)
(1.07978 0.0462294 0)
(1.21277 0.0608893 0)
(1.23235 0.0733507 0)
(1.20631 0.0866329 0)
(1.17628 0.0992256 0)
(1.14691 0.110183 0)
(1.11708 0.118204 0)
(1.08713 0.121926 0)
(1.0624 0.120549 0)
(1.04763 0.11615 0)
(1.04393 0.111502 0)
(1.04782 0.10619 0)
(1.02609 0.0984886 0)
(0.901839 0.0791659 0)
(0.638103 0.0499064 0)
(0.343582 0.0225922 0)
(0.127405 0.00594073 0)
(0.0133799 0.000201515 0)
(0.201835 0.00242677 0)
(0.888522 0.0408186 0)
(1.13644 0.0668912 0)
(1.24839 0.0855757 0)
(1.25835 0.10067 0)
(1.22613 0.115156 0)
(1.19091 0.127991 0)
(1.15629 0.138168 0)
(1.12142 0.144545 0)
(1.08688 0.145912 0)
(1.0587 0.142031 0)
(1.04182 0.135665 0)
(1.03703 0.129708 0)
(1.03849 0.123355 0)
(1.00197 0.112906 0)
(0.847262 0.08786 0)
(0.564491 0.052999 0)
(0.280054 0.022759 0)
(0.091564 0.00567251 0)
(0.00649506 0.000166504 0)
(0.244419 0.00872984 4.63199e-20)
(0.981591 0.0682862 4.0468e-20)
(1.20548 0.101514 -1.41518e-20)
(1.28778 0.122065 0)
(1.28528 0.1397 -3.61891e-34)
(1.2455 0.153575 5.29191e-21)
(1.20432 0.164871 -9.53266e-21)
(1.16394 0.172848 0)
(1.12368 0.176494 1.95937e-34)
(1.08433 0.174701 -1.17991e-20)
(1.05253 0.167836 0)
(1.03345 0.159346 -1.40249e-20)
(1.02785 0.152311 -4.13879e-20)
(1.02584 0.145664 -1.95557e-20)
(0.967461 0.130869 -5.88773e-21)
(0.775455 0.0976548 -3.49855e-21)
(0.47713 0.0554889 0)
(0.211957 0.0226183 2.44468e-21)
(0.0563718 0.0054531 2.88595e-21)
(0.000250582 0.00012778 5.20623e-20)
(0.274256 0.0243661 3.34562e-20)
(1.05843 0.111224 5.45516e-22)
(1.26242 0.15086 3.75306e-21)
(1.32303 0.171624 0)
(1.30892 0.189029 -1.82847e-20)
(1.26212 0.200721 -2.07949e-20)
(1.21505 0.209688 -9.59961e-21)
(1.16887 0.215176 -3.41817e-20)
(1.12304 0.216038 0)
(1.07848 0.211144 5.01536e-20)
(1.04263 0.201397 4.97474e-20)
(1.02117 0.190829 1.47713e-20)
(1.01346 0.182084 5.39169e-20)
(1.00286 0.173258 7.58278e-20)
(0.912747 0.151697 0)
(0.677909 0.107582 1.06837e-19)
(0.3742 0.0573621 1.5312e-19)
(0.141151 0.0217176 1.69969e-19)
(0.020946 0.00400803 -1.94266e-19)
(-0.00615117 -0.000508169 -3.66124e-21)
(0.275276 0.0403334 0)
(1.10699 0.166851 5.78367e-21)
(1.30078 0.211567 0)
(1.35042 0.231755 -2.35189e-20)
(1.32749 0.246047 0)
(1.2748 0.253851 -4.06912e-20)
(1.22222 0.259071 1.95586e-20)
(1.17054 0.260951 -6.86292e-20)
(1.11943 0.258149 -1.5863e-21)
(1.06993 0.249491 2.58898e-20)
(1.03027 0.236402 1.09214e-19)
(1.0065 0.22339 -2.09529e-22)
(0.996425 0.212751 -3.91203e-20)
(0.976874 0.200851 -7.1247e-20)
(0.86321 0.171417 8.42832e-20)
(0.60763 0.116285 -1.49167e-19)
(0.313508 0.0589731 -1.96644e-20)
(0.103979 0.0205088 0)
(0.00267556 0.00176756 -1.34253e-23)
(-0.00974408 -0.00137459 0)
(0.268732 0.0541316 7.23478e-20)
(1.13313 0.225753 -3.57984e-20)
(1.3244 0.276729 -2.81501e-20)
(1.36858 0.297047 1.10134e-20)
(1.33955 0.307375 -1.85494e-20)
(1.28245 0.310626 8.50726e-20)
(1.22534 0.311404 4.07118e-20)
(1.16892 0.309011 0)
(1.11309 0.301976 -1.29474e-19)
(1.05907 0.289056 0)
(1.01586 0.27222 -5.7208e-20)
(0.989877 0.256465 -7.06912e-20)
(0.977442 0.243505 -4.25194e-20)
(0.950323 0.227848 -5.16472e-20)
(0.822695 0.190679 0)
(0.561945 0.126053 0)
(0.281043 0.0623997 -1.27805e-19)
(0.0845207 0.0198013 2.52208e-20)
(-0.00839956 -0.000780214 -1.47675e-20)
(-0.0124981 -0.00244115 -1.72758e-20)
(0.260888 0.0662941 -2.62428e-20)
(1.14448 0.284452 0)
(1.33731 0.342765 5.595e-20)
(1.37848 0.363709 3.05999e-20)
(1.3452 0.370158 4.30741e-20)
(1.2849 0.368822 0)
(1.22422 0.365031 3.96671e-20)
(1.1639 0.358165 7.57003e-20)
(1.104 0.346656 6.61947e-20)
(1.04595 0.32921 1.21685e-19)
(0.999435 0.308372 0)
(0.971264 0.289625 -1.52248e-19)
(0.956494 0.274095 -9.17024e-20)
(0.923548 0.254555 -5.42214e-20)
(0.789744 0.210455 3.31542e-19)
(0.533344 0.137722 3.93459e-20)
(0.265123 0.0677441 1.84728e-19)
(0.0760975 0.0199749 -8.73775e-19)
(-0.0141273 -0.00314178 5.16213e-19)
(-0.0144682 -0.00357551 -6.22146e-19)
(0.253277 0.0772319 -9.21605e-21)
(1.14631 0.341068 4.65769e-21)
(1.34242 0.407751 -5.66415e-21)
(1.38173 0.429841 -2.98118e-20)
(1.3454 0.43265 -3.56696e-20)
(1.2827 0.426902 1.80217e-21)
(1.21921 0.41869 -4.2978e-20)
(1.15569 0.407411 7.81379e-20)
(1.09231 0.391433 -1.42386e-19)
(1.03065 0.369414 0)
(0.981067 0.344466 -6.89327e-20)
(0.950708 0.322583 -1.59051e-21)
(0.933655 0.304397 -1.00317e-19)
(0.896713 0.281094 0)
(0.762278 0.230942 -7.1761e-20)
(0.5154 0.151292 -1.70045e-19)
(0.259553 0.075242 4.52347e-19)
(0.0758183 0.0216892 -4.45733e-19)
(-0.015044 -0.0046647 6.31963e-19)
(-0.0153861 -0.00457935 -6.56634e-19)
(0.24677 0.087293 -4.20479e-22)
(1.14216 0.394933 -5.13236e-22)
(1.34187 0.47069 -1.36153e-20)
(1.37975 0.494236 1.13542e-20)
(1.34121 0.493801 -1.7842e-20)
(1.2767 0.483928 0)
(1.21095 0.471548 -3.97509e-20)
(1.14474 0.456051 -8.17589e-20)
(1.07834 0.43575 -7.39508e-20)
(1.01343 0.409242 0)
(0.960973 0.380185 -7.14764e-20)
(0.928479 0.355152 -8.86001e-20)
(0.90929 0.334278 1.08824e-19)
(0.869629 0.307379 -6.59928e-20)
(0.737752 0.252165 -3.13467e-19)
(0.502797 0.166423 1.85702e-19)
(0.259311 0.0843062 5.49986e-20)
(0.0800183 0.024978 0)
(-0.0122537 -0.00495109 -6.11576e-19)
(-0.0152265 -0.00524825 -2.24472e-20)
(0.241492 0.096791 1.94599e-21)
(1.13437 0.445863 -2.24905e-21)
(1.33719 0.531116 5.93876e-21)
(1.3738 0.556181 4.15122e-20)
(1.33358 0.55295 -6.46942e-20)
(1.2677 0.539324 7.91023e-20)
(1.20011 0.52308 8.56783e-20)
(1.13162 0.503629 -1.30654e-19)
(1.06254 0.479229 4.57961e-20)
(0.994672 0.448393 -2.99194e-19)
(0.939513 0.415333 -8.09107e-20)
(0.904922 0.387209 0)
(0.883671 0.363724 1.1816e-19)
(0.84208 0.333507 1.41662e-19)
(0.714603 0.273513 1.69078e-19)
(0.491947 0.18255 -2.02112e-19)
(0.260445 0.0946302 -5.96392e-20)
(0.0861131 0.029764 7.01672e-20)
(-0.00720849 -0.00394736 0)
(-0.0142387 -0.00555972 -4.88003e-20)
(0.237375 0.105893 -4.36077e-20)
(1.12463 0.49397 2.12172e-20)
(1.32963 0.588834 -4.68441e-21)
(1.3649 0.61537 2.43048e-20)
(1.32332 0.609708 -2.8433e-20)
(1.2564 0.592699 -4.10345e-21)
(1.18731 0.572942 -9.38084e-20)
(1.11685 0.549849 -4.73218e-20)
(1.04538 0.521614 -1.28619e-19)
(0.974758 0.486672 3.26009e-22)
(0.917029 0.449759 -2.53565e-19)
(0.880423 0.41861 2.14156e-19)
(0.857262 0.392564 -1.30045e-19)
(0.814225 0.359065 1.56326e-19)
(0.691437 0.294656 0)
(0.480635 0.198997 -1.10095e-19)
(0.261126 0.105458 2.78705e-22)
(0.0923982 0.0355254 -3.06826e-19)
(-0.00122896 -0.00201006 -4.50139e-20)
(-0.0127467 -0.00556302 0)
(0.2343 0.114748 0)
(1.1139 0.539481 2.61053e-20)
(1.32011 0.644237 1.50722e-21)
(1.35387 0.671653 -2.12495e-20)
(1.31114 0.66387 -3.70948e-20)
(1.2434 0.643838 0)
(1.17308 0.620913 -4.2256e-20)
(1.1009 0.594508 -1.04125e-21)
(1.02725 0.562745 2.759e-19)
(0.954034 0.523948 -4.11206e-20)
(0.893836 0.483331 -1.83229e-19)
(0.855294 0.449219 1.11402e-19)
(0.83034 0.420641 -2.239e-21)
(0.786057 0.383933 1.66574e-19)
(0.66751 0.315164 1.0221e-19)
(0.467563 0.215171 -2.37834e-19)
(0.259371 0.11631 2.81388e-19)
(0.0971726 0.0417549 8.3361e-20)
(0.0045053 0.000587456 3.4342e-19)
(-0.0110132 -0.00528489 -9.17124e-19)
(0.232197 0.123508 -1.77702e-20)
(1.1029 0.582585 2.19438e-20)
(1.30926 0.696657 -1.3049e-20)
(1.34134 0.725009 1.46296e-20)
(1.29761 0.715339 0)
(1.22923 0.692612 -3.5546e-20)
(1.15786 0.666865 1.42679e-19)
(1.08417 0.637485 1.03836e-19)
(1.0085 0.602513 0)
(0.932806 0.56014 -5.93266e-19)
(0.870191 0.515962 4.96409e-19)
(0.829778 0.478946 0)
(0.803129 0.447846 1.52365e-19)
(0.757605 0.407834 -2.23057e-21)
(0.642219 0.334638 -3.28334e-19)
(0.452667 0.23009 1.28218e-19)
(0.254864 0.126494 0)
(0.0995724 0.0477471 4.50567e-19)
(0.00903734 0.00326298 0)
(-0.00935549 -0.00488065 -4.34796e-19)
(0.230918 0.13224 2.22753e-20)
(1.09205 0.623526 3.13192e-20)
(1.29763 0.746167 -1.21243e-20)
(1.32778 0.775451 0)
(1.28318 0.764097 -3.02508e-20)
(1.21429 0.738984 0)
(1.14206 0.710732 -1.40313e-19)
(1.06701 0.678712 -4.80041e-20)
(0.989451 0.640866 4.86833e-20)
(0.911333 0.595207 -2.93684e-19)
(0.846291 0.547626 5.12788e-20)
(0.804043 0.507752 0)
(0.775787 0.474041 -3.25838e-19)
(0.728995 0.430531 2.14853e-21)
(0.616035 0.352594 0)
(0.435488 0.243377 1.05824e-21)
(0.247394 0.135284 4.12598e-19)
(0.0989859 0.0527811 -3.89247e-19)
(0.0117166 0.00549079 1.14915e-19)
(-0.00803049 -0.00449381 0)
(0.230143 0.140848 0)
(1.08164 0.66237 3.95214e-20)
(1.28545 0.792946 2.21992e-20)
(1.31363 0.823029 -2.54423e-21)
(1.26823 0.810172 -8.95301e-21)
(1.19895 0.782953 -8.04057e-20)
(1.12598 0.7525 5.29158e-20)
(1.0497 0.718158 -5.69889e-20)
(0.970357 0.677767 2.17795e-19)
(0.889838 0.629138 -4.70311e-19)
(0.822319 0.578339 -4.14256e-21)
(0.778217 0.535596 -1.42664e-19)
(0.748386 0.49907 5.29264e-19)
(0.700252 0.451693 -2.58003e-21)
(0.589122 0.368591 -2.55455e-19)
(0.416425 0.254515 -4.53458e-19)
(0.237399 0.142178 0)
(0.0959835 0.0562785 0)
(0.0126419 0.0068866 1.24039e-19)
(-0.007098 -0.00423713 -7.27697e-20)
(0.230082 0.14946 3.33376e-20)
(1.07185 0.699036 -9.16456e-20)
(1.27297 0.837113 -2.38584e-20)
(1.2992 0.867811 0)
(1.25306 0.853622 -1.50581e-21)
(1.18349 0.824547 -7.26193e-20)
(1.1099 0.792179 1.2723e-19)
(1.03249 0.755821 2.23984e-19)
(0.951449 0.713219 2.83309e-19)
(0.86853 0.661949 -3.84649e-19)
(0.798433 0.60814 -4.28202e-19)
(0.752366 0.562464 3.8191e-19)
(0.720924 0.522842 0)
(0.671327 0.471075 -1.16381e-19)
(0.56156 0.382322 -2.76147e-19)
(0.395721 0.263114 -3.26251e-19)
(0.225121 0.146824 -3.84909e-19)
(0.0908331 0.0580859 1.13668e-19)
(0.0120953 0.00736984 -6.68025e-20)
(-0.00652891 -0.00413769 3.05854e-22)
(0.23015 0.157991 0)
(1.06278 0.733902 0)
(1.26047 0.878751 2.47278e-21)
(1.28473 0.909909 0)
(1.2379 0.894537 1.68847e-20)
(1.16811 0.863828 4.84677e-20)
(1.09401 0.829799 0)
(1.01559 0.791715 2.65262e-20)
(0.932924 0.747227 4.73416e-19)
(0.847595 0.693668 -8.85353e-19)
(0.774765 0.637085 0)
(0.726539 0.588399 -2.46235e-19)
(0.693339 0.545325 -3.02886e-21)
(0.642159 0.488475 -2.29478e-21)
(0.53342 0.393472 2.95848e-19)
(0.373408 0.268881 -4.94476e-23)
(0.211111 0.14894 -8.29402e-19)
(0.0839796 0.058149 2.44568e-19)
(0.0104818 0.00705481 7.22509e-20)
(-0.00620418 -0.00414551 0)
(0.230358 0.166397 -1.38513e-19)
(1.05419 0.767118 -6.49714e-20)
(1.24806 0.917957 -7.86956e-20)
(1.27038 0.949466 5.79168e-20)
(1.22294 0.932993 1.49764e-20)
(1.15301 0.900863 0)
(1.07848 0.865407 7.69042e-20)
(0.999154 0.825865 -5.93425e-20)
(0.914937 0.779809 3.92017e-21)
(0.8272 0.724332 6.53559e-20)
(0.751445 0.665244 5.55899e-19)
(0.700762 0.613519 -8.64455e-20)
(0.665534 0.566564 -3.26975e-19)
(0.612587 0.503715 -1.35687e-19)
(0.504771 0.401675 1.60452e-19)
(0.350343 0.271535 1.18987e-22)
(0.195883 0.148441 2.23377e-19)
(0.0760291 0.0565317 -5.26292e-19)
(0.00819388 0.00606794 6.21907e-19)
(-0.00603054 -0.00422467 9.06953e-20)
(0.230503 0.174544 5.33758e-20)
(1.04607 0.798769 -3.71073e-20)
(1.23585 0.95483 6.24202e-21)
(1.25628 0.986616 4.25054e-20)
(1.20832 0.969103 3.53375e-21)
(1.1383 0.935725 -8.41435e-20)
(1.06344 0.899055 2.19876e-20)
(0.983301 0.858296 -2.47547e-19)
(0.897626 0.810971 -5.23147e-19)
(0.807485 0.753956 -5.28908e-19)
(0.728612 0.6927 0)
(0.675064 0.637992 -3.80259e-19)
(0.637382 0.586662 4.71749e-19)
(0.582365 0.51664 0)
(0.475568 0.406515 -3.43909e-19)
(0.327155 0.270615 2.04189e-19)
(0.180681 0.145144 -2.40213e-19)
(0.0682138 0.0535145 -2.83136e-19)
(0.00584673 0.00468407 -5.00941e-19)
(-0.00596194 -0.00435868 -3.90398e-19)
(0.231014 0.182568 -6.11077e-20)
(1.03829 0.82885 3.97231e-20)
(1.22392 0.989444 8.86506e-20)
(1.24252 1.02144 6.55337e-20)
(1.19413 1.00296 -3.25281e-21)
(1.1241 0.968504 -4.42723e-20)
(1.04899 0.930796 7.38474e-20)
(0.968129 0.889051 -2.5449e-19)
(0.881082 0.840737 -3.10413e-19)
(0.788575 0.78256 5.54679e-19)
(0.706391 0.719537 1.22407e-18)
(0.649508 0.662009 0)
(0.60876 0.60579 0)
(0.551122 0.527226 -1.56266e-19)
(0.445491 0.407546 0)
(0.304102 0.265198 4.38724e-19)
(0.167014 0.138218 5.16255e-19)
(0.0625786 0.0489936 0)
(0.00468218 0.00322265 0)
(-0.0059224 -0.00448439 4.19718e-19)
(0.23121 0.190172 7.03482e-20)
(1.03087 0.857357 5.65208e-20)
(1.21231 1.02193 6.48141e-20)
(1.22916 1.05408 -6.70528e-20)
(1.18044 1.03468 -1.05696e-20)
(1.11045 0.999278 4.34368e-20)
(1.03519 0.960692 -1.01413e-19)
(0.953705 0.918158 -6.30569e-22)
(0.865389 0.869116 -5.10312e-21)
(0.770567 0.810148 -4.4818e-21)
(0.684928 0.745823 6.31139e-19)
(0.624201 0.685744 0)
(0.579595 0.624202 4.78796e-19)
(0.518429 0.535656 3.33986e-19)
(0.41378 0.404527 8.02482e-19)
(0.280759 0.253919 2.36441e-19)
(0.156447 0.124864 -2.77697e-19)
(0.0636682 0.0396176 -1.63064e-19)
(0.0110233 0.000605563 0)
(-0.00371851 -0.00384316 4.50987e-19)
(0.231737 0.197798 -1.60403e-19)
(1.02375 0.884385 0)
(1.20103 1.05233 7.83579e-20)
(1.21625 1.08459 -5.83327e-20)
(1.16732 1.06436 2.22706e-20)
(1.09742 1.02813 -4.24878e-20)
(1.02209 0.9888 1.95864e-19)
(0.940069 0.945653 -2.07213e-20)
(0.850595 0.896117 0)
(0.753545 0.836697 -6.13611e-19)
(0.664363 0.77159 -1.37446e-18)
(0.599293 0.709348 5.63251e-20)
(0.549926 0.642219 6.62074e-19)
(0.483962 0.542379 0)
(0.379191 0.397837 5.42015e-19)
(0.254799 0.235605 0)
(0.146776 0.0987375 0)
(0.0764183 0.010697 -1.76239e-19)
(0.0467436 -0.0137398 0)
(0.0268668 0.0102332 1.20869e-19)
(0.231916 0.204848 -1.80774e-19)
(1.01691 0.910276 0)
(1.19007 1.08087 1.32272e-19)
(1.20374 1.11321 0)
(1.15471 1.09226 -1.60881e-20)
(1.08493 1.05536 0)
(1.00962 1.01543 9.36364e-21)
(0.927125 0.971873 3.51634e-20)
(0.836577 0.922099 3.90755e-20)
(0.73734 0.862589 -6.73785e-19)
(0.644504 0.797277 4.12815e-20)
(0.574539 0.733457 4.54039e-19)
(0.519306 0.660681 6.46544e-19)
(0.446781 0.548023 8.7094e-20)
(0.339671 0.388844 4.25288e-19)
(0.221007 0.211138 0)
(0.125588 0.0552997 5.84783e-19)
(0.0684013 -0.0322646 -3.41237e-19)
(0.0418043 0.0416758 3.97193e-19)
(-0.0690765 0.438011 -4.68238e-19)
(0.2321 0.211715 1.50612e-19)
(1.01008 0.934798 2.29568e-19)
(1.17933 1.10785 0)
(1.1915 1.14038 4.91201e-21)
(1.14242 1.11896 5.25136e-20)
(1.07273 1.08163 3.82564e-20)
(0.997466 1.04138 6.71019e-20)
(0.914456 0.997747 0)
(0.822792 0.94814 2.58746e-19)
(0.721272 0.889119 -3.51506e-20)
(0.624426 0.824361 0)
(0.548658 0.759736 0)
(0.485712 0.681062 5.80335e-19)
(0.404441 0.553107 -2.69428e-19)
(0.291923 0.379352 -4.31746e-19)
(0.174404 0.183809 0)
(0.0734089 0.0660358 2.95028e-19)
(0.00301463 0.437219 -3.40421e-19)
(0.0327037 1.89402 -1.86348e-19)
(0.0618796 2.81355 -2.38388e-19)
(0.232126 0.217778 -1.14181e-19)
(1.00346 0.958144 -2.96589e-19)
(1.16883 1.13326 7.97003e-20)
(1.17951 1.16599 6.17231e-20)
(1.13047 1.14423 0)
(1.06088 1.10666 1.57105e-20)
(0.985828 1.06634 9.00228e-20)
(0.902257 1.02285 -1.70148e-20)
(0.809516 0.97373 3.87265e-20)
(0.705729 0.915686 6.43371e-19)
(0.604735 0.852213 6.97718e-19)
(0.52257 0.787819 5.10949e-19)
(0.449952 0.703542 5.85095e-19)
(0.358442 0.556672 -6.3493e-19)
(0.241219 0.373091 -6.53368e-19)
(0.118073 0.228661 0)
(0.0418619 0.831545 0)
(0.0993138 2.55298 1.62942e-19)
(0.100606 3.20317 0)
(0.103964 3.38881 3.87933e-19)
(0.23469 0.223389 0)
(0.997649 0.980517 0)
(1.15834 1.15695 0)
(1.16757 1.18986 1.93775e-20)
(1.11852 1.16782 4.93795e-20)
(1.04917 1.13033 -1.44007e-21)
(0.974597 1.0902 5.73118e-20)
(0.890487 1.04707 -1.65926e-20)
(0.796719 0.998736 3.23511e-19)
(0.690747 0.942159 -8.86006e-21)
(0.585593 0.880746 1.381e-18)
(0.496578 0.817571 -5.90617e-20)
(0.4122 0.729279 7.10227e-20)
(0.311351 0.556426 9.2054e-20)
(0.177854 0.384721 -5.64274e-21)
(0.0967886 0.960788 1.84264e-21)
(0.137821 2.72499 -8.64397e-19)
(0.145735 3.29312 -3.23437e-19)
(0.135154 3.42556 1.66903e-19)
(0.123041 3.44776 -1.85845e-19)
(0.153532 0.180803 6.84443e-20)
(0.986482 1.00466 0)
(1.14748 1.17911 -1.62763e-19)
(1.1562 1.21251 -1.71823e-19)
(1.10745 1.19055 1.2861e-19)
(1.03854 1.15332 6.77836e-21)
(0.963717 1.11305 -5.82685e-20)
(0.879261 1.07055 1.82944e-19)
(0.784572 1.02334 -2.65045e-19)
(0.676626 0.968722 0)
(0.567429 0.910175 6.7968e-19)
(0.471245 0.848904 -4.18426e-19)
(0.374193 0.76102 0)
(0.257125 0.552909 8.62423e-20)
(0.14066 0.730143 2.05762e-19)
(0.153609 2.49886 -2.38271e-19)
(0.209995 3.32202 2.66904e-19)
(0.190512 3.43758 1.43343e-19)
(0.158699 3.45936 1.6039e-19)
(0.137236 3.46982 2.5469e-19)
(0.277455 0.261154 -1.24239e-19)
(0.971017 1.01426 0)
(1.12924 1.20439 1.79699e-19)
(1.1411 1.2429 1.92348e-19)
(1.09 1.22355 -1.4995e-19)
(1.02032 1.18668 -3.02066e-20)
(0.944571 1.14805 5.04089e-20)
(0.859593 1.10679 1.44027e-20)
(0.76357 1.06176 2.53025e-19)
(0.652822 1.0111 5.5792e-19)
(0.538241 0.9591 3.83665e-20)
(0.4309 0.902821 3.73285e-19)
(0.304164 0.796702 6.69783e-20)
(0.211475 0.909532 -8.506e-20)
(0.228184 2.34659 -1.92137e-19)
(0.289852 3.32351 1.83335e-19)
(0.272734 3.46557 -2.02023e-19)
(0.237444 3.48789 -1.16237e-19)
(0.200523 3.51591 -9.74501e-20)
(0.149084 3.5104 -1.13811e-20)
(0.265276 0.258001 0)
(0.968541 1.03678 5.36745e-20)
(1.12082 1.22779 -3.76045e-20)
(1.1304 1.26651 -2.35663e-20)
(1.07912 1.24672 -1.0704e-19)
(1.00938 1.21008 3.4724e-20)
(0.933311 1.17159 -2.44531e-20)
(0.848123 1.13114 1.28895e-20)
(0.751555 1.0876 -2.63707e-19)
(0.639478 1.03985 -1.36344e-20)
(0.521998 0.992788 -1.23348e-18)
(0.40933 0.940958 5.33773e-20)
(0.285073 0.861358 -6.32396e-20)
(0.254343 1.47231 -7.8709e-20)
(0.330211 3.09843 1.81855e-20)
(0.349272 3.46251 1.68258e-22)
(0.308993 3.51919 2.91756e-19)
(0.27167 3.54654 1.41645e-19)
(0.223042 3.57042 -3.37529e-20)
(0.164075 3.56679 -5.29782e-20)
(0.249123 0.256511 1.3745e-19)
(0.964478 1.06197 3.6783e-19)
(1.11199 1.2533 -1.07955e-19)
(1.11911 1.29154 -8.8819e-20)
(1.0676 1.27124 0)
(0.99801 1.23466 8.0307e-20)
(0.921922 1.19641 -2.04505e-20)
(0.836804 1.15674 1.12591e-20)
(0.740012 1.1148 -2.9454e-20)
(0.627134 1.07023 -5.06072e-19)
(0.507598 1.02849 -5.69959e-19)
(0.391237 0.980377 -4.36824e-19)
(0.286602 0.990173 -4.80313e-19)
(0.324848 2.19663 4.94932e-19)
(0.418121 3.37154 4.12484e-19)
(0.394192 3.51981 0)
(0.348759 3.5657 0)
(0.31067 3.60726 -2.62259e-20)
(0.25982 3.66788 0)
(0.1768 3.64429 -2.59776e-20)
(0.238493 0.258411 -2.07452e-19)
(0.958488 1.08825 -3.14326e-19)
(1.10173 1.27998 0)
(1.10645 1.31727 5.88868e-21)
(1.05479 1.29635 -1.22179e-19)
(0.985503 1.25971 1.40387e-19)
(0.909736 1.22175 -4.43624e-21)
(0.824893 1.18279 6.20042e-21)
(0.728117 1.14237 -1.86357e-19)
(0.614854 1.10098 2.52786e-20)
(0.494203 1.06467 0)
(0.37268 1.02128 0)
(0.308071 1.24709 -4.38717e-19)
(0.409598 2.87745 1.78197e-19)
(0.490685 3.47891 2.26682e-19)
(0.441756 3.55237 0)