/*--------------------------------*- C++ -*----------------------------------*\
  =========                 |
  \\      /  F ield         | OpenFOAM: The Open Source CFD Toolbox
   \\    /   O peration     | Website:  https://openfoam.org
    \\  /    A nd           | Version:  10
     \\/     M anipulation  |
\*---------------------------------------------------------------------------*/
FoamFile
{
    format      ascii;
    class       volScalarField;
    location    "69";
    object      p;
}
// * * * * * * * * * * * * * * * * * * * * * * * * * * * * * * * * * * * * * //

dimensions      [0 2 -2 0 0 0 0];

internalField   nonuniform List<scalar> 
918
(
0.557084
1.18133
0.000767807
0.556534
-0.00953406
1.14834
-0.511142
0.659215
0.537285
-0.107939
-0.0513413
0.539659
1.00902
0.775609
-1.12379
-0.0111692
0.651629
-0.381539
0.5364
-0.0598028
0.688398
0.543823
0.546847
0.537425
0.597857
0.749577
0.890192
0.024145
0.0121862
0.00538512
-0.0145274
-0.0361206
-0.0307766
1.03199
1.08308
1.10578
0.505028
0.333562
-0.376527
-0.449458
-0.436792
-0.545174
0.657666
0.656843
-0.212622
0.662248
0.66385
0.524305
0.536655
0.537566
0.538584
0.53757
0.538949
0.403924
-0.108218
-0.139478
-0.0889742
-0.0826666
0.0521604
-0.0528415
-0.0553405
-0.049527
-0.0490602
0.45413
0.533841
0.530275
0.543806
0.553331
1.12088
1.0928
1.11895
1.03263
1.04912
0.986997
0.959689
0.795753
0.817653
0.761949
0.749091
-1.55502
-2.50535
-0.534485
-0.283977
-0.0153772
-0.00928027
-0.00328837
0.648732
0.650123
0.651062
0.653082
1.07958
-0.379096
-0.479572
0.536542
0.535354
0.54367
0.544371
0.540391
0.539481
-0.0510372
-0.0477817
-0.0505983
-0.0559218
-0.0542065
0.674944
0.675885
0.537953
0.534956
0.561003
0.581103
0.571183
0.277508
0.608543
0.624352
0.582332
0.743738
0.736645
0.745823
0.86369
0.827905
0.927216
0.950276
0.0177519
-0.00130227
-0.0158417
-0.0194292
-0.0183311
0.500855
0.49339
0.520891
0.508467
0.510977
0.250357
0.117076
0.418476
0.443308
-0.295669
-0.362361
-0.429321
-0.460065
-0.56863
0.612267
0.655978
0.654553
-0.222636
-0.150843
-0.28425
-0.0777727
-0.140795
0.51456
0.521581
0.516575
0.532139
0.526603
0.528568
0.540926
0.537996
0.539556
0.466068
0.589598
0.330123
0.294684
-0.242642
-0.154722
-0.242206
-0.0722916
-0.0698667
0.0663072
0.0919738
0.038916
0.0270751
-0.0652375
-0.0587816
-0.0616673
-0.0471958
-0.0465805
0.446866
0.435638
0.466831
0.474401
0.5202
0.521728
0.526228
0.523995
0.910399
0.932725
0.940409
0.914197
-3.49389
-6.27395
0.0402402
0.176334
-0.00655921
-0.0109503
0.00448645
-0.0105705
-0.00333958
-0.00449112
-0.00861296
-0.00979208
-0.00424136
-0.00326853
0.643381
0.644414
1.00182
1.00873
0.977381
0.930292
0.524765
0.526835
0.53233
0.528215
-0.046309
-0.0464725
-0.0459728
0.667111
0.672481
0.669982
0.238958
0.149096
0.328638
0.357818
0.636844
0.625277
0.634978
0.642274
0.679559
0.957671
0.975945
0.974129
0.982556
1.02657
1.04296
1.00837
0.480251
0.49026
0.485192
0.523958
0.52174
0.522633
0.518866
0.519879
0.518044
-0.0332829
-0.413025
0.49059
0.507438
0.492907
0.495249
0.692391
0.770996
0.652696
0.654103
0.653695
-0.00849438
-0.0670114
0.249833
0.215679
0.386321
0.422795
0.401736
0.881672
0.842091
0.89222
0.865398
0.826724
0.85228
-0.364603
-1.86319
-0.982869
0.525367
0.339962
0.427062
0.00890589
-0.00789525
-0.00330772
1.00141
1.07369
0.645371
0.820223
0.822865
0.715053
0.74458
0.801817
0.72963
0.762854
0.79557
0.774704
0.568209
0.503669
0.519631
0.840081
0.895803
0.11885
0.05708
0.0132543
0.11095
0.168403
0.142416
1.03369
0.949539
1.01972
0.534717
0.53544
-0.00464848
-0.0180947
0.539689
0.539744
-0.0168188
-0.00411338
0.410009
-0.831475
0.0979356
0.528275
0.51816
0.535302
-0.093289
0.355556
-0.0511267
0.0478371
-0.0086498
0.529905
0.465279
0.424319
-0.000694526
-0.0202404
-0.0509704
-0.213028
0.532387
0.530692
0.53477
0.53571
0.536392
-0.0190382
-0.0143169
-0.0103463
-0.0477639
-0.0409763
-0.0531987
0.499188
0.518614
-0.170641
0.534916
0.537052
0.53687
0.530136
0.535765
0.534018
-0.0115617
-0.0173626
-0.0186341
0.219148
0.351377
0.648857
0.735071
0.621217
0.397397
0.162771
0.552464
0.615416
0.52157
0.674779
0.651532
0.659244
0.163457
0.0131404
0.172255
0.113968
0.526136
0.524856
0.516413
0.513371
0.53017
0.528284
0.532842
0.529866
0.532816
0.534196
-0.0493799
-0.076384
-0.0853184
-0.15244
0.310232
0.57129
0.254672
0.284074
0.141689
-0.0457273
-0.0471155
-0.0492047
-0.058123
0.000705778
-0.0242734
0.0426201
0.0427357
0.0145487
-0.0110183
-0.00862995
-0.0195498
-0.013995
0.523208
0.523322
0.527567
0.536301
0.474948
0.478735
0.443544
0.464306
0.449553
0.388202
0.423552
0.398753
-0.00860608
0.00110047
-0.00566499
-0.0180416
-0.013902
-0.033975
-0.030568
-0.0260566
-0.0220199
-0.0288435
-0.0454108
-0.047601
-0.171136
-0.287095
0.988132
0.909213
0.136819
0.521532
0.527991
0.52475
0.529681
0.53281
0.533607
0.531314
0.52786
0.518843
0.520255
0.517175
0.51822
-0.101987
-0.24347
-0.071826
-0.146464
0.145363
0.628165
0.363277
0.298612
0.293953
0.522752
0.916608
0.699565
0.669024
0.668962
-0.343422
0.0453139
-0.279794
0.334892
0.162407
0.648445
0.69692
0.718401
0.666901
0.620254
-0.100673
0.555915
-0.074034
-0.0217345
0.179855
0.0556607
0.660931
0.639155
0.646537
0.652678
0.666402
0.64294
0.626162
0.625954
0.647337
0.650798
0.48307
0.249834
0.200463
0.162002
0.642493
0.51691
0.567149
0.489871
0.521428
0.52396
0.52261
0.504028
0.511627
0.507139
0.513727
0.51736
0.525889
0.526367
0.521626
0.523755
-0.0566207
-0.0632592
-0.025692
-0.135294
-0.128155
-0.190257
-0.059574
0.0744079
0.0357219
0.237099
0.341328
0.0519707
-0.0569209
-0.0294326
0.0122656
0.179638
0.207989
0.0740511
0.161843
0.153258
0.13425
0.237205
0.240502
-0.0292421
-0.0310867
-0.035887
-0.0377892
0.0186569
0.0900691
0.0993931
-0.00714808
-0.0129097
-0.0441393
-0.0441948
-0.022339
-0.0277266
-0.0225963
0.00440648
-0.0532059
-0.0207206
-0.00679349
-0.00448255
-0.00573595
-0.0111267
0.518164
0.519829
0.520217
0.527323
0.540144
0.55481
0.520776
0.497188
0.487962
0.490981
0.463853
0.474158
0.469954
0.483566
0.504665
0.513484
0.511782
0.514635
0.496761
0.49855
0.485113
0.488771
0.463824
0.444454
0.432516
-0.0431117
-0.00509748
-0.0127004
-0.0388443
-0.00997713
-0.0216605
-0.0107688
0.0076362
-0.00863417
-0.00960935
-0.0193988
-0.0264268
-0.0261554
-0.0731445
0.0135106
-0.184497
-0.220026
-0.293037
0.890366
1.01456
0.809773
0.582804
0.603061
0.846294
0.930823
0.542979
0.735301
0.758458
0.587027
0.854355
0.526382
0.525977
0.523577
0.523057
0.524277
-0.00718326
0.0991077
0.097251
0.160655
0.27708
0.388711
0.319533
0.194335
0.324405
0.32689
0.621004
0.633264
0.588316
0.612411
0.612566
0.42488
0.500546
0.552167
0.513242
0.565101
0.586614
0.540687
0.573586
0.523205
0.478715
0.47487
0.424484
0.444142
0.419764
0.402886
0.515793
0.493122
0.503839
0.494329
0.514958
0.543121
0.539681
0.561534
0.576605
0.497759
0.452676
0.462056
0.492243
0.453687
0.469254
0.485328
0.232788
0.134803
0.217673
-0.0673247
0.00347698
-0.00899985
-0.0576912
-0.00647361
0.2777
-0.413203
-0.389907
-1.01697
0.503979
0.954152
0.5927
0.568245
0.667084
0.652097
0.658303
0.675294
0.674091
0.631105
0.64036
0.645201
0.597043
0.617883
0.637186
0.633372
0.524512
0.382197
0.381433
0.329274
0.199382
0.23925
0.435348
0.359576
0.284639
0.284756
0.456352
0.342907
0.412862
0.446403
0.3777
0.332352
0.534908
0.601022
0.594736
0.567856
0.478933
0.491076
0.515573
0.548925
0.572936
0.605812
0.513138
0.519082
0.520313
0.517782
0.515054
0.518155
0.518445
0.521011
0.521597
0.524616
0.523681
-0.052471
-0.038103
-0.0511855
-0.0631271
-0.0187265
-0.0207558
0.0227593
0.0110056
-0.0154737
-0.0113298
-0.0331754
-0.0371021
-0.0337841
-0.0258257
0.102393
0.115124
0.0998775
0.0605581
0.25073
0.380443
0.454914
0.330182
0.223999
0.248063
0.266649
-0.0122677
0.0131899
0.000479713
0.0401676
0.032067
-0.038644
-0.0423754
-0.0384792
-0.0308682
-0.0224232
-0.0377776
-0.0431482
-0.0342229
-0.0386596
-0.0413155
-0.0448388
0.499458
0.492909
0.494503
0.488397
0.487125
0.501487
0.505813
0.507753
0.513273
0.515721
0.505579
0.51107
0.51507
-0.0120701
-0.0352109
-0.0386825
-0.0294854
-0.0316598
-0.0290798
-0.0306203
0.123299
0.0542036
0.0580023
0.0108185
-0.121345
-0.0633899
0.491704
0.490489
0.479897
0.720981
0.570222
0.491027
0.588106
0.69377
0.275965
0.472751
0.307831
0.888269
0.784864
0.931177
0.542171
0.245731
0.409762
0.452387
0.265932
0.341669
0.324463
0.213517
0.244241
0.28248
0.38136
0.265866
0.242657
-0.000819022
0.1899
0.301866
0.28371
0.40829
0.468926
0.266749
0.186488
0.141503
0.605873
0.62535
0.638266
0.611176
0.632474
0.580975
0.573217
0.588407
0.596351
0.590816
-0.745214
-0.451523
-1.39838
-0.720794
-0.265419
0.534531
0.506498
0.769537
0.645793
0.681181
0.665957
0.624877
0.594632
0.619134
0.641745
0.340297
0.450887
0.426112
0.431813
0.334499
0.26477
0.562691
0.559767
0.593407
0.61667
0.588196
0.618473
0.510956
0.510683
0.510139
0.506371
0.504633
0.507
0.0587655
0.0262339
0.0671276
0.0501002
0.0276035
0.0149108
-0.0105235
-0.0204581
-0.0276433
-0.0272644
-0.0129925
-0.00891305
0.171759
0.109156
0.0296954
0.0585418
-0.00214965
-0.0704887
-0.0896135
0.0157319
0.1118
0.101999
0.40518
0.654795
0.474825
0.642259
0.484765
0.540589
0.468385
0.459743
0.484673
0.37982
0.460205
0.250283
-0.257926
-0.166994
0.794837
0.805569
0.581281
0.406204
0.174018
0.351867
0.541175
0.471155
0.506534
0.575583
0.562672
0.0296382
0.0872204
0.37427
0.600989
0.240889
0.231961
0.225358
0.409738
0.327907
)
;

boundaryField
{
    wall-4
    {
        type            zeroGradient;
    }
    velocity-inlet-5
    {
        type            zeroGradient;
    }
    velocity-inlet-6
    {
        type            zeroGradient;
    }
    pressure-outlet-7
    {
        type            fixedValue;
        value           uniform 0;
    }
    wall-8
    {
        type            zeroGradient;
    }
    frontAndBackPlanes
    {
        type            empty;
    }
}


// ************************************************************************* //
