/*--------------------------------*- C++ -*----------------------------------*\
  =========                 |
  \\      /  F ield         | OpenFOAM: The Open Source CFD Toolbox
   \\    /   O peration     | Website:  https://openfoam.org
    \\  /    A nd           | Version:  10
     \\/     M anipulation  |
\*---------------------------------------------------------------------------*/
FoamFile
{
    format      ascii;
    class       volScalarField;
    location    "48";
    object      p;
}
// * * * * * * * * * * * * * * * * * * * * * * * * * * * * * * * * * * * * * //

dimensions      [0 2 -2 0 0 0 0];

internalField   nonuniform List<scalar> 
8800
(
0.894493
0.846705
0.808013
0.779016
0.758148
0.743311
0.732708
0.725219
0.720387
0.718313
0.719563
0.723738
0.730371
0.739679
0.752451
0.77018
0.794954
0.828892
0.871439
0.930141
0.725748
0.733426
0.740897
0.744203
0.742696
0.737614
0.731122
0.725036
0.720301
0.717443
0.717145
0.719633
0.724107
0.73004
0.7368
0.743074
0.74671
0.745972
0.740548
0.731855
0.70416
0.710318
0.714443
0.717383
0.719427
0.720025
0.71891
0.716794
0.714764
0.713838
0.71478
0.717143
0.719927
0.722096
0.722694
0.721488
0.71914
0.715743
0.711183
0.707422
0.698368
0.701017
0.703765
0.706163
0.707792
0.708945
0.709675
0.709779
0.709467
0.709397
0.710126
0.711274
0.712096
0.712146
0.711525
0.710425
0.708602
0.706026
0.703619
0.702115
0.693011
0.694435
0.696209
0.698235
0.700011
0.701342
0.702319
0.7031
0.703695
0.704234
0.704857
0.705327
0.705404
0.705097
0.704385
0.703125
0.701419
0.699564
0.698253
0.697421
0.687966
0.688885
0.690122
0.69168
0.693303
0.694816
0.696085
0.697132
0.698072
0.698936
0.699591
0.699886
0.699816
0.699352
0.698452
0.697236
0.695895
0.694625
0.693798
0.693247
0.683099
0.683768
0.684725
0.686018
0.687415
0.688858
0.690279
0.691578
0.692747
0.693817
0.694595
0.694921
0.6948
0.69426
0.693427
0.692458
0.691428
0.690492
0.689901
0.689497
0.678364
0.67888
0.679658
0.680778
0.682041
0.683398
0.684821
0.686265
0.687657
0.688946
0.689898
0.690315
0.690242
0.689814
0.689177
0.688423
0.687625
0.686926
0.686486
0.68617
0.673694
0.674104
0.674754
0.675748
0.676937
0.678243
0.679661
0.681183
0.68276
0.684299
0.685475
0.686063
0.686164
0.68594
0.685511
0.684958
0.684356
0.683843
0.683513
0.683257
0.669003
0.669337
0.669897
0.670811
0.671949
0.673237
0.674684
0.676294
0.678045
0.679854
0.681323
0.68218
0.682535
0.682544
0.682328
0.681983
0.681564
0.681204
0.680958
0.680744
0.664208
0.664484
0.664983
0.665849
0.666967
0.668274
0.669788
0.671526
0.673487
0.675605
0.677446
0.678654
0.679314
0.679588
0.679602
0.679464
0.679224
0.678997
0.678818
0.678634
0.659223
0.659455
0.659914
0.660764
0.6619
0.663271
0.664892
0.66681
0.669046
0.671551
0.673847
0.675475
0.676491
0.677066
0.677334
0.677406
0.677342
0.677235
0.677109
0.676947
0.653963
0.65416
0.654599
0.655461
0.656659
0.658136
0.65992
0.662087
0.664676
0.66767
0.67052
0.672645
0.674074
0.674988
0.675538
0.675825
0.675946
0.675952
0.675873
0.675727
0.648334
0.648502
0.648939
0.649843
0.651142
0.652777
0.65479
0.657284
0.660328
0.663934
0.667456
0.670173
0.672084
0.673386
0.674254
0.674804
0.675106
0.675214
0.675174
0.675038
0.642226
0.64237
0.642818
0.643793
0.64524
0.647091
0.649408
0.652318
0.655929
0.660286
0.664628
0.66806
0.670548
0.672308
0.673533
0.674364
0.67487
0.675089
0.675085
0.674956
0.635511
0.635628
0.636102
0.63718
0.638827
0.640964
0.643672
0.647113
0.651436
0.656715
0.662052
0.666343
0.669515
0.671812
0.673457
0.674607
0.675342
0.675674
0.675705
0.675579
0.628024
0.628117
0.628633
0.629847
0.631748
0.634249
0.637457
0.641572
0.646786
0.6532
0.659744
0.665062
0.669044
0.671975
0.674121
0.675641
0.676631
0.677082
0.677147
0.67702
0.619538
0.619635
0.620202
0.621572
0.623802
0.626775
0.630624
0.635594
0.641922
0.649737
0.657736
0.664272
0.669208
0.672883
0.675631
0.677584
0.678858
0.679437
0.679535
0.679404
0.609773
0.609849
0.610503
0.612092
0.614746
0.618325
0.622982
0.629021
0.636729
0.646259
0.656015
0.66401
0.670083
0.674643
0.678087
0.680557
0.682161
0.68288
0.683009
0.682872
0.598361
0.598419
0.599169
0.601068
0.604269
0.608625
0.614322
0.621724
0.631161
0.642786
0.654655
0.664373
0.67178
0.677381
0.681626
0.684705
0.686681
0.68755
0.687709
0.687561
0.58477
0.584815
0.585709
0.588013
0.591933
0.597315
0.604368
0.61353
0.625155
0.639359
0.653736
0.665459
0.674399
0.681212
0.686401
0.690174
0.692558
0.693583
0.693768
0.693605
0.568241
0.568273
0.569381
0.572262
0.577174
0.583947
0.592814
0.604268
0.618642
0.635973
0.653308
0.667357
0.678062
0.686251
0.69253
0.69709
0.699918
0.701095
0.701298
0.701116
0.547675
0.547704
0.549145
0.552881
0.559212
0.567939
0.57929
0.593771
0.611623
0.632733
0.653502
0.670175
0.682871
0.692609
0.700089
0.705549
0.708838
0.710153
0.710358
0.710154
0.521316
0.521365
0.523385
0.528516
0.537052
0.548667
0.563538
0.582066
0.604292
0.629886
0.65454
0.674092
0.688943
0.700397
0.709174
0.715588
0.71932
0.720733
0.720919
0.720688
0.486138
0.486287
0.489501
0.497212
0.509495
0.525516
0.545393
0.569219
0.596785
0.627559
0.656521
0.679181
0.696316
0.70956
0.719778
0.72713
0.73123
0.732667
0.732801
0.732542
0.436386
0.437344
0.44376
0.45679
0.4756
0.498457
0.525255
0.555804
0.589695
0.626253
0.659766
0.685605
0.705052
0.720105
0.731756
0.739945
0.744256
0.74561
0.745662
0.745373
0.363154
0.370344
0.385247
0.408254
0.436806
0.468822
0.504088
0.542384
0.583312
0.626187
0.664663
0.693995
0.716013
0.733124
0.746324
0.755329
0.759823
0.761118
0.761127
0.760873
0.284177
0.301234
0.325427
0.359053
0.397762
0.439099
0.482945
0.529244
0.577685
0.627667
0.672139
0.705942
0.731315
0.75101
0.76619
0.776072
0.780568
0.781701
0.781742
0.781607
0.21841
0.238538
0.270448
0.313034
0.36072
0.410848
0.463016
0.517159
0.57296
0.62984
0.68004
0.718027
0.746502
0.768526
0.785194
0.79554
0.799918
0.801101
0.801249
0.801185
0.164528
0.186322
0.223736
0.272725
0.327483
0.385011
0.444544
0.50589
0.568611
0.632057
0.687687
0.729584
0.760877
0.784927
0.802926
0.814036
0.819039
0.820198
0.820329
0.820311
0.119571
0.142557
0.183763
0.237837
0.298297
0.361936
0.427785
0.495525
0.564566
0.634128
0.694846
0.740397
0.774308
0.800325
0.819719
0.831788
0.837205
0.838409
0.838596
0.838614
0.081279
0.104955
0.149015
0.207141
0.272382
0.341219
0.41255
0.485965
0.560743
0.635949
0.701406
0.750345
0.786685
0.814485
0.835096
0.848013
0.853877
0.855299
0.855551
0.855585
0.047651
0.071801
0.118135
0.179572
0.248854
0.322202
0.398393
0.476916
0.55695
0.637405
0.707292
0.759372
0.797906
0.82723
0.848889
0.86242
0.868667
0.870417
0.870746
0.870795
0.0172175
0.0417888
0.08999
0.154256
0.227018
0.304312
0.384852
0.46803
0.552933
0.638324
0.712403
0.767413
0.807923
0.838604
0.861106
0.875121
0.881676
0.883661
0.884026
0.884062
-0.0109561
0.0140081
0.0638354
0.130507
0.206335
0.287123
0.371568
0.459007
0.54846
0.638547
0.716656
0.774461
0.816813
0.848708
0.87183
0.886146
0.892925
0.895049
0.895425
0.895437
-0.0376449
-0.0122442
0.0390886
0.10786
0.186409
0.270313
0.358286
0.449642
0.543361
0.637949
0.719993
0.780554
0.824701
0.857654
0.881211
0.895684
0.90257
0.904816
0.90518
0.905162
-0.063176
-0.0373335
0.0151524
0.0859974
0.166961
0.253662
0.344831
0.439793
0.537518
0.636444
0.722394
0.785761
0.83172
0.86566
0.889587
0.904166
0.911124
0.913396
0.913752
0.913705
-0.0879471
-0.061529
-0.00797113
0.064691
0.147812
0.237023
0.331093
0.429371
0.530849
0.633964
0.723854
0.790147
0.837995
0.87292
0.897184
0.911839
0.918797
0.921017
0.921367
0.9213
-0.112073
-0.085206
-0.0304571
0.0438054
0.128858
0.220322
0.317014
0.418333
0.523315
0.630479
0.724369
0.793765
0.843632
0.87958
0.90419
0.918886
0.925792
0.927943
0.928213
0.928104
-0.135656
-0.108238
-0.0524469
0.0232709
0.110059
0.203536
0.302583
0.406667
0.514903
0.62596
0.723913
0.79663
0.848712
0.885794
0.910777
0.92546
0.932186
0.934191
0.934378
0.934224
-0.158809
-0.130791
-0.0739937
0.00306422
0.091401
0.186676
0.28783
0.394406
0.505629
0.620395
0.722444
0.79872
0.853301
0.891707
0.91709
0.931643
0.938067
0.939832
0.939924
0.939741
-0.181533
-0.152833
-0.0950893
-0.016804
0.0729231
0.169777
0.272805
0.381601
0.495533
0.613775
0.719906
0.799974
0.857414
0.897463
0.923319
0.937556
0.943463
0.944901
0.944893
0.944693
-0.203665
-0.174324
-0.115674
-0.0362961
0.0546644
0.152913
0.257576
0.368334
0.484682
0.606134
0.716237
0.800292
0.861007
0.903186
0.929737
0.943449
0.94848
0.949422
0.949305
0.949104
-0.225181
-0.195231
-0.135728
-0.0553568
0.0366874
0.136147
0.242236
0.354686
0.473161
0.597504
0.711388
0.799542
0.863966
0.908918
0.936696
0.949826
0.953442
0.953479
0.953179
0.95303
-0.246146
-0.215515
-0.155223
-0.0739511
0.0190577
0.119565
0.226876
0.340764
0.461064
0.587952
0.705314
0.797579
0.866088
0.914522
0.944468
0.957537
0.95931
0.957514
0.956625
0.956735
-0.266383
-0.23515
-0.174098
-0.0920137
0.00183577
0.10325
0.211591
0.326681
0.448512
0.577576
0.698008
0.794244
0.867092
0.919602
0.952907
0.967498
0.968185
0.963735
0.960696
0.96009
-0.285987
-0.254129
-0.192371
-0.109572
-0.0150108
0.0871571
0.196325
0.312378
0.435432
0.5663
0.689334
0.789263
0.866653
0.923571
0.961211
0.979775
0.982306
0.976645
0.967771
0.953022
-0.30488
-0.272437
-0.21016
-0.126824
-0.0317725
0.0709508
0.180658
0.297367
0.421285
0.553479
0.678635
0.781835
0.864152
0.925566
0.967382
0.99158
0.996901
0.985175
0.965805
0.952942
-0.322886
-0.29021
-0.227272
-0.143546
-0.0481174
0.0549791
0.164819
0.281978
0.406381
0.539379
0.666004
0.771537
0.858874
0.924458
0.966901
0.99069
0.999379
0.977385
0.909179
0.878285
-0.339336
-0.308682
-0.24337
-0.159176
-0.0632958
0.0397478
0.149115
0.266437
0.390936
0.524128
0.651391
0.758107
0.849544
0.919666
0.955038
0.972395
0.965566
0.912982
0.843802
0.80112
-0.395782
-0.324968
-0.258081
-0.174791
-0.0788808
0.0238107
0.133482
0.250467
0.374589
0.507279
0.634211
0.740986
0.83249
0.909344
0.915289
0.921548
0.876438
0.808119
0.73203
0.689591
-0.357076
-0.34083
-0.279956
-0.196291
-0.101681
0.000885927
0.109581
0.225927
0.349064
0.480259
0.604983
0.709698
0.793004
0.873197
0.86338
0.753973
0.650613
0.578643
0.505855
0.537503
-0.388638
-0.358954
-0.29706
-0.214155
-0.119498
-0.0171434
0.0918333
0.207561
0.329659
0.459061
0.580892
0.681323
0.756212
0.798521
0.751562
0.605954
0.480021
0.389736
0.291398
0.342512
-0.413019
-0.380384
-0.317191
-0.234041
-0.139285
-0.0370072
0.0719207
0.186849
0.307597
0.434628
0.552716
0.647144
0.713079
0.722062
0.617509
0.446309
0.294879
0.177
0.0462221
0.0795906
-0.436929
-0.40272
-0.338316
-0.254248
-0.15931
-0.0571278
0.0513311
0.165347
0.28457
0.408879
0.522358
0.609746
0.660374
0.638349
0.481851
0.286759
0.0971712
-0.0703474
-0.259041
-0.276554
-0.460235
-0.425579
-0.360257
-0.275395
-0.180219
-0.0781901
0.0296835
0.142682
0.260144
0.381374
0.489587
0.569589
0.601616
0.543905
0.352823
0.143318
-0.0735364
-0.262727
-0.505123
-0.806067
-0.483861
-0.449201
-0.383307
-0.297909
-0.202475
-0.10054
0.00682996
0.118796
0.23441
0.352334
0.455043
0.526719
0.539052
0.430488
0.240705
0.031733
-0.172113
-0.344219
-0.412715
-0.493073
-0.50875
-0.474042
-0.407826
-0.322142
-0.226584
-0.124826
-0.0180407
0.0927393
0.206214
0.320341
0.417186
0.478183
0.466023
0.323877
0.141292
-0.0487101
-0.210804
-0.303166
-0.327067
-0.343094
-0.535229
-0.500424
-0.433991
-0.348186
-0.252683
-0.151261
-0.0452867
0.0640267
0.174973
0.284688
0.375159
0.422562
0.392828
0.224995
0.0513086
-0.113617
-0.239456
-0.278144
-0.291175
-0.292481
-0.563508
-0.528521
-0.461871
-0.376037
-0.280722
-0.179852
-0.0749271
0.0326087
0.140621
0.245379
0.328617
0.361832
0.313701
0.133538
-0.0310712
-0.178764
-0.254616
-0.271433
-0.272784
-0.272592
-0.593649
-0.558374
-0.491489
-0.40569
-0.310716
-0.210588
-0.106966
-0.00153032
0.103168
0.202487
0.277641
0.299532
0.215549
0.0499307
-0.10651
-0.228376
-0.264487
-0.262862
-0.261795
-0.261184
-0.625367
-0.589861
-0.522745
-0.43706
-0.342579
-0.243416
-0.141375
-0.0383659
0.0626514
0.156124
0.223015
0.228325
0.125239
-0.0279568
-0.166186
-0.241862
-0.25175
-0.254039
-0.254593
-0.254193
-0.6581
-0.622466
-0.555388
-0.469929
-0.376128
-0.278185
-0.178005
-0.0777711
0.019241
0.106648
0.165294
0.155589
0.0434997
-0.0947123
-0.209599
-0.239818
-0.248559
-0.250291
-0.249987
-0.249555
-0.691397
-0.655668
-0.588952
-0.503904
-0.411023
-0.31458
-0.216589
-0.119467
-0.0268103
0.054745
0.103546
0.0870072
-0.0329421
-0.151623
-0.239704
-0.255868
-0.247736
-0.246283
-0.246061
-0.245793
-0.724381
-0.688814
-0.622586
-0.538375
-0.446729
-0.352137
-0.256694
-0.162999
-0.0750525
0.00106174
0.0406979
0.026024
-0.0997465
-0.204063
-0.246547
-0.254877
-0.248865
-0.243519
-0.241434
-0.24093
-0.755463
-0.720691
-0.655352
-0.572427
-0.482492
-0.390166
-0.297682
-0.207734
-0.124698
-0.0539244
-0.0168701
-0.039677
-0.149405
-0.261821
-0.26283
-0.265301
-0.252146
-0.239591
-0.23434
-0.232512
-0.783107
-0.749371
-0.686147
-0.604925
-0.51728
-0.427739
-0.338703
-0.252884
-0.17471
-0.109444
-0.0712182
-0.100028
-0.173261
-0.294845
-0.342951
-0.294457
-0.257856
-0.241567
-0.234524
-0.231615
-0.805198
-0.773261
-0.712745
-0.634463
-0.549805
-0.46372
-0.378671
-0.29746
-0.224154
-0.164435
-0.127126
-0.142633
-0.153493
-0.208811
-0.313835
-0.272379
-0.275237
-0.276633
-0.272262
-0.268318
-0.819544
-0.790333
-0.733504
-0.659106
-0.578531
-0.496768
-0.416414
-0.340246
-0.272167
-0.218221
-0.179687
-0.190157
-0.095577
0.0428697
-0.0437509
-0.21954
-0.328517
-0.357566
-0.356873
-0.357051
-0.823482
-0.798349
-0.74637
-0.677044
-0.601716
-0.525353
-0.450456
-0.379941
-0.317788
-0.270575
-0.228182
-0.276989
-0.231302
0.00179085
-0.134764
-0.319268
-0.40817
-0.427941
-0.431723
-0.435318
-0.815001
-0.79467
-0.749148
-0.686617
-0.617799
-0.547824
-0.479179
-0.414925
-0.359634
-0.319887
-0.285373
-0.448647
-0.749621
-1.00592
-0.974152
-0.783442
-0.641133
-0.58044
-0.562055
-0.559521
-0.791932
-0.776452
-0.74
-0.686501
-0.625605
-0.562884
-0.501007
-0.443002
-0.394817
-0.363691
-0.363007
-0.594931
-1.09728
-1.80396
-1.83913
-1.11604
-0.699025
-0.584022
-0.555297
-0.546952
-0.756355
-0.746272
-0.719428
-0.676632
-0.624795
-0.569929
-0.514547
-0.46225
-0.418678
-0.393463
-0.392018
-0.467089
-0.404861
-0.368318
-0.339215
-0.257523
-0.281043
-0.295602
-0.279432
-0.266921
-0.714325
-0.70863
-0.691857
-0.659507
-0.617041
-0.569259
-0.519601
-0.47086
-0.428245
-0.398919
-0.389781
-0.246782
0.105112
0.645219
0.839962
0.507613
0.160888
-0.0362822
-0.0559227
-0.070806
-0.674845
-0.671527
-0.663047
-0.640137
-0.605088
-0.562941
-0.517028
-0.469559
-0.424787
-0.390867
-0.386143
-0.332037
-0.33121
-0.543221
-0.897334
-1.25746
-1.31597
-1.14391
-0.918964
-0.818125
-0.644678
-0.642656
-0.638353
-0.622996
-0.593624
-0.554256
-0.509442
-0.45997
-0.409828
-0.368361
-0.355644
-0.402757
-0.534565
-0.791521
-1.03215
-1.14054
-1.10961
-0.981585
-0.831155
-0.768979
-0.619928
-0.619133
-0.617821
-0.609584
-0.585107
-0.546797
-0.499313
-0.445135
-0.386666
-0.322538
-0.274382
-0.222203
-0.235028
-0.225046
-0.235548
-0.17073
-0.016535
0.177201
0.32028
0.376419
-0.604132
-0.60367
-0.603178
-0.599543
-0.58012
-0.541103
-0.48913
-0.427407
-0.354952
-0.271314
-0.177052
-0.0262906
0.160789
0.383787
0.617802
0.865437
1.15048
1.3753
1.50315
1.5469
-0.593742
-0.593504
-0.593101
-0.59222
-0.577616
-0.538258
-0.481269
-0.410711
-0.325926
-0.224292
-0.0982042
0.0367063
0.299278
0.638715
1.05629
1.47921
1.8217
2.04303
2.15112
2.183
-0.586645
-0.586166
-0.584871
-0.584053
-0.575449
-0.539629
-0.478178
-0.399379
-0.304413
-0.193879
-0.0660489
0.0716372
0.279656
0.666159
1.1208
1.53816
1.86349
2.05505
2.14152
2.16437
-0.58968
-0.587024
-0.580917
-0.577943
-0.578653
-0.549371
-0.481373
-0.393091
-0.291777
-0.176746
-0.052641
0.081392
0.238115
0.546213
0.938368
1.28358
1.54909
1.69862
1.76273
1.77812
-0.621412
-0.618052
-0.614535
-0.616537
-0.618724
-0.577032
-0.490349
-0.387786
-0.280623
-0.165773
-0.0516144
0.0604925
0.166167
0.374173
0.672173
0.929063
1.12594
1.23447
1.27971
1.28882
-0.679762
-0.684446
-0.699436
-0.707822
-0.692775
-0.614294
-0.495114
-0.376118
-0.265911
-0.157148
-0.0593176
0.0280807
0.102959
0.243679
0.444635
0.619789
0.75093
0.822252
0.851041
0.856632
-0.692302
-0.707218
-0.729257
-0.737431
-0.706413
-0.602379
-0.468156
-0.347251
-0.243458
-0.148604
-0.0693924
-0.00520265
0.0470289
0.140807
0.275101
0.38825
0.470738
0.511335
0.526522
0.529055
-0.560361
-0.574307
-0.593704
-0.59962
-0.568762
-0.484318
-0.385173
-0.290943
-0.20786
-0.133797
-0.0744047
-0.0293695
0.00893854
0.0717659
0.15359
0.22125
0.267029
0.290841
0.299911
0.300245
-0.318272
-0.326191
-0.337831
-0.34583
-0.336504
-0.303906
-0.259485
-0.210067
-0.160082
-0.110704
-0.0724996
-0.0469578
-0.0247949
0.0250782
0.0756233
0.113416
0.136893
0.146916
0.150444
0.150164
-0.0903108
-0.0937305
-0.102083
-0.115855
-0.130663
-0.139501
-0.138468
-0.127407
-0.108326
-0.0844646
-0.0671196
-0.0614274
-0.0560309
-0.0209282
0.0153433
0.0407715
0.05329
0.0583055
0.0597203
0.0593767
0.0515574
0.0495321
0.0421076
0.0251948
-0.00114452
-0.0285375
-0.0493325
-0.060439
-0.0618184
-0.0564115
-0.0540681
-0.0619432
-0.0663158
-0.0393253
-0.0122824
0.00290437
0.0100545
0.0122206
0.0127717
0.0123264
0.114324
0.112871
0.106479
0.0906399
0.0646978
0.035148
0.0084285
-0.0116127
-0.0232196
-0.0281648
-0.0338131
-0.0456057
-0.0517879
-0.0296084
-0.0101959
-0.00219391
-0.00141098
-0.00245275
-0.00304199
-0.00344363
0.130811
0.129704
0.124831
0.112543
0.0919894
0.0671683
0.042533
0.0216744
0.00687729
-0.00155677
-0.00717551
-0.0151727
-0.0174055
-0.0020618
0.00740241
0.0101546
0.00874467
0.00731823
0.00675511
0.00632033
0.126297
0.125552
0.122217
0.113633
0.0989162
0.0802967
0.0606714
0.0430547
0.0299328
0.0233262
0.0233171
0.0253401
0.0308236
0.0432762
0.0437891
0.0401055
0.0353911
0.0327158
0.0317793
0.0313221
0.113949
0.113514
0.111409
0.105801
0.0958841
0.0828591
0.0685464
0.0554137
0.0460699
0.043708
0.0514413
0.0668067
0.0859327
0.0918763
0.0836635
0.07508
0.069732
0.0679522
0.0670655
0.0663329
0.0992936
0.0990778
0.097849
0.0943826
0.0880124
0.0793719
0.0696618
0.0608173
0.0553397
0.05735
0.0721772
0.0978804
0.123323
0.124563
0.112937
0.104323
0.101034
0.100334
0.0998335
0.0987591
0.084266
0.0842135
0.0835746
0.081586
0.0777282
0.072306
0.0661447
0.0607151
0.058243
0.0630152
0.0808532
0.109385
0.135432
0.133717
0.122815
0.117911
0.117591
0.118894
0.118761
0.117428
0.0697753
0.0697556
0.0694635
0.0684351
0.0662716
0.0630878
0.0593932
0.0562319
0.0554117
0.0605303
0.076582
0.101099
0.120348
0.117145
0.11015
0.109687
0.113026
0.115855
0.115774
0.114445
0.0560256
0.0560366
0.055924
0.0555019
0.0544623
0.0527431
0.0505908
0.048648
0.0480703
0.051224
0.0612838
0.076381
0.086481
0.0819189
0.0796529
0.0849711
0.0902455
0.092955
0.0928762
0.0917708
0.0434256
0.0434245
0.0434022
0.0432988
0.0429342
0.0420914
0.0407736
0.0392097
0.0378445
0.0373758
0.0387404
0.0404796
0.0394545
0.0350096
0.0378739
0.0473143
0.0551556
0.0584983
0.0586344
0.0577616
0.0322566
0.0322339
0.032237
0.032289
0.0322439
0.0318474
0.0309079
0.0293233
0.0267079
0.0221839
0.0138483
0.00138207
-0.0144861
-0.0196305
-0.00711939
0.00703368
0.0157913
0.0187465
0.0192707
0.0188521
0.0226377
0.0225885
0.0225714
0.0226535
0.0227354
0.0225785
0.0218949
0.0200293
0.016365
0.00888051
-0.00723816
-0.0332526
-0.0559813
-0.0558254
-0.0391956
-0.0241313
-0.0169412
-0.0142225
-0.013536
-0.0136611
0.0144714
0.0144273
0.0143859
0.0144332
0.0145208
0.0144161
0.0137866
0.012317
0.0088223
0.00033801
-0.0186723
-0.0492743
-0.0738586
-0.0681303
-0.0505911
-0.0385089
-0.034112
-0.0327546
-0.0318458
-0.0316832
0.00750258
0.00744313
0.00739827
0.00743954
0.00751991
0.00750979
0.00715904
0.0061403
0.00376409
-0.00238107
-0.0173456
-0.0426783
-0.0604264
-0.0513791
-0.0388063
-0.0330282
-0.031206
-0.031015
-0.0302001
-0.0299714
0.00162694
0.00160288
0.00158558
0.00152186
0.00145567
0.00154678
0.00161412
0.00157125
0.00122363
0.000319863
-0.00174646
-0.00750611
-0.0163136
-0.0150576
-0.0137566
-0.0153565
-0.0164478
-0.0148454
-0.0120403
-0.0106882
-0.0283502
0.139523
0.335825
0.507055
0.644198
0.752601
0.842449
0.918808
0.953401
0.930101
0.277006
0.398501
0.529257
0.642401
0.737916
0.817082
0.881181
0.926643
0.949407
0.961451
0.497585
0.580979
0.670359
0.749406
0.817438
0.87437
0.919634
0.95269
0.976556
0.994513
0.659467
0.719055
0.781313
0.838783
0.888811
0.931294
0.966177
0.993992
1.01687
1.03516
0.785674
0.829095
0.875332
0.919403
0.958336
0.992334
1.02143
1.04563
1.06607
1.0839
0.890469
0.923527
0.961822
0.99754
1.03032
1.05969
1.08535
1.10692
1.12481
1.14215
0.983315
1.01211
1.04621
1.07845
1.10849
1.13575
1.15956
1.17933
1.19486
1.21193
1.07209
1.10136
1.13544
1.16755
1.19721
1.22385
1.24676
1.26528
1.27867
1.2957
1.16751
1.20076
1.23745
1.27107
1.30115
1.32737
1.34935
1.36665
1.37853
1.39593
1.28257
1.32043
1.3591
1.39337
1.42274
1.44751
1.4679
1.4838
1.49528
1.51335
1.42756
1.46612
1.50228
1.53298
1.55867
1.58078
1.59984
1.61538
1.62782
1.64581
1.60267
1.63429
1.66048
1.68294
1.70292
1.72165
1.73938
1.75586
1.77121
1.78928
1.79129
1.8085
1.82354
1.83978
1.85569
1.87023
1.88343
1.89736
1.91491
1.93506
1.97302
1.98256
1.99411
2.00492
2.01421
2.02379
2.03458
2.04595
2.05731
2.07266
2.18027
2.18393
2.16898
2.15417
2.1479
2.15358
2.17206
2.20237
2.23455
2.2612
2.48658
2.35172
2.27508
2.23271
2.21529
2.21925
2.24665
2.30306
2.40568
2.63005
0.785093
0.782963
0.778479
0.769852
0.757624
0.745489
0.735252
0.727346
0.721713
0.718438
0.718058
0.72077
0.725854
0.73306
0.742435
0.753967
0.766612
0.777642
0.783752
0.786804
0.709553
0.715399
0.721731
0.72622
0.728685
0.728354
0.725609
0.721787
0.718261
0.715979
0.715805
0.717974
0.721614
0.725885
0.729678
0.731552
0.730608
0.727121
0.721955
0.715333
0.701139
0.703435
0.706837
0.709829
0.711898
0.713386
0.714131
0.713801
0.712758
0.711851
0.711995
0.713391
0.71518
0.716465
0.716629
0.715726
0.714168
0.711825
0.708557
0.705634
0.695645
0.696731
0.698561
0.700934
0.702951
0.704369
0.705377
0.706113
0.706494
0.706689
0.707144
0.707915
0.708482
0.708523
0.70809
0.707226
0.705745
0.703652
0.701559
0.700174
0.690463
0.691126
0.692231
0.69393
0.695703
0.697324
0.698606
0.699602
0.70046
0.701217
0.701904
0.702412
0.702567
0.70237
0.701778
0.700703
0.699259
0.697704
0.696378
0.695596
0.685515
0.685976
0.686759
0.68805
0.689527
0.691031
0.692479
0.693754
0.69486
0.695876
0.69674
0.697254
0.697352
0.697039
0.69631
0.695295
0.694149
0.693001
0.692077
0.691557
0.680721
0.681066
0.681674
0.682734
0.684016
0.685375
0.686793
0.688213
0.68955
0.690782
0.69183
0.692454
0.692572
0.692246
0.691607
0.690797
0.689919
0.689034
0.688349
0.687969
0.676029
0.676297
0.676787
0.677687
0.678843
0.680122
0.681493
0.682949
0.684447
0.685909
0.68718
0.687966
0.688193
0.688009
0.687564
0.686961
0.686278
0.685613
0.685108
0.684818
0.671359
0.671572
0.671979
0.672768
0.673842
0.675069
0.676426
0.677923
0.679543
0.681228
0.682767
0.683791
0.684235
0.684273
0.684042
0.683647
0.683159
0.682679
0.68231
0.682083
0.666626
0.666798
0.667146
0.667861
0.668888
0.67009
0.671469
0.673042
0.674806
0.676727
0.678584
0.679936
0.680678
0.68098
0.680982
0.680798
0.680507
0.68019
0.679934
0.679753
0.661747
0.661886
0.662193
0.662863
0.66387
0.665093
0.666532
0.668221
0.670179
0.672388
0.674634
0.676398
0.677497
0.678105
0.678368
0.678408
0.678309
0.678147
0.677985
0.67784
0.656637
0.656749
0.657027
0.657676
0.658699
0.659988
0.661532
0.663391
0.665611
0.66819
0.670917
0.673176
0.674694
0.675651
0.676206
0.676482
0.676578
0.67657
0.676491
0.676373
0.651205
0.651293
0.651555
0.652209
0.653285
0.654682
0.656385
0.65848
0.661041
0.664092
0.667415
0.670266
0.672276
0.673635
0.674517
0.675069
0.675377
0.675509
0.675501
0.675405
0.645351
0.645419
0.645673
0.646354
0.647521
0.649072
0.650997
0.653408
0.656402
0.660046
0.664098
0.667663
0.670261
0.672092
0.673346
0.674202
0.674742
0.675027
0.675086
0.675008
0.638955
0.639002
0.639258
0.639989
0.641285
0.643045
0.645264
0.648078
0.651621
0.655997
0.660942
0.665373
0.668673
0.671063
0.672754
0.673949
0.674756
0.675202
0.675328
0.675266
0.631874
0.631903
0.632162
0.632965
0.634436
0.63647
0.639066
0.642396
0.646631
0.651911
0.657943
0.663422
0.667564
0.670615
0.672817
0.674409
0.67552
0.676142
0.676335
0.676286
0.623927
0.623943
0.624203
0.625103
0.626801
0.629174
0.632257
0.636246
0.641357
0.647769
0.655133
0.661859
0.666991
0.670817
0.673628
0.675696
0.677152
0.677963
0.678225
0.678187
0.614813
0.614797
0.615117
0.616151
0.618133
0.620953
0.624659
0.629478
0.63568
0.643483
0.652465
0.660694
0.667008
0.671754
0.675284
0.677922
0.679773
0.680798
0.681132
0.681103
0.604266
0.604224
0.604588
0.605811
0.608154
0.611549
0.616047
0.621921
0.629495
0.639022
0.649971
0.659995
0.667703
0.673534
0.677914
0.68121
0.683523
0.684786
0.685196
0.685173
0.591812
0.591743
0.592183
0.593651
0.59647
0.600617
0.606142
0.613373
0.622689
0.634352
0.647677
0.659837
0.669176
0.676273
0.681648
0.685705
0.688547
0.69007
0.690556
0.690535
0.57682
0.576722
0.577282
0.579095
0.582552
0.587704
0.594597
0.603614
0.615169
0.629502
0.645685
0.660318
0.671539
0.680089
0.68662
0.69155
0.694983
0.696782
0.697338
0.697314
0.55837
0.558243
0.558996
0.561312
0.565667
0.572217
0.580978
0.592364
0.606783
0.62439
0.643971
0.661494
0.674871
0.685082
0.692923
0.698849
0.702941
0.705019
0.705634
0.7056
0.535075
0.534931
0.536012
0.539108
0.544811
0.553408
0.564821
0.579454
0.597613
0.619276
0.642836
0.663587
0.679334
0.691366
0.700647
0.707694
0.712473
0.714816
0.715465
0.715411
0.504614
0.504489
0.506175
0.51063
0.518602
0.530391
0.545703
0.564788
0.587717
0.61424
0.642351
0.666693
0.685013
0.699015
0.709841
0.718093
0.723536
0.726088
0.726731
0.726644
0.462856
0.462892
0.465919
0.473225
0.485391
0.5024
0.523487
0.548577
0.577465
0.60969
0.642847
0.670995
0.691985
0.70802
0.720478
0.729942
0.735938
0.738569
0.739146
0.739015
0.40211
0.403288
0.410722
0.424382
0.444245
0.469575
0.498805
0.531551
0.567498
0.606087
0.644605
0.676644
0.700308
0.718336
0.732354
0.742865
0.749242
0.751737
0.752141
0.75197
0.329711
0.331453
0.345717
0.36927
0.399939
0.435102
0.473239
0.514186
0.557751
0.603433
0.648263
0.685232
0.712493
0.733221
0.74923
0.761035
0.767791
0.770264
0.77068
0.770611
0.254854
0.260988
0.282084
0.31578
0.356757
0.401489
0.448519
0.49774
0.549036
0.601949
0.653302
0.695401
0.726382
0.750028
0.768305
0.781285
0.788138
0.790325
0.790576
0.790577
0.193652
0.20207
0.227757
0.268454
0.317451
0.370337
0.425383
0.482342
0.541008
0.600882
0.658478
0.705413
0.739832
0.766004
0.786057
0.800042
0.806988
0.809137
0.809697
0.809779
0.143816
0.152828
0.182065
0.227986
0.283087
0.342546
0.404367
0.468159
0.53355
0.599927
0.663416
0.714894
0.7525
0.78102
0.802751
0.817787
0.825343
0.828019
0.828702
0.828818
0.101977
0.111275
0.142975
0.1929
0.252996
0.317913
0.385473
0.455228
0.526652
0.598997
0.667967
0.723681
0.764253
0.794958
0.818364
0.834466
0.842858
0.845959
0.846746
0.846866
0.0657871
0.0752124
0.108776
0.161907
0.226116
0.295685
0.368244
0.443275
0.520144
0.59797
0.672041
0.731697
0.775006
0.807665
0.832473
0.849552
0.858665
0.862072
0.862961
0.863074
0.0336003
0.0430824
0.0780833
0.133921
0.201581
0.275148
0.352125
0.431899
0.513747
0.596661
0.675524
0.738871
0.784677
0.819072
0.845061
0.862907
0.872574
0.876326
0.877267
0.877385
0.0041646
0.0137086
0.0498863
0.108059
0.178698
0.255758
0.336657
0.420725
0.507163
0.594858
0.678279
0.745135
0.793263
0.829228
0.856226
0.874634
0.884701
0.888666
0.889648
0.889751
-0.0233564
-0.0137515
0.0234935
0.0836557
0.156953
0.237103
0.321506
0.409476
0.500171
0.592389
0.680202
0.750461
0.80083
0.838244
0.866072
0.884818
0.895061
0.899159
0.900225
0.90031
-0.0495147
-0.0398147
-0.00157503
0.0602819
0.135976
0.218878
0.306436
0.397965
0.492611
0.589124
0.681212
0.75486
0.807474
0.84628
0.874777
0.893759
0.904086
0.908299
0.90935
0.909427
-0.0747661
-0.0648729
-0.0257803
0.037709
0.115516
0.20088
0.291286
0.386062
0.484383
0.584974
0.681259
0.758362
0.813301
0.853503
0.882623
0.901811
0.91221
0.916409
0.917421
0.917426
-0.0993278
-0.0891991
-0.0493227
0.0157445
0.0954205
0.182985
0.275959
0.3737
0.475418
0.579886
0.680318
0.760993
0.8184
0.860052
0.889791
0.909151
0.919564
0.923706
0.924662
0.92466
-0.123285
-0.112931
-0.0722004
-0.00576045
0.075601
0.165142
0.260418
0.360846
0.465694
0.573822
0.678359
0.762767
0.822831
0.866049
0.896451
0.915976
0.926349
0.930359
0.93122
0.93118
-0.146763
-0.136089
-0.0946
-0.0268564
0.0560252
0.147332
0.244663
0.347513
0.455222
0.566783
0.675353
0.763658
0.826631
0.871613
0.902768
0.922412
0.932623
0.936422
0.93714
0.937049
-0.169729
-0.158761
-0.116506
-0.0475635
0.0366983
0.129575
0.228737
0.333747
0.444037
0.558778
0.67127
0.763606
0.829796
0.876841
0.908904
0.928598
0.938461
0.941903
0.942449
0.942315
-0.192222
-0.180931
-0.137863
-0.0678483
0.0176515
0.111913
0.212691
0.319614
0.432203
0.549842
0.666083
0.762535
0.832259
0.881796
0.915061
0.934744
0.94398
0.946855
0.947184
0.947014
-0.214056
-0.202515
-0.158662
-0.0876619
-0.00105898
0.0944248
0.196597
0.305194
0.419802
0.540042
0.659778
0.760353
0.833914
0.886471
0.921454
0.941225
0.94946
0.951374
0.951364
0.951168
-0.23537
-0.223469
-0.178879
-0.106979
-0.0193961
0.0771552
0.180552
0.290571
0.406927
0.529465
0.652367
0.756955
0.834599
0.890741
0.928211
0.948592
0.955579
0.955831
0.955057
0.954812
-0.255994
-0.243767
-0.198479
-0.125747
-0.0372775
0.0601919
0.164641
0.275871
0.393693
0.518181
0.643894
0.752245
0.834113
0.894334
0.935192
0.957379
0.96367
0.961573
0.95884
0.957728
-0.275987
-0.263448
-0.217407
-0.143912
-0.0546628
0.0436064
0.148947
0.261174
0.380213
0.506329
0.634434
0.746138
0.832239
0.896837
0.941795
0.96745
0.975207
0.971935
0.965202
0.956331
-0.295263
-0.282469
-0.235758
-0.161628
-0.0717621
0.0271171
0.133132
0.246074
0.366029
0.493394
0.623438
0.738047
0.828432
0.897778
0.947157
0.977771
0.990257
0.988161
0.978025
0.971695
-0.31377
-0.300749
-0.253525
-0.178859
-0.0885708
0.0107244
0.117214
0.230553
0.351099
0.479263
0.610719
0.727609
0.821962
0.896374
0.949139
0.983492
0.99854
1.00121
0.963694
0.911433
-0.331216
-0.3175
-0.270582
-0.195526
-0.105193
-0.00571892
0.101145
0.214729
0.335485
0.463998
0.596213
0.714622
0.811789
0.892108
0.945565