/*--------------------------------*- C++ -*----------------------------------*\
  =========                 |
  \\      /  F ield         | OpenFOAM: The Open Source CFD Toolbox
   \\    /   O peration     | Website:  https://openfoam.org
    \\  /    A nd           | Version:  10
     \\/     M anipulation  |
\*---------------------------------------------------------------------------*/
FoamFile
{
    format      ascii;
    class       volScalarField;
    location    "9.5";
    object      p;
}
// * * * * * * * * * * * * * * * * * * * * * * * * * * * * * * * * * * * * * //

dimensions      [1 -1 -2 0 0 0 0];

internalField   nonuniform List<scalar> 
16128
(
1
1
1
1
1
1
1
1
1
1
1
1
1
1
1
1
1
1
1
1
1
1
1
1
4.98901
10.2971
10.5146
10.608
10.722
10.8287
10.9331
11.0336
11.13
11.2225
11.3115
11.3962
11.4748
11.5479
11.6188
11.6876
11.7497
11.8022
11.8493
11.895
11.9407
11.9759
11.9961
12.0149
1
1
1
1
1
1
1
1
1
1
1
1
1
1
1
1
1
1
1
1
1
1
1
1
4.90597
10.257
10.5102
10.6047
10.7187
10.8252
10.929
11.0289
11.1249
11.2169
11.305
11.3887
11.467
11.5404
11.6108
11.6775
11.7374
11.7897
11.8386
11.8851
11.9288
11.9603
11.9772
11.9971
1
1
1
1
1
1
1
1
1
1
1
1
1
1
1
1
1
1
1
1
1
1
1
1
4.72881
10.2096
10.4989
10.5933
10.708
10.8147
10.9185
11.0184
11.1144
11.206
11.293
11.376
11.4548
11.5288
11.5982
11.6621
11.7202
11.7734
11.8238
11.8687
11.9075
11.9342
11.9463
11.9723
1
1
1
1
1
1
1
1
1
1
1
1
1
1
1
1
1
1
1
1
1
1
1
1
4.47088
10.1354
10.4852
10.5793
10.6941
10.8002
10.9033
11.0022
11.0973
11.1878
11.2734
11.3553
11.4341
11.5083
11.5767
11.6388
11.6963
11.7504
11.801
11.8431
11.8755
11.897
11.9046
11.9451
1
1
1
1
1
1
1
1
1
1
1
1
1
1
1
1
1
1
1
1
1
1
1
1
4.13858
10.0263
10.469
10.5617
10.6762
10.7814
10.8831
10.9805
11.0739
11.1627
11.2465
11.3267
11.4042
11.4774
11.5448
11.6056
11.6625
11.7164
11.7675
11.8102
11.8394
11.8544
11.8377
11.9137
1
1
1
1
1
1
1
1
1
1
1
1
1
1
1
1
1
1
1
1
1
1
1
1
3.73592
9.8693
10.4514
10.5427
10.6569
10.7609
10.8613
10.9573
11.0493
11.1366
11.2187
11.2966
11.3716
11.4426
11.5081
11.5675
11.6227
11.6739
11.7214
11.7604
11.787
11.807
11.7813
11.8481
1
1
1
1
1
1
1
1
1
1
1
1
1
1
1
1
1
1
1
1
1
1
1
1
3.28402
9.63968
10.4309
10.5183
10.6312
10.733
10.8316
10.9257
11.0156
11.1008
11.1807
11.256
11.3282
11.3964
11.46
11.5181
11.5717
11.6198
11.6634
11.7004
11.7278
11.751
11.7171
11.7805
1
1
1
1
1
1
1
1
1
1
1
1
1
1
1
1
1
1
1
1
1
1
1
1
2.798
9.32051
10.4155
10.4943
10.6036
10.7002
10.7945
10.8848
10.971
11.0529
11.1304
11.2034
11.273
11.3383
11.3998
11.4567
11.5087
11.5535
11.5913
11.6243
11.6531
11.6848
11.6584
11.6653
1
1
1
1
1
1
1
1
1
1
1
1
1
1
1
1
1
1
1
1
1
1
1
1
2.30448
8.89106
10.4206
10.4729
10.5787
10.6689
10.7602
10.8471
10.9297
11.0077
11.0813
11.1498
11.2147
11.275
11.3318
11.3849
11.4331
11.4737
11.5075
11.5369
11.5562
11.5755
11.5598
11.5943
1
1
1
1
1
1
1
1
1
1
1
1
1
1
1
1
1
1
1
1
1
1
1
1
1.81309
8.31936
10.4211
10.4478
10.5503
10.6307
10.7171
10.8012
10.8814
10.9563
11.0264
11.0905
11.1502
11.2044
11.2548
11.3017
11.3445
11.3809
11.4119
11.4391
11.4541
11.4624
11.4239
11.4738
1
1
1
1
1
1
1
1
1
1
1
1
1
1
1
1
1
1
1
1
1
1
1
1
1.35334
7.67254
10.4641
10.4008
10.4919
10.5698
10.6594
10.7438
10.8219
10.8945
10.962
11.0225
11.0774
11.1257
11.1691
11.2085
11.2433
11.272
11.294
11.3118
11.3193
11.3203
11.2713
11.3285
1
1
1
1
1
1
1
1
1
1
1
1
1
1
1
1
1
1
1
1
1
1
1
1
1.02278
6.88325
10.3185
10.3287
10.4182
10.4985
10.5841
10.6699
10.751
10.8228
10.8872
10.9442
10.9941
11.0365
11.0723
11.1027
11.1269
11.1461
11.1589
11.1689
11.1675
11.1529
11.0845
11.1292
1
1
1
1
1
1
1
1
1
1
1
1
1
1
1
1
1
1
1
1
1
1
1
1
1.00013
5.86145
10.1026
10.2338
10.3418
10.4376
10.5253
10.6026
10.6707
10.738
10.7994
10.853
10.8981
10.9345
10.9627
10.9836
10.996
11.0029
10.9994
10.9888
10.96
10.9224
10.8352
10.8952
1
1
1
1
1
1
1
1
1
1
1
1
1
1
1
1
1
1
1
1
1
1
1
1
0.999999
4.80551
9.82741
10.1428
10.2557
10.3582
10.4405
10.5143
10.5833
10.6435
10.6962
10.7448
10.785
10.8154
10.8365
10.8478
10.8453
10.8352
10.811
10.7804
10.7305
10.6682
10.5417
10.5213
1
1
1
1
1
1
1
1
1
1
1
1
1
1
1
1
1
1
1
1
1
1
1
1
1
3.71341
9.40501
10.0961
10.2229
10.3131
10.3835
10.4422
10.494
10.5411
10.5856
10.6261
10.6586
10.6821
10.6951
10.6939
10.6761
10.6472
10.5974
10.5331
10.4249
10.271
10.0582
9.99911
1
1
1
1
1
1
1
1
1
1
1
1
1
1
1
1
1
1
1
1
1
1
1
1
1
2.62746
8.74448
10.0857
10.1664
10.245
10.3137
10.3685
10.4132
10.4494
10.4783
10.5038
10.5254
10.5388
10.5378
10.5229
10.4877
10.4342
10.3479
10.2355
10.0667
9.87023
9.5559
9.49668
1
1
1
1
1
1
1
1
1
1
1
1
1
1
1
1
1
1
1
1
1
1
1
1
1
1.60361
7.94073
10.169
10.1163
10.1884
10.2459
10.2887
10.3241
10.3535
10.3737
10.3863
10.3928
10.3938
10.3739
10.3417
10.2839
10.2024
10.0775
9.92001
9.66368
9.29583
8.38312
6.332
1
1
1
1
1
1
1
1
1
1
1
1
1
1
1
1
1
1
1
1
1
1
1
1
1
1.04795
6.76526
10.1202
10.0438
10.0885
10.1479
10.1929
10.2265
10.2503
10.263
10.2643
10.2561
10.2408
10.204
10.1521
10.0691
9.95803
9.7911
9.56714
9.20991
8.59043
7.61689
5.36668
1
1
1
1
1
1
1
1
1
1
1
1
1
1
1
1
1
1
1
1
1
1
1
1
1
1.00012
5.19883
9.64625
9.86494
9.97304
10.0364
10.0844
10.121
10.1407
10.1482
10.1406
10.1183
10.0862
10.0335
9.96158
9.85122
9.70834
9.5009
9.21295
8.78641
8.11055
7.00582
5.0734
1
1
1
1
1
1
1
1
1
1
1
1
1
1
1
1
1
1
1
1
1
1
1
1
1
0.999998
3.66009
9.19836
9.85383
9.92577
9.97548
9.99953
10.0215
10.0307
10.03
10.0142
9.97848
9.92987
9.85958
9.76824
9.63446
9.46127
9.21821
8.88492
8.40562
7.73334
6.58437
5.06794
1
1
1
1
1
1
1
1
1
1
1
1
1
1
1
1
1
1
1
1
1
1
1
1
1
0.999999
2.19055
8.38843
9.86654
9.85648
9.8918
9.9156
9.93237
9.92916
9.91599
9.8877
9.83887
9.77549
9.68727
9.57615
9.42438
9.22569
8.95555
8.59143
8.09219
7.42944
6.36504
5.15422
1
1
1
1
1
1
1
1
1
1
1
1
1
1
1
1
1
1
1
1
1
1
1
1
1
1
1.14998
7.14136
9.92562
9.8289
9.80773
9.82217
9.82756
9.81534
9.79334
9.75584
9.6987
9.62361
9.51976
9.39048
9.22274
9.00359
8.71875
8.33979
7.84055
7.18823
6.26856
5.28979
1
1
1
1
1
1
1
1
1
1
1
1
1
1
1
1
1
1
1
1
1
1
1
1
1
1
1.00196
5.43763
9.4128
9.62201
9.67883
9.70652
9.70941
9.69474
9.66628
9.62134
9.55587
9.47031
9.35516
9.21195
9.03104
8.79944
8.50674
8.12709
7.63943
7.0207
6.2328
5.42398
1
1
1
1
1
1
1
1
1
1
1
1
1
1
1
1
1
1
1
1
1
1
1
1
1
1
0.999975
3.4632
8.8692
9.56238
9.61413
9.63087
9.61906
9.5942
9.55542
9.5015
9.42582
9.32888
9.20345
9.04823
8.85516
8.61537
8.31941
7.94663
7.48403
6.90879
6.22281
5.5422
1
1
1
1
1
1
1
1
1
1
1
1
1
1
1
1
1
1
1
1
1
1
1
1
1
1
0.999994
1.75391
8.01823
9.622
9.55396
9.54229
9.51669
9.48275
9.43582
9.37555
9.29338
9.18817
9.05469
8.89145
8.69144
8.44873
8.15491
7.79197
7.35964
6.82872
6.23168
5.64284
1
1
1
1
1
1
1
1
1
1
1
1
1
1
1
1
1
1
1
1
1
1
1
1
1
1
0.999999
1.05713
6.39778
9.40335
9.38365
9.40712
9.39007
9.36442
9.31786
9.2541
9.16801
9.05834
8.91913
8.74981
8.54509
8.30148
8.01208
7.65887
7.25473
6.76955
6.24975
5.72103
1
1
1
1
1
1
1
1
1
1
1
1
1
1
1
1
1
1
1
1
1
1
1
1
1
1
1
1.0001
4.13609
8.87166
9.30965
9.34209
9.31179
9.27521
9.21871
9.1453
9.05086
8.9345
8.79166
8.6192
8.41207
8.17264
7.88652
7.54726
7.16552
6.72412
6.2676
5.78347
1
1
1
1
1
1
1
1
1
1
1
1
1
1
1
1
1
1
1
1
1
1
1
1
1
1
1
0.999998
2.03333
8.12822
9.33324
9.26023
9.21275
9.17036
9.11266
9.03551
8.9362
8.81598
8.66919
8.49941
8.29154
8.05782
7.77226
7.45211
7.09119
6.68842
6.28093
5.8307
1
1
1
1
1
1
1
1
1
1
1
1
1
1
1
1
1
1
1
1
1
1
1
1
1
1
1
1
1.09539
6.38202
9.14275
9.13867
9.10742
9.06875
9.0114
8.93185
8.82921
8.70634
8.55874
8.38679
8.1872
7.95362
7.67684
7.37623
7.03557
6.66853
6.29123
5.87915
1
1
1
1
1
1
1
1
1
1
1
1
1
1
1
1
1
1
1
1
1
1
1
1
1
1
1
1
1.00048
3.83207
8.60073
9.05247
9.02771
8.99971
8.94156
8.85098
8.73806
8.60766
8.45601
8.28209
8.0897
7.85595
7.59372
7.30992
6.98891
6.65292
6.2963
5.92066
1
1
1
1
1
1
1
1
1
1
1
1
1
1
1
1
1
1
1
1
1
1
1
1
1
1
1
1
0.999996
1.60047
7.69219
9.18392
9.00341
8.92349
8.85058
8.75185
8.63784
8.51031
8.36146
8.18672
7.9991
7.7736
7.52606
7.25565
6.95417
6.64191
6.30528
5.96159
1
1
1
1
1
1
1
1
1
1
1
1
1
1
1
1
1
1
1
1
1
1
1
1
1
1
1
1
0.999999
1.03167
5.72662
8.76033
8.79378
8.81506
8.74689
8.64783
8.53864
8.41688
8.27139
8.10308
7.91312
7.69953
7.46548
7.20585
6.92317
6.62811
6.31127
5.99254
1
1
1
1
1
1
1
1
1
1
1
1
1
1
1
1
1
1
1
1
1
1
1
1
1
1
1
1
1
0.999946
2.95548
8.10102
8.78614
8.76263
8.67423
8.57842
8.47301
8.35034
8.20276
8.03418
7.8441
7.63421
7.40935
7.1611
6.89643
6.61588
6.31948
6.01886
1
1
1
1
1
1
1
1
1
1
1
1
1
1
1
1
1
1
1
1
1
1
1
1
1
1
1
1
1
0.999983
1.27097
6.66316
8.8298
8.68173
8.58785
8.49734
8.39565
8.27397
8.12798
7.96309
7.77948
7.57697
7.35908
7.12098
6.86915
6.60146
6.32182
6.03534
1
1
1
1
1
1
1
1
1
1
1
1
1
1
1
1
1
1
1
1
1
1
1
1
1
1
1
1
1
0.999997
1.00585
4.07641
8.25061
8.51482
8.48833
8.42999
8.33708
8.21558
8.06984
7.90714
7.72712
7.52918
7.31567
7.08447
6.84167
6.58687
6.3212
6.04725
1
1
1
1
1
1
1
1
1
1
1
1
1
1
1
1
1
1
1
1
1
1
1
1
1
1
1
1
1
1
0.999981
1.58979
7.15574
8.64628
8.49635
8.39884
8.2886
8.15674
8.00912
7.84893
7.67361
7.48163
7.27519
7.05229
6.81746
6.57244
6.31713
6.05508
1
1
1
1
1
1
1
1
1
1
1
1
1
1
1
1
1
1
1
1
1
1
1
1
1
1
1
1
1
1
0.999995
1.02868
4.84767
8.25198
8.3466
8.30215
8.20986
8.08835
7.94886
7.79483
7.62479
7.43802
7.23756
7.02107
6.79176
6.55296
6.30808
6.06393
1
1
1
1
1
1
1
1
1
1
1
1
1
1
1
1
1
1
1
1
1
1
1
1
1
1
1
1
1
1
0.999999
1.00002
1.90862
7.38962
8.45448
8.30532
8.18
8.04926
7.90623
7.75029
7.58021
7.3956
7.19898
6.98771
6.76314
6.53547
6.31052
6.10857
1
1
1
1
1
1
1
1
1
1
1
1
1
1
1
1
1
1
1
1
1
1
1
1
1
1
1
1
1
1
1
1
1.06414
5.29347
8.1808
8.19108
8.10596
7.98734
7.84991
7.69717
7.53069
7.34973
7.1573
6.94914
6.7343
6.52712
6.35019
6.25021
1
1
1
1
1
1
1
1
1
1
1
1
1
1
1
1
1
1
1
1
1
1
1
1
1
1
1
1
1
1
1
1
1.00025
2.18676
7.37094
8.2215
8.07771
7.94969
7.8103
7.65757
7.49223
7.31208
7.11904
6.91496
6.72339
6.59083
6.54089
6.61346
1
1
1
1
1
1
1
1
1
1
1
1
1
1
1
1
1
1
1
1
1
1
1
1
1
1
1
1
1
1
1
1
1
1.10338
5.38303
8.05124
8.01002
7.89319
7.7602
7.6108
7.44612
7.26647
7.0733
6.89058
6.78996
6.79029
6.9414
7.07206
1
1
1
1
1
1
1
1
1
1
1
1
1
1
1
1
1
1
1
1
1
1
1
1
1
1
1
1
1
1
1
1
1
1.00081
2.24866
7.19486
8.0158
7.86196
7.72796
7.57332
7.40467
7.22247
7.0501
6.9781
7.04446
7.24938
7.46132
7.47207
1
1
1
1
1
1
1
1
1
1
1
1
1
1
1
1
1
1
1
1
1
1
1
1
1
1
1
1
1
1
1
1
1
1
1.11241
5.18502
7.86394
7.81405
7.67696
7.51937
7.34765
7.18261
7.11032
7.23592
7.52903
7.77805
7.85408
7.7078
1
1
1
1
1
1
1
1
1
1
1
1
1
1
1
1
1
1
1
1
1
1
1
1
1
1
1
1
1
1
1
1
1
1
1.00107
2.15352
6.88644
7.80217
7.62717
7.46969
7.30873
7.24148
7.40437
7.80696
8.10755
8.21232
8.08834
7.86022
1
1
1
1
1
1
1
1
1
1
1
1
1
1
1
1
1
1
1
1
1
1
1
1
1
1
1
1
1
1
1
1
1
1
1
1.09534
4.66504
7.60966
7.56343
7.40984
7.32371
7.49575
8.01559
8.41644
8.51989
8.44123
8.2235
7.99154
1
1
1
1
1
1
1
1
1
1
1
1
1
1
1
1
1
1
1
1
1
1
1
1
1
1
1
1
1
1
1
1
1
1
1
1.00094
1.8866
6.38865
7.4958
7.40289
7.57625
8.19579
8.75885
8.87243
8.75429
8.56187
8.32425
8.12343
1
1
1
1
1
1
1
1
1
1
1
1
1
1
1
1
1
1
1
1
1
1
1
1
1
1
1
1
1
1
1
1
1
1
1
1
1.05789
3.7161
7.13084
7.56918
8.25885
9.02504
9.24117
9.09787
8.8892
8.66375
8.43857
8.26679
1
1
1
1
1
1
1
1
1
1
1
1
1
1
1
1
1
1
1
1
1
1
1
1
1
1
1
1
1
1
1
1
1
1
1
1
1.00056
1.4971
5.61214
8.23925
9.27233
9.65999
9.44621
9.18873
8.97417
8.77666
8.57789
8.42493
1
1
1
1
1
1
1
1
1
1
1
1
1
1
1
1
1
1
1
1
1
1
1
1
1
1
1
1
1
1
1
1
1
1
1
1
1
1.01953
2.95061
8.76572
10.0743
9.9167
9.55083
9.2674
9.07005
8.91074
8.7251
8.57046
1
1
1
1
1
1
1
1
1
1
1
1
1
1
1
1
1
1
1
1
1
1
1
1
1
1
1
1
1
1
1
1
1
1
1
1
1
1.00014
1.4352
8.61821
10.6004
10.0181
9.58303
9.30101
9.16699
9.05754
8.89579
8.72987
1
1
1
1
1
1
1
1
1
1
1
1
1
1
1
1
1
1
1
1
1
1
1
1
1
1
1
1
1
1
1
1
1
1
1
1
1
1
1.154
7.43202
10.2782
9.79744
9.55216
9.40141
9.32991
9.21655
9.0356
8.86964
1
1
1
1
1
1
1
1
1
1
1
1
1
1
1
1
1
1
1
1
1
1
1
1
1
1
1
1
1
1
1
1
1
1
1
1
1
1
1.00664
5.96795
10.1591
9.80818
9.73274
9.61751
9.51354
9.37552
9.18513
9.00381
1
1
1
1
1
1
1
1
1
1
1
1
1
1
1
1
1
1
1
1
1
1
1
1
1
1
1
1
1
1
1
1
1
1
1
1
1
1
1.00006
4.81909
9.75015
9.84556
9.80229
9.68091
9.55354
9.40228
9.24337
9.10684
1
1
1
1
1
1
1
1
1
1
1
1
1
1
1
1
1
1
1
1
1
1
1
1
1
1
1
1
1
1
1
1
1
1
1
1
1
1
1
3.5802
9.24668
9.82543
9.79155
9.76499
9.65892
9.52757
9.40554
9.28799
1
1
1
1
1
1
1
1
1
1
1
1
1
1
1
1
1
1
1
1
1
1
1
1
1
1
1
1
1
1
1
1
1
1
1
1
1
1
1
2.44176
8.63271
10.0185
9.8921
9.7801
9.68262
9.59177
9.48622
9.3799
1
1
1
1
1
1
1
1
1
1
1
1
1
1
1
1
1
1
1
1
1
1
1
1
1
1
1
1
1
1
1
1
1
1
1
1
1
1
1
1.48804
7.86684
10.1996
9.97866
9.85167
9.75165
9.65904
9.55014
9.44186
1
1
1
1
1
1
1
1
1
1
1
1
1
1
1
1
1
1
1
1
1
1
1
1
1
1
1
1
1
1
1
1
1
1
1
1
1
1
1
1.02989
6.97485
10.1725
9.95641
9.84523
9.76974
9.68769
9.60338
9.50658
1
1
1
1
1
1
1
1
1
1
1
1
1
1
1
1
1
1
1
1
1
1
1
1
1
1
1
1
1
1
1
1
1
1
1
1
1
1
1
1.00007
5.86435
10.0141
9.95605
9.88789
9.81819
9.729
9.63719
9.54157
1
1
1
1
1
1
1
1
1
1
1
1
1
1
1
1
1
1
1
1
1
1
1
1
1
1
1
1
1
1
1
1
1
1
1
1
1
1
1
0.999999
4.7821
9.81897
10.0023
9.92916
9.85796
9.76723
9.6744
9.57869
1
1
1
1
1
1
1
1
1
1
1
1
1
1
1
1
1
1
1
1
1
1
1
1
1
1
1
1
1
1
1
1
1
1
1
1
1
1
1
1
3.83907
9.50274
10.0284
9.94529
9.88666
9.80426
9.71584
9.62007
1
1
1
1
1
1
1
1
1
1
1
1
1
1
1
1
1
1
1
1
1
1
1
1
1
1
1
1
1
1
1
1
1
1
1
1
1
1
1
1
2.98539
9.1027
10.1122
10.0031
9.93839
9.84722
9.75462
9.65894
1
1
1
1
1
1
1
1
1
1
1
1
1
1
1
1
1
1
1
1
1
1
1
1
1
1
1
1
1
1
1
1
1
1
1
1
1
1
1
1
2.20533
8.6247
10.2656
10.0731
9.97917
9.87785
9.78344
9.68691
1
1
1
1
1
1
1
1
1
1
1
1
1
1
1
1
1
1
1
1
1
1
1
1
1
1
1
1
1
1
1
1
1
1
1
1
1
1
1
1
1.55868
8.05141
10.3456
10.1257
10.0177
9.91151
9.81536
9.72037
1
1
1
1
1
1
1
1
1
1
1
1
1
1
1
1
1
1
1
1
1
1
1
1
1
1
1
1
1
1
1
1
1
1
1
1
1
1
1
1
1.19598
7.51557
10.3889
10.1517
10.0292
9.92678
9.83761
9.74665
1
1
1
1
1
1
1
1
1
1
1
1
1
1
1
1
1
1
1
1
1
1
1
1
1
1
1
1
1
1
1
1
1
1
1
1
1
1
1
1
1.01303
6.89695
10.3288
10.1438
10.0492
9.96073
9.87121
9.77736
1
1
1
1
1
1
1
1
1
1
1
1
1
1
1
1
1
1
1
1
1
1
1
1
1
1
1
1
1
1
1
1
1
1
1
1
1
1
1
1
1.0001
6.2091
10.2198
10.1594
10.0695
9.98119
9.88978
9.80001
1
1
1
1
1
1
1
1
1
1
1
1
1
1
1
1
1
1
1
1
1
1
1
1
1
1
1
1
1
1
1
1
1
1
1
1
1
1
1
1
1
5.62219
10.0965
10.1706
10.0716
9.9987
9.91375
9.82675
1
1
1
1
1
1
1
1
1
1
1
1
1
1
1
1
1
1
1
1
1
1
1
1
1
1
1
1
1
1
1
1
1
1
1
1
1
1
1
1
1
5.02284
9.98222
10.182
10.0776
10.0121
9.92908
9.84361
1
1
1
1
1
1
1
1
1
1
1
1
1
1
1
1
1
1
1
1
1
1
1
1
1
1
1
1
1
1
1
1
1
1
1
1
1
1
1
1
1
4.46215
9.87135
10.2107
10.097
10.0332
9.9517
9.86916
1
1
1
1
1
1
1
1
1
1
1
1
1
1
1
1
1
1
1
1
1
1
1
1
1
1
1
1
1
1
1
1
1
1
1
1
1
1
1
1
1
3.95929
9.74212
10.2454
10.1156
10.0477
9.96548
9.88368
1
1
1
1
1
1
1
1
1
1
1
1
1
1
1
1
1
1
1
1
1
1
1
1
1
1
1
1
1
1
1
1
1
1
1
1
1
1
1
1
1
3.52909
9.59228
10.2786
10.1356
10.065
9.98168
9.89888
1
1
1
1
1
1
1
1
1
1
1
1
1
1
1
1
1
1
1
1
1
1
1
1
1
1
1
1
1
1
1
1
1
1
1
1
1
1
1
1
1
3.17723
9.42635
10.307
10.1543
10.081
9.9965
9.91301
1
1
1
1
1
1
1
1
1
1
1
1
1
1
1
1
1
1
1
1
1
1
1
1
1
1
1
1
1
1
1
1
1
1
1
1
1
1
1
1
1
2.89219
9.25372
10.3285
10.1683
10.0944
10.0094
9.92582
1
1
1
1
1
1
1
1
1
1
1
1
1
1
1
1
1
1
1
1
1
1
1
1
1
1
1
1
1
1
1
1
1
1
1
1
1
1
1
1
1
2.6357
9.10851
10.3499
10.1845
10.1096
10.0238
9.93979
1
1
1
1
1
1
1
1
1
1
1
1
1
1
1
1
1
1
1
1
1
1
1
1
1
1
1
1
1
1
1
1
1
1
1
1
1
1
1
1
1
2.40185
8.99578
10.3603
10.1942
10.1192
10.0335
9.94955
1
1
1
1
1
1
1
1
1
1
1
1
1
1
1
1
1
1
1
1
1
1
1
1
1
1
1
1
1
1
1
1
1
1
1
1
1
1
1
1
1
2.23151
8.88412
10.3681
10.2018
10.1267
10.041
9.9572
1
1
1
1
1
1
1
1
1
1
1
1
1
1
1
1
1
1
1
1
1
1
1
1
1
1
1
1
1
1
1
1
1
1
1
1
1
1
1
1
1
2.12051
8.78334
10.371
10.207
10.1325
10.0472
9.96347
1
1
1
1
1
1
1
1
1
1
1
1
1
1
1
1
1
1
1
1
1
1
1
1
1
1
1
1
1
1
1
1
1
1
1
1
1
1
1
1
1
2.03897
8.70309
10.3735
10.2128
10.1391
10.0541
9.97072
1
1
1
1
1
1
1
1
1
1
1
1
1
1
1
1
1
1
1
1
1
1
1
1
1
1
1
1
1
1
1
1
1
1
1
1
1
1
1
1
1
1.98105
8.64468
10.3704
10.2133
10.1401
10.0558
9.97295
1
1
1
1
1
1
1
1
1
1
1
1
1
1
1
1
1
1
1
1
1
1
1
1
1
1
1
1
1
1
1
1
1
1
1
1
1
1
1
1
1
1.96064
8.61044
10.3672
10.2141
10.1425
10.0584
9.97556
1.14762
0.169389
0.0810457
0.0366507
0.0231564
0.0325661
0.0729164
0.140095
0.222925
0.292291
0.367323
0.426483
0.4608
0.505047
0.57879
0.683646
0.792848
0.896269
0.982404
1.00452
0.978144
0.97715
1.01018
1.02531
1.04828
1.06724
1.07692
1.08142
1.10204
1.11978
1.1434
1.60038
4.02066
4.92066
5.01232
5.09895
5.1947
5.26955
5.32012
5.36785
5.40693
5.43316
5.45163
5.47068
5.49611
5.52662
5.55511
5.57387
5.58194
5.58825
5.60267
5.62527
5.64509
5.6509
5.64108
5.62389
5.609
5.60163
5.59869
5.59463
5.58415
5.56401
5.53588
5.50563
5.4789
5.45866
5.44435
5.43263
5.41864
5.39774
5.36882
5.33594
5.30463
5.27857
5.2579
5.23916
5.21764
5.19073
5.15918
5.12576
5.09302
5.06196
5.0324
5.00469
4.97997
4.9585
4.93841
4.91621
4.88967
4.85969
4.82837
4.79631
4.76356
4.73066
4.69838
4.66738
4.63807
4.61076
4.58478
4.55843
4.52958
4.4969
4.46081
4.4228
4.38433
4.34624
4.30909
4.27411
4.24255
4.21532
4.18985
4.16223
4.1298
4.09286
4.05506
4.0181
3.98301
3.95073
3.92252
3.89869
3.87687
3.85334
3.82586
3.79512
3.76174
3.72706
3.69168
3.65664
3.62307
3.59141
3.56357
3.54057
3.52025
3.4996
3.47646
3.44905
3.41796
3.38067
3.34104
3.30685
3.27838
3.25726
3.24044
3.22345
3.20599
3.18695
3.16453
3.13792
3.10489
3.0693
3.03927
3.01576
3.00002
2.98571
2.96687
2.94468
2.91737
2.88579
2.85419
2.82627
2.80359
2.78793
2.77634
2.76285
2.7461
2.72367
2.69635
2.67072
2.83067
3.37581
3.88413
4.16349
4.29302
4.40563
4.45487
4.49263
4.50566
4.49273
4.46081
4.42731
4.40393
4.4034
4.42888
4.4682
4.49405
4.49147
4.47234
4.44541
4.4238
4.41452
4.41812
4.42089
2.04693
0.89178
0.520383
0.373602
0.211034
0.141391
0.139209
0.156634
0.175273
0.187676
0.213622
0.258749
0.310233
0.376366
0.430257
0.486721
0.554331
0.616468
0.713265
0.815399
0.861795
0.899146
0.941968
0.97912
1.0078
1.03653
1.05788
1.07208
1.10428
1.1437
1.14924
1.25939
3.29864
4.89478
5.0325
5.10582
5.19314
5.26725
5.31825
5.36764
5.41597
5.45173
5.47331
5.48678
5.49541
5.50526
5.52348
5.5494
5.57766
5.60294
5.62252
5.63482
5.6383
5.63452
5.62754
5.61973
5.6122
5.60594
5.59894
5.58805
5.57244
5.55338
5.53129
5.50668
5.48236
5.46125
5.44412
5.42936
5.41355
5.39378
5.36906
5.34074
5.31184
5.28485
5.26019
5.23663
5.21234
5.18626
5.15806
5.12798
5.09676
5.06547
5.03515
5.00651
4.97996
4.95542
4.93261
4.91038
4.88682
4.86046
4.83089
4.79862
4.76472
4.73018
4.69667
4.66571
4.63755
4.61129
4.5855
4.55859
4.52902
4.49637
4.46113
4.42397
4.38585
4.34788
4.31087
4.27582
4.24403
4.21522
4.18756
4.15922
4.12718
4.09172
4.05598
4.01995
3.98542
3.95362
3.92459
3.89855
3.87492
3.85023
3.82171
3.79068
3.75841
3.72486
3.69043
3.65568
3.62308
3.59454
3.56865
3.54546
3.52349
3.49836
3.47068
3.44033
3.40774
3.37578
3.34639
3.31805
3.2916
3.26927
3.24945
3.23024
3.20854
3.18468
3.15812
3.1299
3.10394
3.08099
3.05643
3.02727
2.99951
2.97531
2.95091
2.92767
2.90723
2.88913
2.87314
2.85549
2.83233
2.80444
2.77861
2.75658
2.73544
2.71225
2.68499
2.65191
2.71877
3.14677
3.84269
4.31702
4.41061
4.42316
4.44337
4.45603
4.46788
4.47577
4.47175
4.45952
4.44542
4.43794
4.44385
4.45593
4.46296
4.46199
4.45051
4.43775
4.42794
4.42239
4.42217
4.41984
2.93151
1.7429
1.07814
0.834224
0.580586
0.369534
0.355581
0.347911
0.312049
0.296822
0.310144
0.319487
0.317729
0.31823
0.327275
0.342635
0.370311
0.417232
0.485564
0.594392
0.720181
0.785422
0.835976
0.915034
0.965777
1.01225
1.06072
1.09049
1.12473
1.15851
1.18074
1.23159
2.2631
4.91076
5.49742
5.41941
5.37609
5.34674
5.36102
5.39136
5.43709
5.47238
5.49482
5.51068
5.51653
5.51459
5.5206
5.53706
5.56968
5.60847
5.63546
5.64071
5.63102
5.62018
5.61593
5.61849
5.62078
5.61414
5.59774
5.57619
5.5545
5.53774
5.52618
5.514
5.49635
5.47454
5.45148
5.42904
5.40766
5.38609
5.36328
5.33872
5.31254
5.28541
5.25828
5.23223
5.20764
5.18365
5.15857
5.13099
5.10062
5.06874
5.03757
5.00818
4.97984
4.95209
4.92603
4.90389
4.88515
4.86327
4.83396
4.79973
4.76381
4.7282
4.69419
4.66335
4.63611
4.61099
4.5853
4.55692
4.52586
4.49329
4.4593
4.42349
4.38559
4.34707
4.3096
4.27455
4.24306
4.21347
4.18454
4.15515
4.12201
4.08823
4.05454
4.02027
3.98604
3.95478
3.92573
3.89899
3.87404
3.84681
3.81742
3.78695
3.75496
3.72182
3.68795
3.65407
3.62338
3.59717
3.57221
3.54682
3.5204
3.49109
3.45874
3.42689
3.39929
3.37558
3.35338
3.32976
3.30349
3.27541
3.24823
3.22206
3.1953
3.16794
3.14181
3.11938
3.09954
3.07949
3.05622
3.02508
2.98842
2.95936
2.93894
2.92178
2.90809
2.89663
2.88198
2.86454
2.84054
2.80639
2.77057
2.74193
2.7183
2.69635
2.67293
2.64078
2.65411
2.82528
3.49036
4.6041
4.84687
4.62209
4.47462
4.43206
4.42538
4.43454
4.45743
4.47363
4.47936
4.47133
4.45304
4.43758
4.42543
4.41925
4.42028
4.42335
4.42632
4.42773
4.42467
4.41912
3.53067
2.42846
1.74384
1.3435
1.02089
0.755256
0.659638
0.594149
0.513278
0.461486
0.463941
0.458861
0.434537
0.397059
0.392122
0.405178
0.414504
0.413003
0.417029
0.437161
0.488213
0.557109
0.623016
0.734067
0.846567
0.91096
0.976587
1.02283
1.06508
1.11208
1.19125
1.26521
1.58179
4.09545
5.90577
5.82357
5.53449
5.39645
5.3726
5.38943
5.42551
5.46257
5.50225
5.53692
5.55771
5.55968
5.54622
5.54026
5.55885
5.59231
5.62488
5.63705
5.63345
5.62623
5.62248
5.62225
5.62385
5.61278
5.59157
5.57046
5.55264
5.53865
5.52723
5.51369
5.49286
5.46681
5.44099
5.4176
5.3977
5.37884
5.35837
5.33577
5.31119
5.28537
5.25997
5.23601
5.21217
5.18615
5.15741
5.12716
5.09686
5.06709
5.03784
5.0087
4.97905
4.94915
4.92153
4.90047
4.88586
4.86449
4.83265
4.79779
4.76062
4.72523
4.69143
4.66042
4.63426
4.61185
4.58711
4.55729
4.52492
4.49198
4.45769
4.42106
4.38345
4.34495
4.30798
4.27396
4.24249
4.21143
4.1807
4.14938
4.11684
4.08489
4.05298
4.02073
3.9882
3.95704
3.92857
3.90048
3.87135
3.84171
3.81122
3.78012
3.74899
3.71806
3.68689
3.65563
3.62584
3.59819
3.57158
3.54481
3.51682
3.48579
3.45218
3.42226
3.39939
3.37892
3.35774
3.33495
3.30941
3.28056
3.24997
3.2195
3.18992
3.16199
3.13718
3.11577
3.09575
3.07503
3.05158
3.02314
2.99083
2.96036
2.93748
2.92006
2.90447
2.8908
2.87643
2.86009
2.83949
2.81083
2.77752
2.74401
2.71282
2.68544
2.66157
2.63548
2.6432
2.72177
3.2329
4.6204
5.16438
4.83347
4.5424
4.43776
4.41942
4.42417
4.45339
4.48128
4.48705
4.48014
4.45418
4.42326
4.40928
4.40439
4.41014
4.42416
4.43208
4.43167
4.42629
4.41461
3.98613
3.01208
2.31602
1.85771
1.46406
1.19323
1.05841
0.935857
0.801074
0.684155
0.618928
0.602199
0.593446
0.558583
0.519915
0.518172
0.513453
0.490578
0.474629
0.47725
0.480565
0.48027
0.484305
0.511393
0.575059
0.65176
0.744889
0.852069
0.945212
1.05162
1.20261
1.32684
1.47085
2.67995
5.64215
6.14601
5.73479
5.55279
5.50432
5.48308
5.49626
5.52866
5.55498
5.56536
5.57025
5.57055
5.55394
5.54536
5.56867
5.60555
5.63707
5.64576
5.631
5.61541
5.60934
5.61054
5.61682
5.60962
5.59252
5.56941
5.54809
5.5257
5.5053
5.49032
5.47747
5.46295
5.44756
5.43019
5.40908
5.3853
5.3591
5.33299
5.30783
5.284
5.26089
5.23636
5.20829
5.17706
5.14559
5.1166
5.09175
5.06855
5.04182
5.01114
4.97979
4.94899
4.92101
4.90134
4.88721
4.86218
4.83071
4.79544
4.75618
4.72041
4.68765
4.65801
4.63569
4.6172
4.59126
4.55816
4.52276
4.48645
4.44987
4.413
4.37661
4.34107
4.30699
4.2739
4.24034
4.20718
4.17547
4.14459
4.11373
4.08305
4.05199
4.02048
3.98901
3.95863
3.92892
3.89871
3.86773
3.83606
3.80406
3.77293
3.74349
3.71516
3.68667
3.65693
3.6261
3.59595
3.56748
3.53995
3.512
3.48264
3.45299
3.42598
3.40182
3.37908
3.35656
3.33304
3.30698
3.27766
3.24654
3.21623
3.18822
3.16245
3.13801
3.11402
3.0905
3.06767
3.04475
3.02119
2.99748
2.97303
2.94648
2.92024
2.89973
2.88371
2.86873
2.8515
2.83085
2.80838
2.78583
2.76058
2.72795
2.68628
2.65344
2.64163
2.66245
2.77917
3.17117
4.34591
5.22092
4.97696
4.64927
4.48324
4.43786
4.43204
4.44049
4.45519
4.46166
4.45773
4.44247
4.42155
4.41333
4.41476
4.4255
4.43542
4.43357
4.42651
4.41065
4.39269
4.33232
3.47037
2.82598
2.3636
1.94446
1.61353
1.42083
1.25075
1.10544
1.00541
0.882068
0.740471
0.719229
0.710669
0.669272
0.633601
0.627542
0.610813
0.582647
0.569817
0.557296
0.538511
0.521367
0.519014
0.525042
0.541536
0.572282
0.628887
0.719042
0.878671
1.05302
1.28166
1.39754
1.66767
4.42078
6.22086
5.79045
5.59529
5.56067
5.58131
5.58847
5.59082
5.57487
5.55464
5.55663
5.57121
5.58004
5.59473
5.61714
5.63269
5.63127
5.6169
5.60419
5.6037
5.60912
5.62311
5.62587
5.61234
5.59099
5.5626
5.53688
5.51572
5.50149
5.49809
5.49761
5.48852
5.4681
5.441
5.40787
5.37303
5.34444
5.3203
5.30082
5.28254
5.25956
5.23041
5.19858
5.16722
5.13822
5.11467
5.09636
5.07409
5.04405
5.01171
4.97876
4.94792
4.92124
4.90397
4.88641
4.85783
4.82589
4.78869
4.7494
4.7153
4.68432
4.65873
4.64118
4.62078
4.58984
4.55517
4.51677
4.47677
4.43918
4.40438
4.37133
4.34
4.30787
4.27348
4.23756
4.20324
4.1718
4.142
4.11224
4.08198
4.05089
4.01875
3.98639
3.95537
3.92539
3.89556
3.86521
3.83361
3.80104
3.76904
3.73917
3.71123
3.68357
3.65452
3.62376
3.59288
3.56341
3.53546
3.50853
3.48251
3.4573
3.43176
3.40511
3.37814
3.35183
3.3257
3.29852
3.26994
3.24102
3.21349
3.18834
3.16494
3.14168
3.11706
3.09006
3.06136
3.03576
3.01642
2.99952
2.982
2.96112
2.93489
2.90391
2.87371
2.84743
2.82529
2.80918
2.79781
2.78425
2.76587
2.73951
2.70199
2.67033
2.67848
2.76856
3.01313
3.27363
3.90101
4.956
5.01477
4.77101
4.56805
4.48468
4.44776
4.4247
4.41806
4.42133
4.42612
4.42625
4.42526
4.42818
4.43369
4.4356
4.42962
4.41974
4.40491
4.38559
4.37434
4.62255
3.85848
3.26432
2.80164
2.35607
2.03791
1.81519
1.58255
1.33689
1.24001
1.14629
0.998665
0.89232
0.877092
0.849222
0.782306
0.74673
0.738275
0.711415
0.67132
0.645623
0.62993
0.611012
0.594265
0.589698
0.596941
0.62851
0.682972
0.740109
0.801063
0.891976
1.0241
1.17485
1.22442
2.34922
5.35454
5.76458
5.64214
5.63968
5.66105
5.65529
5.62779
5.59087
5.56134
5.56169
5.59154
5.62677
5.64277
5.64536
5.63175
5.61046
5.60457
5.61203
5.62344
5.63908
5.64257
5.62991
5.60831
5.58182
5.56084
5.54233
5.52932
5.52404
5.52267
5.51405
5.4909
5.4601
5.42188
5.38406
5.35379
5.33019
5.31676
5.30662
5.28751
5.25811
5.22559
5.1938
5.16401
5.13886
5.12058
5.1018
5.07341
5.04118
5.00758
4.97512
4.94553
4.92335
4.90792
4.88357
4.8524
4.81791
4.77935
4.74356
4.71223
4.68408
4.66306
4.64463
4.61611
4.58265
4.54627
4.50663
4.46781
4.43299
4.40084
4.37106
4.34058
4.30756
4.27207
4.23472
4.20052
4.16981
4.14032
4.11053
4.08035
4.04929
4.01646
3.98217
3.94903
3.91891
3.89056
3.86233
3.83303
3.80204
3.76961
3.73707
3.70605
3.67676
3.64792
3.61891
3.59005
3.56154
3.53358
3.50711
3.48268
3.45908
3.43437
3.40715
3.3772
3.34629
3.31669
3.28894
3.26247
3.23699
3.21239
3.18861
3.16572
3.14336
3.12023
3.09441
3.06474
3.03419
3.01078
2.99453
2.97903
2.96192
2.94028
2.91003
2.87176
2.8359
2.81302
2.7987
2.78533
2.77113
2.75245
2.73432
2.71516
2.7237
2.79671
3.03022
3.36341
3.43256
3.59333
4.38014
4.90752
4.81228
4.64546
4.52994
4.47381
4.43542
4.40282
4.39201
4.39358
4.40423
4.41993
4.43007
4.43008
4.42279
4.41222
4.39878
4.38614
4.37662
4.37481
4.83166
4.17434
3.6344
3.15799
2.72921
2.39875
2.13259
1.90315
1.66618
1.47226
1.3425
1.22159
1.09887
1.05246
1.02936
0.983647
0.901742
0.838388
0.812955
0.781235
0.736443
0.714766
0.698806
0.692999
0.696805
0.721405
0.781716
0.820646
0.864049
0.937185
1.02211
1.05453
1.06865
1.08094
1.1716
3.2781
5.48979
5.62716
5.67141
5.69213
5.69866
5.6555
5.59558
5.57758
5.5885
5.62324
5.658
5.6659
5.65548
5.62583
5.608
5.61315
5.6309
5.653
5.6561
5.6424
5.61495
5.59042
5.5731
5.56084
5.55432
5.54901
5.54011
5.52376
5.49902
5.46905
5.43531
5.40102
5.37044
5.34683
5.33543
5.33188
5.31893
5.29097
5.25784
5.22418
5.19288
5.16474
5.14282
5.12437
5.09873
5.06701
5.03435
5.00164
4.97087
4.9455
4.92867
4.90923
4.87891
4.84569
4.80842
4.77077
4.73854
4.70909
4.68482
4.66521
4.63867
4.60566
4.57046
4.53302
4.49635
4.46313
4.43226
4.40285
4.37188
4.33859
4.30355
4.26636
4.22991
4.1977
4.16717
4.1368
4.10641
4.07631
4.04586
4.01359
3.9785
3.94275
3.91088
3.883
3.85659
3.83022
3.80276
3.77286
3.73949
3.70371
3.66938
3.6391
3.61202
3.58633
3.5605
3.53376
3.50681
3.48114
3.45676
3.43216
3.40555
3.37543
3.34219
3.30929
3.2805
3.25589
3.23333
3.211
3.18781
3.16383
3.14032
3.11788
3.09533
3.07082
3.04278
3.01257
2.98642
2.96711
2.94934
2.92965
2.9066
2.8801
2.85123
2.82187
2.79602
2.77389
2.75501
2.73546
2.72539
2.73876
2.81348
3.02021
3.34946
3.60941
3.5599
3.53568
3.82893
4.56486
4.78623
4.68667
4.56595
4.48624
4.44535
4.42042
4.39961
4.39023
4.39253
4.40117
4.40843
4.40729
4.40125
4.39376
4.38622
4.38182
4.38268
4.38772
5.01115
4.43823
3.93491
3.44406
3.05103
2.73478
2.433
2.15464
1.94465
1.73596
1.56684
1.45535
1.3465
1.22585
1.16447
1.13932
1.08996
0.986978
0.918654
0.892271
0.855716
0.822921
0.824951
0.849048
0.862158
0.904095
0.973272
0.995731
1.03651
1.09842
1.13903
1.1565
1.16559
1.1752
1.19916
1.46146
3.74904
5.62076
5.79279
5.72734
5.67767
5.64286
5.63975
5.63699
5.64853
5.67562
5.68523
5.67673
5.65264
5.62667
5.62077
5.6303
5.65415
5.66409
5.65314
5.62721
5.59456
5.57523
5.56314
5.56284
5.56623
5.55838
5.53622
5.50833
5.47843
5.44911
5.4211
5.39503
5.37406
5.36178
5.35695
5.34654
5.32082
5.28806
5.25415
5.22197
5.19242
5.16786
5.1469
5.12174
5.09118
5.05943
5.02767
4.99695
4.96988
4.9497
4.93204
4.90465
4.87253
4.83805
4.80089
4.76545
4.73407
4.70647
4.68444
4.66054
4.62879
4.59473
4.55861
4.52342
4.49161
4.46258
4.4344
4.40378
4.37024
4.33408
4.29556
4.25762
4.22492
4.19465
4.16426
4.13327
4.10203
4.07133
4.04096
4.00939
3.97504
3.93905
3.90562
3.8763
3.84983
3.82485
3.80008
3.77372
3.74301
3.70594
3.66647
3.63274
3.6058
3.58176
3.55803
3.53307
3.5061
3.47815
3.45123
3.42557
3.39956
3.37136
3.33989
3.30664
3.27616
3.25123
3.22979
3.20898
3.18703
3.16296
3.13744
3.11314
3.0914
3.07046
3.04732
3.01903
2.98633
2.95665
2.93434
2.91622
2.89978
2.88394
2.86585
2.84065
2.80542
2.76874
2.73794
2.72392
2.73554
2.80417
3.00384
3.32167
3.53525
3.65645
3.61899
3.54792
3.58826
4.06135
4.61142
4.69096
4.60614
4.49941
4.44461
4.42995
4.42433
4.41555
4.40127
4.3898
4.38412
4.38102
4.38079
4.38265
4.38559
4.3893
4.39446
4.39547
5.14982
4.64804
4.16518
3.69667
3.34146
3.01421
2.68861
2.41204
2.19909
1.98874
1.78961
1.66386
1.57215
1.47356
1.3478
1.25727
1.21301
1.13722
1.04082
1.0078
0.985328
0.968307
0.996824
1.04458
1.05903
1.12318
1.1721
1.17461
1.20641
1.25404
1.28818
1.3036
1.29716
1.29579
1.31228
1.34559
1.77347
4.05156
5.57842
5.70925
5.6585
5.62269
5.65434
5.68009
5.70432
5.71385
5.69987
5.66901
5.637
5.62613
5.63592
5.65923
5.67666
5.66873
5.64728
5.61041
5.58403
5.56754
5.56328
5.57327
5.57549
5.55413
5.52487
5.49255