/*--------------------------------*- C++ -*----------------------------------*\
  =========                 |
  \\      /  F ield         | OpenFOAM: The Open Source CFD Toolbox
   \\    /   O peration     | Website:  https://openfoam.org
    \\  /    A nd           | Version:  10
     \\/     M anipulation  |
\*---------------------------------------------------------------------------*/
FoamFile
{
    format      ascii;
    class       volScalarField;
    location    "9.5";
    object      T;
}
// * * * * * * * * * * * * * * * * * * * * * * * * * * * * * * * * * * * * * //

dimensions      [0 0 0 1 0 0 0];

internalField   nonuniform List<scalar> 
16128
(
1
1
1
1
1
1
1
1
1
1
1
1
1
1
1
1
1
1
1
1
1
1
1
1
2.07591
2.68764
2.70339
2.71
2.71823
2.72611
2.73395
2.7415
2.74859
2.75514
2.76118
2.7668
2.77204
2.77705
2.78205
2.78691
2.79122
2.79475
2.79786
2.8009
2.80401
2.80651
2.80799
2.8093
1
1
1
1
1
1
1
1
1
1
1
1
1
1
1
1
1
1
1
1
1
1
1
1
2.06454
2.68486
2.7032
2.70985
2.71807
2.72591
2.73368
2.74117
2.74823
2.75474
2.76072
2.76627
2.7715
2.77653
2.7815
2.78622
2.79037
2.79389
2.79712
2.80021
2.8032
2.80545
2.80674
2.80813
1
1
1
1
1
1
1
1
1
1
1
1
1
1
1
1
1
1
1
1
1
1
1
1
2.03728
2.68053
2.70238
2.7091
2.71736
2.72519
2.73293
2.74039
2.74743
2.75391
2.75983
2.76536
2.77064
2.77573
2.78064
2.78516
2.7892
2.79278
2.79611
2.79908
2.80172
2.80368
2.80471
2.80653
1
1
1
1
1
1
1
1
1
1
1
1
1
1
1
1
1
1
1
1
1
1
1
1
1.99568
2.67281
2.70082
2.70775
2.71616
2.724
2.73167
2.73905
2.74601
2.75242
2.75829
2.76381
2.76914
2.77428
2.77914
2.78356
2.78755
2.7912
2.79455
2.79734
2.79958
2.8012
2.80198
2.80479
1
1
1
1
1
1
1
1
1
1
1
1
1
1
1
1
1
1
1
1
1
1
1
1
1.93929
2.66107
2.69793
2.70536
2.71411
2.72208
2.72973
2.737
2.74384
2.75019
2.75603
2.76154
2.7669
2.77206
2.77688
2.78123
2.7852
2.78884
2.79225
2.79514
2.79727
2.79848
2.79751
2.80267
1
1
1
1
1
1
1
1
1
1
1
1
1
1
1
1
1
1
1
1
1
1
1
1
1.8649
2.64353
2.6935
2.70191
2.7113
2.71954
2.72726
2.73447
2.74123
2.74755
2.75342
2.75896
2.76433
2.76947
2.77424
2.77852
2.78239
2.78588
2.78907
2.79178
2.79382
2.79539
2.79377
2.79827
1
1
1
1
1
1
1
1
1
1
1
1
1
1
1
1
1
1
1
1
1
1
1
1
1.77205
2.61835
2.68782
2.69731
2.70739
2.71591
2.72373
2.73089
2.73755
2.74381
2.74972
2.75535
2.76078
2.76592
2.77068
2.77495
2.77876
2.78208
2.78506
2.7877
2.78983
2.79165
2.78948
2.79378
1
1
1
1
1
1
1
1
1
1
1
1
1
1
1
1
1
1
1
1
1
1
1
1
1.66114
2.58637
2.6823
2.69209
2.70258
2.71115
2.71893
2.72596
2.73245
2.73862
2.74462
2.75042
2.75604
2.76128
2.7661
2.77042
2.77421
2.77738
2.78004
2.78247
2.78474
2.78718
2.78555
2.78601
1
1
1
1
1
1
1
1
1
1
1
1
1
1
1
1
1
1
1
1
1
1
1
1
1.52868
2.54245
2.67784
2.68618
2.69697
2.70538
2.71324
2.72031
2.72678
2.73292
2.73896
2.74487
2.75061
2.7559
2.7607
2.76496
2.76863
2.77164
2.77414
2.77644
2.77816
2.77976
2.77881
2.7812
1
1
1
1
1
1
1
1
1
1
1
1
1
1
1
1
1
1
1
1
1
1
1
1
1.3647
2.47495
2.6732
2.67902
2.68957
2.69755
2.7056
2.71302
2.71981
2.72612
2.73229
2.73834
2.7442
2.74954
2.75429
2.75842
2.76194
2.76484
2.76732
2.76965
2.77122
2.77211
2.76954
2.77298
1
1
1
1
1
1
1
1
1
1
1
1
1
1
1
1
1
1
1
1
1
1
1
1
1.17263
2.39463
2.67518
2.67192
2.67995
2.6877
2.69635
2.70437
2.71156
2.71814
2.72448
2.73066
2.73665
2.74208
2.7468
2.7508
2.7541
2.75673
2.75882
2.76069
2.76187
2.76239
2.75917
2.76311
1
1
1
1
1
1
1
1
1
1
1
1
1
1
1
1
1
1
1
1
1
1
1
1
1.00991
2.31466
2.67106
2.6699
2.67518
2.68113
2.68831
2.6959
2.70314
2.70966
2.71586
2.72195
2.72789
2.73333
2.738
2.74185
2.74485
2.7472
2.74896
2.75044
2.75099
2.75069
2.74641
2.74943
1
1
1
1
1
1
1
1
1
1
1
1
1
1
1
1
1
1
1
1
1
1
1
1
1.00005
2.20202
2.66944
2.6704
2.67471
2.67996
2.68542
2.69077
2.69593
2.70141
2.70691
2.71247
2.71802
2.72323
2.72778
2.7315
2.73426
2.73617
2.73694
2.73716
2.73605
2.73439
2.72883
2.73288
1
1
1
1
1
1
1
1
1
1
1
1
1
1
1
1
1
1
1
1
1
1
1
1
1
2.05211
2.65383
2.66912
2.67345
2.67817
2.68219
2.68624
2.69043
2.69434
2.69823
2.70257
2.70717
2.71178
2.71609
2.71954
2.72163
2.72277
2.72244
2.72159
2.71934
2.71628
2.70722
2.70434
1
1
1
1
1
1
1
1
1
1
1
1
1
1
1
1
1
1
1
1
1
1
1
1
1
1.85598
2.60481
2.66134
2.67017
2.67645
2.68075
2.68378
2.6862
2.68837
2.69067
2.69331
2.69627
2.69972
2.70329
2.70583
2.707
2.70721
2.70574
2.70283
2.69664
2.68696
2.67095
2.66435
1
1
1
1
1
1
1
1
1
1
1
1
1
1
1
1
1
1
1
1
1
1
1
1
1
1.60004
2.50679
2.63904
2.65618
2.66734
2.67468
2.6792
2.68201
2.68363
2.68444
2.68514
2.68623
2.68789
2.68959
2.69073
2.69053
2.68935
2.68571
2.67964
2.66899
2.65616
2.6368
2.64023
1
1
1
1
1
1
1
1
1
1
1
1
1
1
1
1
1
1
1
1
1
1
1
1
1
1.25829
2.37905
2.62201
2.63502
2.65002
2.66124
2.66895
2.67409
2.67712
2.67808
2.67779
2.67729
2.67711
2.67612
2.67517
2.673
2.66965
2.66327
2.6541
2.63691
2.61058
2.54485
2.39947
1
1
1
1
1
1
1
1
1
1
1
1
1
1
1
1
1
1
1
1
1
1
1
1
1
1.01959
2.27203
2.62456
2.62178
2.62904
2.6406
2.65165
2.66044
2.66646
2.66926
2.66922
2.66814
2.66637
2.66325
2.6598
2.65492
2.64877
2.63891
2.62459
2.59933
2.55192
2.47607
2.27282
1
1
1
1
1
1
1
1
1
1
1
1
1
1
1
1
1
1
1
1
1
1
1
1
1
1.00006
2.09849
2.60534
2.60803
2.61403
2.6223
2.63245
2.64268
2.65091
2.6565
2.65837
2.65752
2.65522
2.65092
2.64525
2.63726
2.62766
2.61384
2.59393
2.56249
2.509
2.41334
2.21013
1
1
1
1
1
1
1
1
1
1
1
1
1
1
1
1
1
1
1
1
1
1
1
1
1
0.999999
1.83571
2.56187
2.60865
2.61151
2.615
2.61958
2.62629
2.63339
2.64016
2.64418
2.64416
2.64241
2.63785
2.63083
2.6204
2.60732
2.5894
2.56469
2.52771
2.47265
2.36631
2.19762
1
1
1
1
1
1
1
1
1
1
1
1
1
1
1
1
1
1
1
1
1
1
1
1
1
1
1.4583
2.44232
2.60212
2.60476
2.608
2.61054
2.61427
2.61807
2.62302
2.62724
2.62831
2.62724
2.62315
2.61578
2.60419
2.58843
2.56705
2.5382
2.49776
2.4413
2.3394
2.20453
1
1
1
1
1
1
1
1
1
1
1
1
1
1
1
1
1
1
1
1
1
1
1
1
1
1
1.06007
2.29537
2.60083
2.598
2.59949
2.60185
2.60369
2.6047
2.60675
2.60929
2.61053
2.60987
2.6064
2.5994
2.58773
2.57059
2.54728
2.51568
2.47321
2.41517
2.32531
2.21745
1
1
1
1
1
1
1
1
1
1
1
1
1
1
1
1
1
1
1
1
1
1
1
1
1
1
1.00078
2.11523
2.56484
2.57785
2.58613
2.59099
2.59286
2.59273
2.59255
2.59261
2.59234
2.59114
2.58769
2.58115
2.57009
2.5531
2.52939
2.49697
2.45384
2.39662
2.31804
2.22977
1
1
1
1
1
1
1
1
1
1
1
1
1
1
1
1
1
1
1
1
1
1
1
1
1
1
0.999993
1.77724
2.49839
2.56057
2.57449
2.58057
2.58251
2.58233
2.58114
2.57925
2.57666
2.57353
2.56894
2.56205
2.55132
2.53518
2.51231
2.48075
2.43916
2.38457
2.31494
2.24084
1
1
1
1
1
1
1
1
1
1
1
1
1
1
1
1
1
1
1
1
1
1
1
1
1
1
0.999998
1.29923
2.36474
2.55243
2.55742
2.56443
2.56826
2.56951
2.56859
2.56624
2.5623
2.55723
2.55083
2.54276
2.53177
2.51642
2.49506
2.46541
2.42692
2.37622
2.31544
2.25105
1
1
1
1
1
1
1
1
1
1
1
1
1
1
1
1
1
1
1
1
1
1
1
1
1
1
1
1.02299
2.21561
2.53647
2.53698
2.54394
2.54916
2.5534
2.55401
2.55257
2.54877
2.54287
2.53494
2.52523
2.51314
2.49776
2.47755
2.44989
2.41504
2.3694
2.31674
2.25925
1
1
1
1
1
1
1
1
1
1
1
1
1
1
1
1
1
1
1
1
1
1
1
1
1
1
1
1.00006
1.89862
2.48765
2.52462
2.53351
2.53494
2.5378
2.53887
2.53795
2.53471
2.52886
2.52041
2.50957
2.4962
2.48038
2.46029
2.4344
2.40264
2.36239
2.31699
2.2654
1
1
1
1
1
1
1
1
1
1
1
1
1
1
1
1
1
1
1
1
1
1
1
1
1
1
1
1
1.38797
2.3695
2.51787
2.51765
2.51914
2.52134
2.52253
2.52187
2.51923
2.5141
2.50593
2.49523
2.48112
2.46483
2.44397
2.4195
2.39003
2.35441
2.31549
2.2689
1
1
1
1
1
1
1
1
1
1
1
1
1
1
1
1
1
1
1
1
1
1
1
1
1
1
1
1
1.03786
2.19993
2.50009
2.50125
2.50293
2.50521
2.50632
2.50558
2.50311
2.49856
2.49122
2.48095
2.46759
2.45083
2.42993
2.40648
2.37855
2.34661
2.31186
2.27077
1
1
1
1
1
1
1
1
1
1
1
1
1
1
1
1
1
1
1
1
1
1
1
1
1
1
1
1
1.00022
1.8273
2.43958
2.48433
2.48817
2.49173
2.49243
2.49089
2.48767
2.48284
2.47581
2.46616
2.45399
2.43738
2.41747
2.39495
2.36827
2.33911
2.30662
2.27
1
1
1
1
1
1
1
1
1
1
1
1
1
1
1
1
1
1
1
1
1
1
1
1
1
1
1
1
0.999999
1.23306
2.29948
2.48525
2.47634
2.47742
2.47712
2.47487
2.47138
2.46675
2.46018
2.45098
2.43986
2.42453
2.40619
2.38483
2.35963
2.33243
2.30171
2.2687
1
1
1
1
1
1
1
1
1
1
1
1
1
1
1
1
1
1
1
1
1
1
1
1
1
1
1
1
1
1.01255
2.11444
2.45237
2.45489
2.46186
2.4603
2.45785
2.45483
2.4507
2.44444
2.43595
2.42509
2.41135
2.39479
2.3748
2.3515
2.32587
2.29691
2.26651
1
1
1
1
1
1
1
1
1
1
1
1
1
1
1
1
1
1
1
1
1
1
1
1
1
1
1
1
1
1
1.63021
2.36315
2.4445
2.44928
2.44691
2.44431
2.44118
2.43674
2.43019
2.42168
2.41096
2.39794
2.38277
2.36441
2.34327
2.31936
2.29256
2.26405
1
1
1
1
1
1
1
1
1
1
1
1
1
1
1
1
1
1
1
1
1
1
1
1
1
1
1
1
1
0.999997
1.10603
2.20015
2.44198
2.43295
2.4315
2.42981
2.42695
2.42233
2.41562
2.4072
2.39695
2.38465
2.3704
2.35346
2.33408
2.31197
2.28731
2.26055
1
1
1
1
1
1
1
1
1
1
1
1
1
1
1
1
1
1
1
1
1
1
1
1
1
1
1
1
1
0.999999
1.00231
1.8532
2.38306
2.40916
2.4134
2.41508
2.4135
2.40925
2.40257
2.39415
2.384
2.37198
2.35814
2.34204
2.32398
2.30368
2.28101
2.25608
1
1
1
1
1
1
1
1
1
1
1
1
1
1
1
1
1
1
1
1
1
1
1
1
1
1
1
1
1
1
0.999996
1.22373
2.22668
2.41067
2.40287
2.40236
2.40012
2.39553
2.38905
2.38098
2.37118
2.35952
2.34615
2.33077
2.31363
2.29463
2.2735
2.25034
1
1
1
1
1
1
1
1
1
1
1
1
1
1
1
1
1
1
1
1
1
1
1
1
1
1
1
1
1
1
0.999999
1.01115
1.96911
2.37286
2.38416
2.38416
2.38283
2.37969
2.37461
2.36763
2.35857
2.34743
2.33453
2.31963
2.30295
2.28465
2.2648
2.24383
1
1
1
1
1
1
1
1
1
1
1
1
1
1
1
1
1
1
1
1
1
1
1
1
1
1
1
1
1
1
1
1.00002
1.32838
2.23288
2.3814
2.37407
2.37031
2.36614
2.36081
2.35401
2.34544
2.33492
2.32262
2.3083
2.29205
2.27456
2.25669
2.24086
1
1
1
1
1
1
1
1
1
1
1
1
1
1
1
1
1
1
1
1
1
1
1
1
1
1
1
1
1
1
1
1
1.02488
2.02169
2.35218
2.35896
2.35568
2.35125
2.34588
2.33925
2.3312
2.32137
2.30984
2.29616
2.28057
2.26493
2.25217
2.24792
1
1
1
1
1
1
1
1
1
1
1
1
1
1
1
1
1
1
1
1
1
1
1
1
1
1
1
1
1
1
1
1
1.00011
1.40953
2.22299
2.35003
2.34268
2.33819
2.33265
2.32583
2.31778
2.30814
2.29685
2.28333
2.2699
2.26315
2.26443
2.27536
1
1
1
1
1
1
1
1
1
1
1
1
1
1
1
1
1
1
1
1
1
1
1
1
1
1
1
1
1
1
1
1
1
1.04017
2.02338
2.32941
2.32868
2.32391
2.31854
2.31191
2.30384
2.29424
2.28261
2.269
2.26974
2.27382
2.29358
2.31043
1
1
1
1
1
1
1
1
1
1
1
1
1
1
1
1
1
1
1
1
1
1
1
1
1
1
1
1
1
1
1
1
1
1.00031
1.4235
2.19913
2.31887
2.31044
2.30557
2.29879
2.2905
2.28009
2.26908
2.27117
2.2828
2.30705
2.33106
2.33974
1
1
1
1
1
1
1
1
1
1
1
1
1
1
1
1
1
1
1
1
1
1
1
1
1
1
1
1
1
1
1
1
1
1
1.04361
1.98874
2.30028
2.29874
2.29208
2.28447
2.27556
2.26502
2.26735
2.28458
2.31623
2.34291
2.35892
2.34985
1
1
1
1
1
1
1
1
1
1
1
1
1
1
1
1
1
1
1
1
1
1
1
1
1
1
1
1
1
1
1
1
1
1
1.0004
1.39452
2.16144
2.28822
2.27766
2.27016
2.26108
2.26374
2.28361
2.3241
2.3544
2.37261
2.36656
2.35192
1
1
1
1
1
1
1
1
1
1
1
1
1
1
1
1
1
1
1
1
1
1
1
1
1
1
1
1
1
1
1
1
1
1
1
1.03686
1.90364
2.264
2.26339
2.25426
2.25486
2.27542
2.32558
2.36394
2.38104
2.37846
2.36577
2.35147
1
1
1
1
1
1
1
1
1
1
1
1
1
1
1
1
1
1
1
1
1
1
1
1
1
1
1
1
1
1
1
1
1
1
1
1.00034
1.3131
2.10143
2.24781
2.24445
2.2659
2.32396
2.3752
2.39364
2.38789
2.37728
2.36317
2.35158
1
1
1
1
1
1
1
1
1
1
1
1
1
1
1
1
1
1
1
1
1
1
1
1
1
1
1
1
1
1
1
1
1
1
1
1
1.02216
1.73193
2.18787
2.24713
2.31296
2.37946
2.40594
2.3984
2.38687
2.37457
2.36169
2.35267
1
1
1
1
1
1
1
1
1
1
1
1
1
1
1
1
1
1
1
1
1
1
1
1
1
1
1
1
1
1
1
1
1
1
1
1
1.00019
1.18365
2.00008
2.27962
2.37261
2.41441
2.40249
2.38972
2.38011
2.37097
2.36099
2.35405
1
1
1
1
1
1
1
1
1
1
1
1
1
1
1
1
1
1
1
1
1
1
1
1
1
1
1
1
1
1
1
1
1
1
1
1
1
1.00736
1.57172
2.29691
2.41891
2.41336
2.39447
2.38054
2.37294
2.36744
2.35931
2.35286
1
1
1
1
1
1
1
1
1
1
1
1
1
1
1
1
1
1
1
1
1
1
1
1
1
1
1
1
1
1
1
1
1
1
1
1
1
1.00004
1.17996
2.36839
2.48246
2.43547
2.40114
2.38146
2.37348
2.3682
2.36036
2.35275
1
1
1
1
1
1
1
1
1
1
1
1
1
1
1
1
1
1
1
1
1
1
1
1
1
1
1
1
1
1
1
1
1
1
1
1
1
1
1.08597
2.36046
2.53406
2.47672
2.43266
2.40592
2.3921
2.37919
2.36549
2.35494
1
1
1
1
1
1
1
1
1
1
1
1
1
1
1
1
1
1
1
1
1
1
1
1
1
1
1
1
1
1
1
1
1
1
1
1
1
1
1.00371
2.23554
2.61722
2.56386
2.51744
2.4738
2.44263
2.41533
2.38958
2.36967
1
1
1
1
1
1
1
1
1
1
1
1
1
1
1
1
1
1
1
1
1
1
1
1
1
1
1
1
1
1
1
1
1
1
1
1
1
1
1.00002
2.06795
2.63784
2.62065
2.58996
2.54868
2.5072
2.46813
2.43346
2.40643
1
1
1
1
1
1
1
1
1
1
1
1
1
1
1
1
1
1
1
1
1
1
1
1
1
1
1
1
1
1
1
1
1
1
1
1
1
1
1
1.838
2.60219
2.62819
2.61862
2.60166
2.57304
2.53855
2.50397
2.47148
1
1
1
1
1
1
1
1
1
1
1
1
1
1
1
1
1
1
1
1
1
1
1
1
1
1
1
1
1
1
1
1
1
1
1
1
1
1
1
1.54888
2.50093
2.63558
2.62543
2.6133
2.60014
2.58263
2.55911
2.53227
1
1
1
1
1
1
1
1
1
1
1
1
1
1
1
1
1
1
1
1
1
1
1
1
1
1
1
1
1
1
1
1
1
1
1
1
1
1
1
1.21389
2.37485
2.63119
2.62006
2.61521
2.6094
2.60016
2.58681
2.57013
1
1
1
1
1
1
1
1
1
1
1
1
1
1
1
1
1
1
1
1
1
1
1
1
1
1
1
1
1
1
1
1
1
1
1
1
1
1
1
1.01244
2.29876
2.63227
2.61802
2.61274
2.60863
2.60321
2.59652
2.58687
1
1
1
1
1
1
1
1
1
1
1
1
1
1
1
1
1
1
1
1
1
1
1
1
1
1
1
1
1
1
1
1
1
1
1
1
1
1
1
1.00003
2.18898
2.63561
2.62724
2.6197
2.61345
2.60696
2.60048
2.59322
1
1
1
1
1
1
1
1
1
1
1
1
1
1
1
1
1
1
1
1
1
1
1
1
1
1
1
1
1
1
1
1
1
1
1
1
1
1
1
1
2.04553
2.64
2.63853
2.63061
2.62276
2.61427
2.60656
2.59913
1
1
1
1
1
1
1
1
1
1
1
1
1
1
1
1
1
1
1
1
1
1
1
1
1
1
1
1
1
1
1
1
1
1
1
1
1
1
1
1
1.88203
2.61648
2.64616
2.63804
2.63121
2.62285
2.61462
2.6064
1
1
1
1
1
1
1
1
1
1
1
1
1
1
1
1
1
1
1
1
1
1
1
1
1
1
1
1
1
1
1
1
1
1
1
1
1
1
1
1
1.69752
2.56082
2.65001
2.64113
2.63538
2.62745
2.61938
2.6112
1
1
1
1
1
1
1
1
1
1
1
1
1
1
1
1
1
1
1
1
1
1
1
1
1
1
1
1
1
1
1
1
1
1
1
1
1
1
1
1
1.48226
2.48214
2.64757
2.63527
2.63052
2.62442
2.61808
2.61106
1
1
1
1
1
1
1
1
1
1
1
1
1
1
1
1
1
1
1
1
1
1
1
1
1
1
1
1
1
1
1
1
1
1
1
1
1
1
1
1
1.25268
2.40536
2.64327
2.62998
2.62606
2.62116
2.61612
2.61039
1
1
1
1
1
1
1
1
1
1
1
1
1
1
1
1
1
1
1
1
1
1
1
1
1
1
1
1
1
1
1
1
1
1
1
1
1
1
1
1
1.10297
2.36989
2.65396
2.6364
2.6284
2.62207
2.61652
2.61058
1
1
1
1
1
1
1
1
1
1
1
1
1
1
1
1
1
1
1
1
1
1
1
1
1
1
1
1
1
1
1
1
1
1
1
1
1
1
1
1
1.00705
2.31679
2.66523
2.64938
2.63938
2.63084
2.62293
2.61522
1
1
1
1
1
1
1
1
1
1
1
1
1
1
1
1
1
1
1
1
1
1
1
1
1
1
1
1
1
1
1
1
1
1
1
1
1
1
1
1
1.00004
2.24098
2.67054
2.66313
2.65292
2.64295
2.63339
2.62452
1
1
1
1
1
1
1
1
1
1
1
1
1
1
1
1
1
1
1
1
1
1
1
1
1
1
1
1
1
1
1
1
1
1
1
1
1
1
1
1
1
2.16292
2.66583
2.66648
2.65835
2.65132
2.64296
2.63432
1
1
1
1
1
1
1
1
1
1
1
1
1
1
1
1
1
1
1
1
1
1
1
1
1
1
1
1
1
1
1
1
1
1
1
1
1
1
1
1
1
2.07405
2.65159
2.66703
2.65896
2.65356
2.64661
2.63931
1
1
1
1
1
1
1
1
1
1
1
1
1
1
1
1
1
1
1
1
1
1
1
1
1
1
1
1
1
1
1
1
1
1
1
1
1
1
1
1
1
1.98298
2.63286
2.66637
2.65808
2.65341
2.64738
2.6412
1
1
1
1
1
1
1
1
1
1
1
1
1
1
1
1
1
1
1
1
1
1
1
1
1
1
1
1
1
1
1
1
1
1
1
1
1
1
1
1
1
1.89509
2.61505
2.66516
2.65589
2.65147
2.6458
2.63998
1
1
1
1
1
1
1
1
1
1
1
1
1
1
1
1
1
1
1
1
1
1
1
1
1
1
1
1
1
1
1
1
1
1
1
1
1
1
1
1
1
1.81441
2.60075
2.66536
2.65504
2.65038
2.64469
2.63893
1
1
1
1
1
1
1
1
1
1
1
1
1
1
1
1
1
1
1
1
1
1
1
1
1
1
1
1
1
1
1
1
1
1
1
1
1
1
1
1
1
1.74362
2.58905
2.66793
2.65659
2.65125
2.64507
2.63898
1
1
1
1
1
1
1
1
1
1
1
1
1
1
1
1
1
1
1
1
1
1
1
1
1
1
1
1
1
1
1
1
1
1
1
1
1
1
1
1
1
1.68156
2.57679
2.67174
2.65947
2.65342
2.64664
2.64007
1
1
1
1
1
1
1
1
1
1
1
1
1
1
1
1
1
1
1
1
1
1
1
1
1
1
1
1
1
1
1
1
1
1
1
1
1
1
1
1
1
1.61871
2.56253
2.67435
2.66181
2.65575
2.64888
2.64216
1
1
1
1
1
1
1
1
1
1
1
1
1
1
1
1
1
1
1
1
1
1
1
1
1
1
1
1
1
1
1
1
1
1
1
1
1
1
1
1
1
1.55452
2.54814
2.67502
2.66279
2.65719
2.65066
2.64416
1
1
1
1
1
1
1
1
1
1
1
1
1
1
1
1
1
1
1
1
1
1
1
1
1
1
1
1
1
1
1
1
1
1
1
1
1
1
1
1
1
1.50579
2.53702
2.67627
2.6641
2.65865
2.6523
2.64596
1
1
1
1
1
1
1
1
1
1
1
1
1
1
1
1
1
1
1
1
1
1
1
1
1
1
1
1
1
1
1
1
1
1
1
1
1
1
1
1
1
1.47369
2.5296
2.67802
2.66584
2.66032
2.65395
2.64764
1
1
1
1
1
1
1
1
1
1
1
1
1
1
1
1
1
1
1
1
1
1
1
1
1
1
1
1
1
1
1
1
1
1
1
1
1
1
1
1
1
1.44807
2.52231
2.67935
2.66738
2.66186
2.65549
2.64919
1
1
1
1
1
1
1
1
1
1
1
1
1
1
1
1
1
1
1
1
1
1
1
1
1
1
1
1
1
1
1
1
1
1
1
1
1
1
1
1
1
1.42867
2.51616
2.67967
2.66802
2.66256
2.65624
2.64998
1
1
1
1
1
1
1
1
1
1
1
1
1
1
1
1
1
1
1
1
1
1
1
1
1
1
1
1
1
1
1
1
1
1
1
1
1
1
1
1
1
1.42263
2.51372
2.67979
2.66837
2.66299
2.65667
2.65041
1.43631
0.636319
0.807025
0.884448
0.669768
0.629157
0.742761
0.901181
1.03626
1.16625
1.27911
1.29824
1.29448
1.29541
1.32846
1.40446
1.48977
1.55678
1.56501
1.5544
1.53197
1.5326
1.55377
1.56204
1.56892
1.57125
1.57304
1.57504
1.58572
1.58946
1.59309
1.81185
2.4866
2.63431
2.61782
2.61588
2.62863
2.64605
2.6587
2.66808
2.67373
2.67576
2.67549
2.67459
2.67389
2.67355
2.67263
2.6702
2.66648
2.66283
2.66075
2.66027
2.65992
2.65787
2.6536
2.64855
2.64402
2.64061
2.63788
2.63505
2.63139
2.62657
2.62071
2.61456
2.60895
2.60431
2.60058
2.59731
2.5938
2.58941
2.58396
2.57796
2.57217
2.56708
2.56269
2.55851
2.55388
2.5484
2.54218
2.53561
2.52908
2.52276
2.51664
2.51081
2.50547
2.50067
2.49609
2.49118
2.48572
2.47989
2.47395
2.46797
2.46193
2.45593
2.45007
2.44445
2.43915
2.43425
2.42964
2.42503
2.42005
2.41449
2.40841
2.40205
2.3956
2.38919
2.38291
2.37693
2.37146
2.36665
2.36209
2.3571
2.35124
2.34459
2.33782
2.33119
2.32485
2.31893
2.31367
2.30917
2.30501
2.30047
2.29518
2.28928
2.2829
2.27628
2.26955
2.26289
2.25647
2.25033
2.24483
2.24019
2.23603
2.23175
2.22694
2.22122
2.21475
2.20711
2.19909
2.19218
2.18644
2.18213
2.17856
2.17486
2.17093
2.16665
2.16171
2.15593
2.14892
2.14141
2.13519
2.13033
2.12682
2.12345
2.11899
2.11379
2.10748
2.1003
2.09324
2.08707
2.08217
2.07882
2.07615
2.07288
2.06877
2.06332
2.05674
2.05053
2.08688
2.20408
2.29901
2.34637
2.37047
2.39048
2.40111
2.40858
2.41077
2.40875
2.40363
2.39821
2.39408
2.39337
2.39644
2.40163
2.40458
2.40319
2.39917
2.39435
2.39049
2.38865
2.38887
2.38889
1.74817
1.29946
1.12463
1.1067
1.03092
0.899631
0.852833
0.851666
0.864751
0.908387
0.981054
1.06271
1.1089
1.14273
1.16844
1.2073
1.26323
1.31265
1.36783
1.41344
1.43641
1.4583
1.48332
1.50357
1.51748
1.52949
1.53749
1.54351
1.55917
1.57114
1.56935
1.61953
2.29539
2.60909
2.60834
2.61008
2.61924
2.63267
2.64379
2.6537
2.66209
2.66722
2.66881
2.6682
2.66594
2.66298
2.6605
2.65867
2.65718
2.65563
2.65379
2.65156
2.64875
2.64541
2.64197
2.63869
2.63562
2.63278
2.62986
2.62647
2.6226
2.61836
2.61371
2.60871
2.60379
2.59936
2.59551
2.59203
2.58842
2.5843
2.57952
2.57425
2.56889
2.56382
2.55907
2.55449
2.54979
2.5448
2.53944
2.53373
2.52777
2.52172
2.51576
2.50999
2.5045
2.49931
2.49438
2.48957
2.48463
2.47935
2.47367
2.46765
2.46144
2.4552
2.44919
2.44361
2.43852
2.43377
2.42915
2.42438
2.41921
2.41357
2.40754
2.40123
2.3948
2.38841
2.38218
2.37626
2.37084
2.36586
2.36103
2.35603
2.35036
2.3441
2.33775
2.33133
2.32513
2.31934
2.31398
2.3091
2.30457
2.29981
2.29437
2.28847
2.28235
2.276
2.26949
2.26291
2.25666
2.25111
2.24604
2.2415
2.23717
2.23219
2.22655
2.22022
2.21342
2.2069
2.20098
2.19522
2.18979
2.18517
2.18113
2.17714
2.17249
2.16726
2.1614
2.15519
2.14954
2.14464
2.13953
2.13356
2.12766
2.12225
2.11663
2.11122
2.10649
2.10231
2.09863
2.09465
2.08953
2.08335
2.07759
2.07251
2.06743
2.06181
2.05531
2.04757
2.0628
2.15511
2.28899
2.36793
2.38515
2.38925
2.39417
2.39767
2.40034
2.40182
2.40135
2.3996
2.3974
2.39616
2.39674
2.3978
2.39797
2.39695
2.39405
2.39159
2.3898
2.38861
2.38821
2.3874
1.91219
1.64394
1.42682
1.35311
1.24946
1.09915
1.06035
1.04178
1.00655
1.00762
1.02687
1.03282
1.02713
1.02513
1.02988
1.04158
1.07006
1.11108
1.16359
1.23613
1.31137
1.34786
1.37077
1.40669
1.43595
1.46131
1.48432
1.49792
1.51137
1.52177
1.52846
1.54489
1.92764
2.50542
2.61418
2.6054
2.59983
2.59631
2.59924
2.60596
2.61576
2.62386
2.62894
2.63142
2.63124
2.62875
2.62575
2.62295
2.6218
2.62167
2.62079
2.61778
2.61354
2.61002
2.60815
2.60751
2.60703
2.60532
2.60228
2.59871
2.59521
2.59238
2.59027
2.58807
2.58511
2.58154
2.57776
2.57401
2.57033
2.5665
2.56239
2.55793
2.55322
2.54842
2.54374
2.53937
2.53535
2.53149
2.52751
2.52313
2.51824
2.513
2.50771
2.50251
2.49731
2.49205
2.48698
2.48252
2.47855
2.47409
2.46855
2.46233
2.45593
2.44966
2.44371
2.43832
2.43351
2.42904
2.42445
2.4194
2.41387
2.40805
2.402
2.3957
2.38916
2.38262
2.37635
2.37054
2.36536
2.36049
2.35571
2.35084
2.34534
2.33969
2.33395
2.32802
2.32203
2.31649
2.31128
2.30637
2.30169
2.29661
2.29118
2.28558
2.27973
2.27366
2.26741
2.26108
2.25526
2.25023
2.24549
2.24069
2.23565
2.22996
2.22356
2.2172
2.2116
2.20675
2.20214
2.19723
2.19182
2.18609
2.18055
2.17512
2.16956
2.16384
2.15826
2.15342
2.14912
2.14487
2.13992
2.13334
2.1256
2.11921
2.1146
2.11066
2.10747
2.10479
2.10136
2.0973
2.09184
2.08423
2.0763
2.06977
2.0644
2.05934
2.05383
2.04614
2.04888
2.08614
2.21999
2.40495
2.44519
2.41262
2.39111
2.38513
2.38478
2.38665
2.39052
2.39316
2.39445
2.39377
2.39112
2.38811
2.38561
2.38411
2.384
2.38436
2.38471
2.38472
2.38389
2.38268
1.98965
1.79454
1.64091
1.53583
1.42995
1.31173
1.25755
1.21197
1.15229
1.12611
1.13206
1.12998
1.11395
1.08306
1.07586
1.08424
1.08772
1.0867
1.09015
1.10584
1.14333
1.19094
1.22902
1.2881
1.34574
1.37513
1.40304
1.42341
1.4397
1.45684
1.48591
1.51218
1.62306
2.24868
2.56291
2.56284
2.53454
2.52075
2.52138
2.52644
2.53574
2.54545
2.55505
2.56317
2.56833
2.56923
2.56696
2.56389
2.56305
2.56337
2.56426
2.56359
2.56168
2.56016
2.55991
2.56035
2.56109
2.56019
2.55814
2.55601
2.55429
2.55308
2.5522
2.55105
2.54892
2.54604
2.54309
2.54034
2.53787
2.53531
2.53227
2.52865
2.52459
2.52032
2.51626
2.51266
2.50938
2.50607
2.50256
2.49889
2.49516
2.49134
2.48741
2.48326
2.4788
2.47407
2.46948
2.46569
2.46274
2.45872
2.45313
2.44711
2.44078
2.43478
2.42913
2.42399
2.41964
2.41585
2.41162
2.40647
2.40074
2.39476
2.38849
2.38185
2.37515
2.36849
2.36227
2.35672
2.35174
2.34695
2.34227
2.33752
2.33253
2.32756
2.3225
2.31727
2.3119
2.3067
2.30188
2.29708
2.29208
2.28698
2.28172
2.27631
2.27086
2.2654
2.25985
2.25426
2.24894
2.24404
2.23933
2.23453
2.22942
2.22369
2.21749
2.21198
2.20767
2.20356
2.19914
2.19446
2.18931
2.18351
2.17723
2.171
2.16505
2.1595
2.1546
2.15036
2.1463
2.14193
2.13687
2.13067
2.1237
2.11722
2.11233
2.10851
2.10499
2.10181
2.09847
2.09475
2.09009
2.08371
2.07623
2.06876
2.06194
2.05576
2.05018
2.04394
2.04555
2.06251
2.16602
2.40266
2.48193
2.43596
2.39392
2.37799
2.37513
2.37596
2.38043
2.38462
2.38562
2.3847
2.38082
2.37581
2.37325
2.37233
2.3732
2.37538
2.37656
2.37641
2.37532
2.3732
2.04941
1.89582
1.76845
1.66976
1.56169
1.47138
1.42621
1.3797
1.31904
1.25864
1.22004
1.20939
1.20484
1.18588
1.16193
1.15854
1.15326
1.13674
1.1263
1.12793
1.13
1.12969
1.13232
1.15084
1.19239
1.23572
1.28208
1.33215
1.37154
1.41404
1.46982
1.5156
1.56119
1.89472
2.41183
2.52857
2.48267
2.46838
2.46996
2.47283
2.47898
2.48757
2.49513
2.5008
2.50566
2.50878
2.50821
2.50755
2.50999
2.51315
2.51593
2.51656
2.51455
2.51333
2.51369
2.51515
2.5172
2.51735
2.51672
2.51498
2.51332
2.51155
2.51003
2.50919
2.50864
2.50794
2.50707
2.50581
2.5039
2.50139
2.49826
2.49478
2.4911
2.48739
2.48379
2.48022
2.47654
2.47282
2.46937
2.46643
2.46408
2.46189
2.45906
2.45549
2.45159
2.44751
2.44356
2.44055
2.43818
2.43409
2.42896
2.42321
2.41686
2.41106
2.40579
2.40111
2.3976
2.39468
2.39057
2.38521
2.37925
2.37288
2.36629
2.35957
2.35297
2.34665
2.34081
2.33539
2.33018
2.32525
2.32071
2.31636
2.312
2.3076
2.30304
2.29829
2.29343
2.28869
2.284
2.27921
2.27427
2.26917
2.26395
2.25882
2.25391
2.24917
2.24439
2.23943
2.23433
2.22938
2.22477
2.22034
2.21584
2.21109
2.20618
2.20158
2.19728
2.19305
2.18876
2.18423
2.17916
2.17344
2.16742
2.16167
2.15642
2.15159
2.14697
2.14235
2.13768
2.13298
2.12818
2.12321
2.11824
2.11316
2.10762
2.10207
2.09757
2.094
2.09077
2.08717
2.08287
2.07806
2.07312
2.06764
2.06047
2.05132
2.04367
2.04072
2.04545
2.07099
2.14998
2.35605
2.4836
2.44838
2.40055
2.37597
2.36882
2.36721
2.36805
2.36971
2.37024
2.3693
2.36674
2.36338
2.36173
2.36167
2.36296
2.36443
2.36418
2.36305
2.3604
2.35702
2.09538
1.96871
1.86242
1.77462
1.67925
1.59348
1.54183
1.48789
1.43657
1.39921
1.34846
1.28021
1.26866
1.26435
1.24369
1.22426
1.21925
1.20829
1.1916
1.18383
1.17629
1.16469
1.15234
1.14982
1.15376
1.16406
1.18288
1.21716
1.26751
1.34228
1.41118
1.49617
1.53214
1.61182
2.22778
2.50927
2.46327
2.44625
2.44826
2.45577
2.46211
2.46674
2.46768
2.46813
2.4712
2.47589
2.47846
2.48131
2.48455
2.4864
2.48623
2.48477
2.4839
2.48476
2.48676
2.4897
2.49091
2.49044
2.48898
2.48627
2.48383
2.48201
2.48105
2.48133
2.48211
2.48191
2.48032
2.4777
2.47418
2.47031
2.46708
2.46416
2.46148
2.45862
2.45499
2.45065
2.44625
2.44229
2.43899
2.43665
2.43513
2.4331
2.42994
2.42636
2.42254
2.41882
2.41542
2.41313
2.41062
2.40634
2.40143
2.39564
2.38946
2.38401
2.37906
2.37502
2.37225
2.36913
2.36446
2.35911
2.353
2.34638
2.33988
2.33365
2.32763
2.32195
2.31633
2.31063
2.305
2.2999
2.29547
2.29142
2.28743
2.28334
2.27902
2.27441
2.26964
2.26498
2.26042
2.25585
2.25116
2.24622
2.24106
2.23594
2.23116
2.22668
2.22227
2.21765
2.2128
2.20801
2.20356
2.19945
2.19556
2.1918
2.18808
2.18412
2.17978
2.1752
2.17059
2.16589
2.16092
2.1557
2.15046
2.14551
2.14101
2.13684
2.13264
2.12812
2.12303
2.11749
2.11249
2.10872
2.10541
2.10191
2.09771
2.09243
2.08612
2.07993
2.07463
2.07024
2.0671
2.06492
2.06224
2.05841
2.05277
2.04507
2.03758
2.03925
2.05867
2.11013
2.16067
2.27178
2.4349
2.44187
2.40624
2.37558
2.36284
2.35583
2.35068
2.34888
2.34895
2.34916
2.34891
2.34827
2.34827
2.34854
2.34857
2.34749
2.34597
2.3436
2.34031
2.33755
2.13182
2.02629
1.93485
1.8539
1.76405
1.69533
1.64467
1.58389
1.50878
1.477
1.44391
1.38881
1.34557
1.33919
1.32691
1.29614
1.27703
1.2713
1.25714
1.23674
1.22294
1.21371
1.20198
1.19151
1.18942
1.19381
1.21191
1.24075
1.26775
1.297
1.33824
1.39457
1.45048
1.46566
1.84484
2.42638
2.47867
2.46334
2.46391
2.46934
2.47106
2.46968
2.46578
2.46266
2.46339
2.46823
2.47315
2.47543
2.47586
2.47419
2.47157
2.47107
2.47256
2.47478
2.47754
2.4785
2.4776
2.47554
2.4726
2.47026
2.46818
2.46677
2.46634
2.46641
2.4656
2.46295
2.45933
2.45476
2.45019
2.4466
2.44381
2.44214
2.44063
2.43761
2.433
2.42799
2.42326
2.41907
2.41578
2.41364
2.41158
2.4083
2.40452
2.40053
2.39663
2.39302
2.39028
2.38834
2.38499
2.38049
2.37535
2.36947
2.36382
2.35873
2.35409
2.35052
2.34742
2.34297
2.33788
2.33236
2.32626
2.3201
2.31433
2.30878
2.30346
2.29801
2.29225
2.28631
2.28034
2.27512
2.27069
2.26664
2.26265
2.25863
2.25443
2.24984
2.24487
2.23994
2.23539
2.23106
2.2267
2.22213
2.21725
2.2121
2.20692
2.20197
2.19733
2.19279
2.18829
2.18392
2.1797
2.17567
2.17196
2.1686
2.16535
2.16181
2.15768
2.15288
2.14771
2.14264
2.13782
2.1332
2.12876
2.12449
2.12038
2.11646
2.11262
2.10861
2.10404
2.09864
2.09298
2.08865
2.08569
2.08285
2.07964
2.07552
2.0697
2.06225
2.05517
2.05069
2.04799
2.04553
2.04293
2.0393
2.0357
2.03175
2.03398
2.04947
2.09756
2.16084
2.17093
2.19606
2.32458
2.40489
2.39159
2.36686
2.34898
2.33923
2.33194
2.32617
2.32412
2.32411
2.32535
2.32731
2.32839
2.32807
2.32657
2.32482
2.32274
2.32058
2.31856
2.31722
2.15607
2.06944
1.99081
1.91299
1.83499
1.77139
1.71531
1.66132
1.60014
1.54543
1.50501
1.46484
1.4218
1.40502
1.3963
1.37862
1.3445
1.31528
1.30315
1.28864
1.26745
1.25627
1.2473
1.24393
1.24591
1.25834
1.28776
1.30601
1.3248
1.3555
1.38907
1.40025
1.40564
1.40992
1.45106
2.11808
2.49524
2.4876
2.48666
2.4876
2.48642
2.47892
2.47049
2.46696
2.46698
2.46983
2.47384
2.47459
2.47271
2.46824
2.46559
2.466
2.46828
2.47137
2.47193
2.47046
2.46716
2.46394
2.46159
2.45981
2.45867
2.45763
2.45616
2.4538
2.45034
2.44617
2.44157
2.43698
2.43291
2.42975
2.42808
2.42733
2.42519
2.42088
2.41568
2.41034
2.40537
2.40099
2.39763
2.39492
2.39139
2.38714
2.38281
2.37851
2.37449
2.37119
2.36902
2.36644
2.36225
2.35752
2.35205
2.34633
2.34118
2.33628
2.33202
2.32843
2.32388
2.31853
2.31299
2.30721
2.30157
2.29637
2.29141
2.28653
2.2813
2.27562
2.26968
2.26348
2.25755
2.25248
2.24788
2.24351
2.23931
2.23523
2.23112
2.22666
2.22163
2.21633
2.21152
2.20724
2.20311
2.19895
2.19458
2.18981
2.18445
2.17868
2.17314
2.16831
2.16407
2.16015
2.1563
2.15237
2.14847
2.14483
2.14143
2.13795
2.13403
2.12935
2.12394
2.11843
2.11355
2.10937
2.10555
2.10177
2.09785
2.09379
2.08981
2.08603
2.08219
2.07794
2.07296
2.06745
2.06265
2.05915
2.05593
2.05232
2.04805
2.04311
2.03761
2.03192
2.02696
2.02279
2.01927
2.01549
2.01361
2.01677
2.03302
2.07503
2.13682
2.17963
2.17015
2.16071
2.2105
2.32478
2.35998
2.34581
2.32762
2.31477
2.30766
2.30326
2.29985
2.29835
2.29861
2.29977
2.30065
2.3003
2.29921
2.29806
2.29683
2.2958
2.2955
2.29534
2.17658
2.1035
2.03341
1.95778
1.89225
1.83599
1.77706
1.71656
1.66785
1.61513
1.56854
1.53642
1.50392
1.46442
1.44205
1.43274
1.41496
1.37591
1.34773
1.33608
1.3201
1.3054
1.30622
1.317
1.32271
1.34068
1.36953
1.37821
1.39322
1.41604
1.43059
1.43681
1.44003
1.4431
1.44989
1.55873
2.19344
2.50087
2.50757
2.49724
2.48601
2.47864
2.4764
2.47384
2.47254
2.47374
2.47404
2.47173
2.46705
2.46244
2.46067
2.46105
2.46354
2.4646
2.46293
2.45936
2.45481
2.45179
2.44962
2.44896
2.44866
2.44679
2.44311
2.43884
2.4343
2.42984
2.42558
2.42162
2.41835
2.4162
2.41501
2.41304
2.40903
2.40397
2.39861
2.39338
2.38847
2.3843
2.38073
2.37673
2.37212
2.36742
2.36276
2.35831
2.35441
2.35151
2.34902
2.34523
2.34078
2.33592
2.33053
2.32519
2.32021
2.31556
2.31156
2.30721
2.30173
2.29601
2.29013
2.28451
2.27946
2.27487
2.27041
2.26554
2.26016
2.25432
2.24806
2.24187
2.23652
2.23165
2.22692
2.22227
2.21776
2.21345
2.20926
2.2049
2.20003
2.19477
2.18976
2.18528
2.18114
2.17717
2.17319
2.16893
2.16396
2.15795
2.15152
2.14606
2.14177
2.13803
2.1344
2.13064
2.12658
2.12241
2.11844
2.11469
2.11084
2.10652
2.10151
2.09603
2.09094
2.08677
2.08321
2.07974
2.07607
2.072
2.06765
2.06351
2.05983
2.05626
2.05223
2.04715
2.04112
2.03559
2.03148
2.0282
2.02524
2.0224
2.01911
2.01444
2.00777
2.00063
1.99437
1.99158
1.99453
2.00947
2.04941
2.10994
2.14464
2.16154
2.15432
2.14039
2.1455
2.22176
2.30379
2.31785
2.30524
2.28905
2.28028
2.27738
2.27603
2.27451
2.27248
2.27092
2.27011
2.26965
2.26965
2.26999
2.27035
2.27063
2.27096
2.27069
2.19262
2.1299
2.06471
1.99594
1.94052
1.88539
1.82522
1.76965
1.72449
1.6762
1.6265
1.59344
1.56858
1.54047
1.50161
1.47143
1.45628
1.42981
1.39461
1.38139
1.37229
1.36604
1.37802
1.3971
1.40218
1.42558
1.44338
1.44369
1.45392
1.46965
1.48088
1.48578
1.48353
1.48274
1.48727
1.4977
1.65294
2.21539
2.45216
2.47711
2.46754
2.46021
2.46329
2.46523
2.4667
2.46693
2.46395
2.45818
2.45238
2.44941
2.44939
2.45078
2.45214
2.45047
2.44699
2.4418
2.43778
2.43485
2.43347
2.43371
2.43312
2.42915
2.42446
2.41954
2.41486
2.4105
2.40695
2.4044
2.40252
2.40079
2.39815
2.39376
2.38861
2.38342
2.3784
2.37371
2.36959
2.36592
2.36154
2.35654
2.35153
2.34667
2.34196
2.33772
2.33427
2.33127
2.32736
2.32293
2.31836
2.31366
2.30893
2.30409
2.29927