/*--------------------------------*- C++ -*----------------------------------*\
  =========                 |
  \\      /  F ield         | OpenFOAM: The Open Source CFD Toolbox
   \\    /   O peration     | Website:  https://openfoam.org
    \\  /    A nd           | Version:  10
     \\/     M anipulation  |
\*---------------------------------------------------------------------------*/
FoamFile
{
    format      ascii;
    class       volVectorField;
    location    "9.5";
    object      U;
}
// * * * * * * * * * * * * * * * * * * * * * * * * * * * * * * * * * * * * * //

dimensions      [0 1 -1 0 0 0 0];

internalField   nonuniform List<vector> 
16128
(
(3 -6.69624e-15 0)
(3 2.84091e-14 0)
(3 3.91776e-14 0)
(3 3.61847e-14 0)
(3 4.15678e-15 0)
(3 1.21753e-14 0)
(3 4.02087e-14 0)
(3 3.21771e-14 0)
(3 1.04265e-14 0)
(3 -3.90797e-14 0)
(3 -7.46713e-14 0)
(3 -6.55295e-14 0)
(3 -6.12069e-14 0)
(3 -4.59265e-14 0)
(3 -2.07541e-14 0)
(3 -1.68928e-14 0)
(3 6.83424e-15 0)
(3 1.35041e-14 0)
(3 -3.12722e-14 0)
(3 -3.59565e-14 0)
(3 -1.32787e-14 0)
(3 -3.13137e-14 0)
(3 -4.23023e-14 0)
(3 -5.00626e-14 0)
(1.43635 0.00788719 0)
(0.77301 0.00703252 0)
(0.727007 0.0125883 0)
(0.697489 0.013057 0)
(0.666348 0.0131338 0)
(0.636379 0.0130096 0)
(0.60689 0.0129153 0)
(0.577738 0.013002 0)
(0.548504 0.0132981 0)
(0.51874 0.0137764 0)
(0.488151 0.0142836 0)
(0.45706 0.0145683 0)
(0.42607 0.0146845 0)
(0.395067 0.0149317 0)
(0.363374 0.0153441 0)
(0.330745 0.0158037 0)
(0.297528 0.0162902 0)
(0.263754 0.0169194 0)
(0.228808 0.0176605 0)
(0.191885 0.0184923 0)
(0.153048 0.0191577 0)
(0.112276 0.0205369 0)
(0.0682406 0.0220537 0)
(0.0235416 0.0224973 0)
(3 -1.11996e-14 0)
(3 2.50239e-14 0)
(3 2.76392e-14 0)
(3 4.20358e-14 0)
(3 2.28392e-14 0)
(3 3.74989e-14 0)
(3 2.66055e-14 0)
(3 -1.51008e-14 0)
(3 -9.82924e-15 0)
(3 -1.23107e-14 0)
(3 -2.66043e-14 0)
(3 -3.25403e-14 0)
(3 -7.69437e-14 0)
(3 -4.4505e-14 0)
(3 -1.22567e-14 0)
(3 -1.04049e-14 0)
(3 -3.43162e-14 0)
(3 -1.27873e-14 0)
(3 -5.32893e-14 0)
(3 -7.07511e-14 0)
(3 -6.28308e-14 0)
(3 -5.92967e-14 0)
(3 -9.25088e-14 0)
(3 -1.15829e-13 0)
(1.45243 0.0374797 0)
(0.768624 0.0301843 0)
(0.71956 0.0374007 0)
(0.689861 0.0380137 0)
(0.658622 0.0380521 0)
(0.628575 0.0375801 0)
(0.599049 0.037265 0)
(0.569895 0.0375832 0)
(0.540667 0.0385928 0)
(0.510926 0.0401798 0)
(0.480381 0.0418809 0)
(0.449299 0.04289 0)
(0.418252 0.0433052 0)
(0.387191 0.0440452 0)
(0.355605 0.0453277 0)
(0.323352 0.0469048 0)
(0.290703 0.0486527 0)
(0.257574 0.0507244 0)
(0.223446 0.0528698 0)
(0.187765 0.0552956 0)
(0.150511 0.0575059 0)
(0.11122 0.0624633 0)
(0.0678777 0.0677387 0)
(0.0240042 0.0689658 0)
(3 1.68215e-15 0)
(3 4.31102e-15 0)
(3 -1.5043e-14 0)
(3 -1.10037e-14 0)
(3 3.70808e-14 0)
(3 5.25368e-14 0)
(3 -8.43492e-15 0)
(3 -1.38286e-13 0)
(3 -1.17771e-13 0)
(3 -3.99631e-14 0)
(3 7.68773e-15 0)
(3 1.04972e-14 0)
(3 -1.30958e-14 0)
(3 1.02071e-14 0)
(3 2.67508e-14 0)
(3 3.53867e-14 0)
(3 -3.47195e-14 0)
(3 -3.37506e-14 0)
(3 -1.57136e-15 0)
(3 -3.33512e-14 0)
(3 -4.79738e-14 0)
(3 -3.68019e-14 0)
(3 -1.04689e-13 0)
(3 -1.61022e-13 0)
(1.50145 0.066083 0)
(0.773726 0.0536266 0)
(0.721406 0.0634823 0)
(0.690938 0.0645882 0)
(0.6588 0.0647198 0)
(0.627847 0.0639278 0)
(0.597465 0.0632728 0)
(0.567563 0.0636145 0)
(0.537731 0.0651332 0)
(0.507563 0.0676776 0)
(0.476706 0.0704715 0)
(0.44522 0.0721161 0)
(0.413561 0.0727103 0)
(0.381783 0.0738154 0)
(0.349599 0.0758373 0)
(0.316898 0.0782701 0)
(0.283762 0.0807435 0)
(0.25011 0.0835881 0)
(0.215805 0.0865656 0)
(0.180823 0.0903781 0)
(0.144963 0.0941508 0)
(0.107739 0.103072 0)
(0.0659565 0.112175 0)
(0.0245215 0.113714 0)
(3 4.32325e-15 0)
(3 1.43662e-14 0)
(3 3.43149e-14 0)
(3 -1.14537e-14 0)
(3 -3.12077e-14 0)
(3 -2.70501e-14 0)
(3 -4.56205e-14 0)
(3 -6.71047e-14 0)
(3 -9.20343e-14 0)
(3 -1.16892e-13 0)
(3 -9.97909e-14 0)
(3 -6.00965e-14 0)
(3 -6.82688e-15 0)
(3 6.147e-14 0)
(3 7.64283e-14 0)
(3 7.45633e-14 0)
(3 9.79935e-15 0)
(3 8.31197e-15 0)
(3 -5.75203e-15 0)
(3 -1.09383e-14 0)
(3 5.41748e-14 0)
(3 1.22029e-15 0)
(3 -9.56241e-14 0)
(3 -1.49691e-13 0)
(1.57618 0.0922393 0)
(0.780443 0.077615 0)
(0.724159 0.0893032 0)
(0.694048 0.0908604 0)
(0.662081 0.0912138 0)
(0.631166 0.0902605 0)
(0.600711 0.0893425 0)
(0.570712 0.0897131 0)
(0.540828 0.0917474 0)
(0.510696 0.0952912 0)
(0.479885 0.0992903 0)
(0.448209 0.101796 0)
(0.41601 0.102869 0)
(0.383453 0.104667 0)
(0.350434 0.107715 0)
(0.316794 0.111156 0)
(0.282442 0.11433 0)
(0.247344 0.117775 0)
(0.211713 0.121142 0)
(0.176007 0.12577 0)
(0.139798 0.130224 0)
(0.103486 0.14279 0)
(0.063189 0.155374 0)
(0.0250143 0.156695 0)
(3 2.75487e-15 0)
(3 2.40674e-14 0)
(3 4.52119e-14 0)
(3 2.54226e-14 0)
(3 -3.46377e-14 0)
(3 -3.85369e-14 0)
(3 -2.43851e-14 0)
(3 2.98615e-14 0)
(3 -1.99174e-14 0)
(3 -6.54832e-14 0)
(3 -4.45936e-14 0)
(3 -3.89171e-14 0)
(3 3.02348e-14 0)
(3 1.16061e-13 0)
(3 1.28522e-13 0)
(3 8.74152e-14 0)
(3 2.20365e-14 0)
(3 -1.70911e-14 0)
(3 -1.78563e-15 0)
(3 4.18534e-14 0)
(3 2.54204e-14 0)
(3 -4.82765e-15 0)
(3 -6.08267e-14 0)
(3 -1.45099e-13 0)
(1.67928 0.118241 0)
(0.789377 0.103039 0)
(0.725714 0.115145 0)
(0.695629 0.117091 0)
(0.66365 0.117793 0)
(0.632664 0.116837 0)
(0.602072 0.115666 0)
(0.572005 0.115899 0)
(0.542266 0.118225 0)
(0.512572 0.122604 0)
(0.482419 0.127786 0)
(0.451328 0.131286 0)
(0.419512 0.13299 0)
(0.387212 0.135592 0)
(0.354417 0.139788 0)
(0.320852 0.144438 0)
(0.286224 0.148597 0)
(0.250409 0.153043 0)
(0.21347 0.157151 0)
(0.175949 0.162981 0)
(0.137239 0.167869 0)
(0.100095 0.183087 0)
(0.0613509 0.195223 0)
(0.0349301 0.197685 0)
(3 2.09693e-15 0)
(3 -1.47569e-14 0)
(3 -3.36753e-14 0)
(3 -1.93989e-15 0)
(3 1.27417e-14 0)
(3 7.0905e-15 0)
(3 2.47069e-14 0)
(3 3.68475e-14 0)
(3 5.71496e-14 0)
(3 3.35564e-14 0)
(3 1.20491e-14 0)
(3 -6.62848e-15 0)
(3 4.12049e-14 0)
(3 3.80875e-14 0)
(3 3.54122e-14 0)
(3 2.04573e-14 0)
(3 2.24212e-14 0)
(3 1.64541e-14 0)
(3 5.50243e-14 0)
(3 7.40043e-14 0)
(3 3.79819e-14 0)
(3 1.92805e-14 0)
(3 4.67609e-15 0)
(3 -8.18775e-15 0)
(1.81856 0.142165 0)
(0.804001 0.130363 0)
(0.72872 0.141618 0)
(0.698526 0.143422 0)
(0.666584 0.144514 0)
(0.635591 0.143796 0)
(0.604808 0.142535 0)
(0.574466 0.142568 0)
(0.544536 0.144961 0)
(0.514886 0.149957 0)
(0.48502 0.156278 0)
(0.454176 0.160934 0)
(0.422428 0.163426 0)
(0.390096 0.166876 0)
(0.357239 0.172244 0)
(0.32355 0.178231 0)
(0.288684 0.18359 0)
(0.252607 0.189342 0)
(0.215292 0.194473 0)
(0.177457 0.202118 0)
(0.137584 0.207642 0)
(0.100021 0.224526 0)
(0.0596062 0.233156 0)
(0.0404864 0.239369 0)
(3 5.79206e-15 0)
(3 -3.27082e-14 0)
(3 -2.23514e-14 0)
(3 9.38035e-16 0)
(3 1.92496e-14 0)
(3 5.35032e-14 0)
(3 5.69401e-14 0)
(3 5.33583e-14 0)
(3 7.60268e-14 0)
(3 4.82897e-14 0)
(3 -3.96383e-14 0)
(3 -5.80329e-14 0)
(3 1.48776e-15 0)
(3 1.26838e-14 0)
(3 2.77427e-14 0)
(3 5.67235e-14 0)
(3 4.22065e-14 0)
(3 7.61096e-14 0)
(3 7.53723e-14 0)
(3 5.20191e-14 0)
(3 5.10677e-14 0)
(3 7.58318e-14 0)
(3 1.33274e-13 0)
(3 1.09553e-13 0)
(1.99226 0.160916 0)
(0.824774 0.159849 0)
(0.733226 0.167756 0)
(0.703967 0.168938 0)
(0.673111 0.170333 0)
(0.643162 0.170065 0)
(0.613036 0.168982 0)
(0.583065 0.168889 0)
(0.553425 0.171181 0)
(0.524168 0.176535 0)
(0.494849 0.18388 0)
(0.464404 0.189879 0)
(0.432724 0.193424 0)
(0.400223 0.197885 0)
(0.367017 0.204555 0)
(0.332813 0.212092 0)
(0.297275 0.218901 0)
(0.260562 0.226227 0)
(0.222429 0.232483 0)
(0.183826 0.242083 0)
(0.142434 0.248153 0)
(0.10415 0.266396 0)
(0.0616392 0.272342 0)
(0.0418304 0.281857 0)
(3 -8.4639e-15 0)
(3 -4.55123e-15 0)
(3 2.50396e-14 0)
(3 3.65778e-14 0)
(3 2.12663e-14 0)
(3 7.13065e-15 0)
(3 1.68252e-14 0)
(3 4.18505e-14 0)
(3 1.49843e-15 0)
(3 -2.56381e-14 0)
(3 -2.92319e-14 0)
(3 -2.94088e-14 0)
(3 -6.75415e-14 0)
(3 -3.17769e-14 0)
(3 3.1702e-14 0)
(3 1.10568e-13 0)
(3 8.70947e-14 0)
(3 5.61599e-14 0)
(3 3.96486e-14 0)
(3 -1.04852e-14 0)
(3 -6.50224e-15 0)
(3 4.65141e-14 0)
(3 1.48579e-13 0)
(3 8.75799e-14 0)
(2.19644 0.174772 0)
(0.848736 0.194848 0)
(0.731539 0.193895 0)
(0.702645 0.194433 0)
(0.672315 0.196002 0)
(0.643129 0.19656 0)
(0.61344 0.196014 0)
(0.583746 0.195938 0)
(0.554461 0.197966 0)
(0.525899 0.203372 0)
(0.497835 0.211603 0)
(0.468886 0.219078 0)
(0.438553 0.22387 0)
(0.407239 0.229421 0)
(0.374967 0.237451 0)
(0.341312 0.24673 0)
(0.305799 0.25527 0)
(0.268903 0.264495 0)
(0.230265 0.271913 0)
(0.191421 0.283285 0)
(0.148875 0.289686 0)
(0.109512 0.309902 0)
(0.0632899 0.317504 0)
(0.0360583 0.323896 0)
(3 -1.79087e-14 0)
(3 -2.4803e-15 0)
(3 1.6535e-14 0)
(3 -2.08779e-15 0)
(3 -2.45608e-14 0)
(3 -1.22332e-13 0)
(3 -1.04452e-13 0)
(3 -7.41668e-14 0)
(3 -9.20569e-14 0)
(3 -4.0383e-14 0)
(3 -4.88111e-15 0)
(3 -5.10141e-15 0)
(3 -3.63923e-14 0)
(3 -3.29925e-14 0)
(3 1.71974e-14 0)
(3 4.74112e-14 0)
(3 8.78937e-14 0)
(3 4.94814e-14 0)
(3 3.77541e-15 0)
(3 -2.1318e-14 0)
(3 2.03961e-14 0)
(3 -2.1247e-15 0)
(3 2.07149e-14 0)
(3 -5.83932e-14 0)
(2.43531 0.185355 0)
(0.889139 0.237282 0)
(0.740872 0.220994 0)
(0.714856 0.221302 0)
(0.684262 0.222914 0)
(0.654684 0.224314 0)
(0.623773 0.224467 0)
(0.592603 0.224315 0)
(0.561875 0.225599 0)
(0.532182 0.230222 0)
(0.50375 0.238535 0)
(0.475196 0.247138 0)
(0.445528 0.253177 0)
(0.415124 0.259875 0)
(0.38395 0.269419 0)
(0.351396 0.280828 0)
(0.31659 0.291625 0)
(0.280105 0.303282 0)
(0.240965 0.312179 0)
(0.201412 0.325183 0)
(0.157764 0.332034 0)
(0.11791 0.354517 0)
(0.0720281 0.368826 0)
(0.0284971 0.36941 0)
(3 8.17591e-15 0)
(3 6.48533e-16 0)
(3 -1.42488e-14 0)
(3 -1.49447e-14 0)
(3 -1.31169e-14 0)
(3 -1.99528e-14 0)
(3 -4.64073e-14 0)
(3 -5.08363e-14 0)
(3 -2.49779e-14 0)
(3 3.4598e-15 0)
(3 -5.04001e-15 0)
(3 1.17709e-15 0)
(3 4.6516e-14 0)
(3 7.13874e-14 0)
(3 9.32766e-14 0)
(3 7.71469e-14 0)
(3 7.08854e-14 0)
(3 3.67864e-14 0)
(3 6.00503e-15 0)
(3 -2.24221e-14 0)
(3 -1.17506e-13 0)
(3 -7.01457e-14 0)
(3 -6.86638e-14 0)
(3 -1.6562e-13 0)
(2.70007 0.18263 0)
(0.961531 0.276176 0)
(0.773003 0.235627 0)
(0.748894 0.242456 0)
(0.715815 0.246944 0)
(0.684058 0.251067 0)
(0.650058 0.253237 0)
(0.615342 0.254088 0)
(0.580947 0.25529 0)
(0.547857 0.259044 0)
(0.516741 0.26688 0)
(0.486591 0.276086 0)
(0.455995 0.282987 0)
(0.425259 0.290383 0)
(0.394436 0.301035 0)
(0.362851 0.314512 0)
(0.328886 0.327849 0)
(0.292938 0.342621 0)
(0.252995 0.354202 0)
(0.211766 0.369991 0)
(0.164877 0.378884 0)
(0.120128 0.403039 0)
(0.072977 0.418706 0)
(0.0417728 0.41996 0)
(3 1.18622e-14 0)
(3 1.80437e-14 0)
(3 -7.87449e-15 0)
(3 3.56978e-15 0)
(3 1.52389e-14 0)
(3 7.33339e-14 0)
(3 4.24353e-14 0)
(3 1.7212e-14 0)
(3 -5.45726e-15 0)
(3 -1.75459e-14 0)
(3 -2.9131e-14 0)
(3 -2.4325e-14 0)
(3 -1.98208e-15 0)
(3 5.85657e-14 0)
(3 4.71491e-14 0)
(3 2.73598e-14 0)
(3 -1.17182e-15 0)
(3 -7.49953e-15 0)
(3 -1.4248e-14 0)
(3 -1.65272e-15 0)
(3 -3.65985e-14 0)
(3 -6.03364e-14 0)
(3 -1.34783e-14 0)
(3 -9.9031e-14 0)
(2.94938 0.0823102 0)
(1.05621 0.292529 0)
(0.802577 0.251114 0)
(0.787062 0.263494 0)
(0.753523 0.271712 0)
(0.720469 0.279135 0)
(0.684357 0.284453 0)
(0.647226 0.286981 0)
(0.609948 0.288249 0)
(0.573404 0.290931 0)
(0.538748 0.297697 0)
(0.505773 0.306959 0)
(0.472968 0.314341 0)
(0.440554 0.32191 0)
(0.408776 0.332961 0)
(0.377267 0.348121 0)
(0.343716 0.36403 0)
(0.308642 0.382351 0)
(0.269012 0.397371 0)
(0.228049 0.416644 0)
(0.179897 0.429501 0)
(0.131877 0.456928 0)
(0.0791729 0.470364 0)
(0.0526162 0.475493 0)
(3 1.37153e-15 0)
(3 6.63634e-15 0)
(3 -2.53606e-15 0)
(3 -1.19199e-14 0)
(3 -4.78105e-15 0)
(3 1.61628e-14 0)
(3 4.70678e-14 0)
(3 2.29231e-14 0)
(3 6.85685e-15 0)
(3 -1.06761e-14 0)
(3 -2.36348e-14 0)
(3 -3.62249e-14 0)
(3 -2.80572e-14 0)
(3 -4.80722e-14 0)
(3 -4.08355e-14 0)
(3 -4.76575e-14 0)
(3 -1.0001e-14 0)
(3 -6.38606e-15 0)
(3 2.25838e-15 0)
(3 1.46649e-14 0)
(3 5.5309e-15 0)
(3 -3.35338e-15 0)
(3 2.19513e-14 0)
(3 -2.2581e-14 0)
(3.01842 0.00762012 0)
(1.14737 0.288924 0)
(0.805676 0.266954 0)
(0.795869 0.291691 0)
(0.769221 0.302356 0)
(0.742281 0.309512 0)
(0.71205 0.31509 0)
(0.678483 0.319491 0)
(0.642395 0.322852 0)
(0.605245 0.325817 0)
(0.568518 0.33167 0)
(0.532972 0.340669 0)
(0.497585 0.348299 0)
(0.462667 0.355711 0)
(0.428762 0.366379 0)
(0.396365 0.382505 0)
(0.362728 0.400379 0)
(0.328418 0.422087 0)
(0.288737 0.441349 0)
(0.246873 0.465651 0)
(0.19602 0.484703 0)
(0.145508 0.517887 0)
(0.0855367 0.530675 0)
(0.0555784 0.53875 0)
(3 -2.38557e-15 0)
(3 -1.32421e-14 0)
(3 -4.6706e-15 0)
(3 6.75225e-15 0)
(3 2.17574e-14 0)
(3 1.19948e-14 0)
(3 1.95472e-14 0)
(3 6.38107e-14 0)
(3 2.50685e-14 0)
(3 -1.17064e-14 0)
(3 -4.82456e-14 0)
(3 -3.51173e-14 0)
(3 -2.34852e-14 0)
(3 -7.69986e-14 0)
(3 -7.0738e-14 0)
(3 -7.14765e-14 0)
(3 -4.84152e-14 0)
(3 8.58902e-15 0)
(3 1.60552e-14 0)
(3 1.0531e-14 0)
(3 -1.58992e-14 0)
(3 -3.72086e-14 0)
(3 -5.56373e-14 0)
(3 -3.37883e-14 0)
(3.00065 2.01144e-05 0)
(1.27785 0.305973 0)
(0.79664 0.27532 0)
(0.780056 0.307151 0)
(0.758965 0.325926 0)
(0.737705 0.335613 0)
(0.717139 0.343107 0)
(0.694969 0.349041 0)
(0.668297 0.35423 0)
(0.636506 0.359334 0)
(0.601849 0.36632 0)
(0.56624 0.376147 0)
(0.529489 0.384712 0)
(0.492294 0.392437 0)
(0.455705 0.402233 0)
(0.421482 0.418466 0)
(0.386721 0.437757 0)
(0.352364 0.462902 0)
(0.313039 0.487226 0)
(0.272057 0.517273 0)
(0.22207 0.542568 0)
(0.171966 0.582947 0)
(0.103901 0.599118 0)
(0.0700816 0.612155 0)
(3 -1.6819e-14 0)
(3 -2.62554e-14 0)
(3 -1.13736e-14 0)
(3 -8.23956e-15 0)
(3 -2.63186e-15 0)
(3 9.31287e-15 0)
(3 1.61758e-14 0)
(3 7.76032e-15 0)
(3 -1.26962e-14 0)
(3 -1.3088e-14 0)
(3 -1.24031e-14 0)
(3 4.28647e-15 0)
(3 -3.99622e-14 0)
(3 -9.85171e-14 0)
(3 -1.28165e-13 0)
(3 -1.28877e-13 0)
(3 -7.58005e-14 0)
(3 -4.99346e-14 0)
(3 -2.66238e-14 0)
(3 -8.68532e-15 0)
(3 2.15413e-15 0)
(3 -4.51473e-14 0)
(3 -5.53808e-14 0)
(3 1.21763e-14 0)
(3 -7.58647e-08 0)
(1.4963 0.335493 0)
(0.80794 0.307131 0)
(0.752378 0.316734 0)
(0.736524 0.332144 0)
(0.720427 0.344129 0)
(0.706282 0.356171 0)
(0.691086 0.368071 0)
(0.674557 0.379471 0)
(0.653673 0.388855 0)
(0.627649 0.398797 0)
(0.597555 0.411076 0)
(0.563608 0.422146 0)
(0.526964 0.43158 0)
(0.489046 0.440797 0)
(0.45287 0.456969 0)
(0.416962 0.476776 0)
(0.383036 0.504408 0)
(0.34468 0.53311 0)
(0.304893 0.569586 0)
(0.252244 0.605719 0)
(0.196992 0.661086 0)
(0.116647 0.688043 0)
(0.0717351 0.708803 0)
(3 -3.89939e-15 0)
(3 -3.49054e-15 0)
(3 7.83099e-15 0)
(3 -8.88586e-15 0)
(3 3.02414e-14 0)
(3 2.97352e-14 0)
(3 1.92643e-15 0)
(3 -5.76633e-14 0)
(3 -6.69929e-14 0)
(3 4.81191e-14 0)
(3 7.05512e-14 0)
(3 2.45346e-14 0)
(3 -6.07945e-14 0)
(3 -1.14662e-13 0)
(3 -1.89425e-13 0)
(3 -1.81065e-13 0)
(3 -1.17735e-13 0)
(3 -1.32005e-13 0)
(3 -9.72717e-14 0)
(3 -4.19208e-14 0)
(3 6.62594e-15 0)
(3 2.17163e-14 0)
(3 1.4597e-14 0)
(3 5.10722e-14 0)
(3 -8.5746e-08 0)
(1.82862 0.373535 0)
(0.835987 0.366759 0)
(0.744324 0.345916 0)
(0.725741 0.349323 0)
(0.711512 0.357811 0)
(0.697929 0.367706 0)
(0.684462 0.379361 0)
(0.671162 0.393319 0)
(0.656755 0.408549 0)
(0.639596 0.424214 0)
(0.618678 0.441177 0)
(0.592381 0.456965 0)
(0.561005 0.470455 0)
(0.52502 0.481368 0)
(0.489518 0.497976 0)
(0.453273 0.517684 0)
(0.419515 0.547143 0)
(0.382279 0.580827 0)
(0.344831 0.626422 0)
(0.296249 0.67533 0)
(0.250514 0.744573 0)
(0.167401 0.78877 0)
(0.111071 0.822718 0)
(3 1.40382e-14 0)
(3 1.74262e-14 0)
(3 -1.58786e-14 0)
(3 -1.26541e-14 0)
(3 1.62752e-14 0)
(3 3.48298e-15 0)
(3 -2.51753e-14 0)
(3 -2.71314e-14 0)
(3 2.27335e-14 0)
(3 3.92336e-14 0)
(3 8.80216e-14 0)
(3 1.11433e-13 0)
(3 1.00989e-13 0)
(3 2.49872e-14 0)
(3 -1.98821e-14 0)
(3 -5.12996e-14 0)
(3 -8.28801e-14 0)
(3 -8.87384e-14 0)
(3 -5.87838e-14 0)
(3 -2.9067e-14 0)
(3 -2.37159e-14 0)
(3 -3.62866e-14 0)
(3 -2.93079e-14 0)
(3 7.23125e-14 0)
(3 -1.77536e-08 0)
(2.31111 0.375286 0)
(0.907817 0.436559 0)
(0.783753 0.375 0)
(0.752055 0.372883 0)
(0.725696 0.377096 0)
(0.704896 0.385524 0)
(0.687609 0.396141 0)
(0.672547 0.408858 0)
(0.659042 0.42425 0)
(0.645016 0.442178 0)
(0.63123 0.463293 0)
(0.613737 0.48482 0)
(0.590603 0.504315 0)
(0.561109 0.519875 0)
(0.529575 0.538898 0)
(0.494986 0.559456 0)
(0.463164 0.590786 0)
(0.428905 0.628231 0)
(0.399467 0.679981 0)
(0.356747 0.737513 0)
(0.315925 0.835861 0)
(0.206947 0.945407 0)
(0.161 1.03955 0)
(3 1.71391e-15 0)
(3 2.49252e-15 0)
(3 -9.47203e-15 0)
(3 -1.48311e-14 0)
(3 -3.30558e-14 0)
(3 -1.71205e-14 0)
(3 -4.98908e-15 0)
(3 -1.82453e-14 0)
(3 2.3309e-14 0)
(3 7.07802e-14 0)
(3 1.05893e-13 0)
(3 1.12816e-13 0)
(3 1.00164e-13 0)
(3 8.92779e-14 0)
(3 1.47796e-13 0)
(3 1.1319e-13 0)
(3 4.70903e-14 0)
(3 -4.1413e-14 0)
(3 -1.20647e-13 0)
(3 -1.43851e-13 0)
(3 -1.16798e-13 0)
(3 -6.99775e-14 0)
(3 -6.38303e-14 0)
(3 3.25949e-14 0)
(3 -1.77021e-09 0)
(2.90393 0.1945 0)
(1.07291 0.464812 0)
(0.859981 0.398793 0)
(0.82255 0.394284 0)
(0.776439 0.399848 0)
(0.739021 0.406399 0)
(0.710264 0.415078 0)
(0.687558 0.426587 0)
(0.669797 0.441373 0)
(0.654642 0.459049 0)
(0.641996 0.480922 0)
(0.630138 0.506065 0)
(0.614799 0.531561 0)
(0.593998 0.553808 0)
(0.56936 0.577746 0)
(0.53989 0.600972 0)
(0.512896 0.634396 0)
(0.482963 0.673169 0)
(0.462142 0.731037 0)
(0.426838 0.810103 0)
(0.410625 0.94506 0)
(0.395439 1.09519 0)
(0.540611 1.34549 0)
(3 -1.28559e-15 0)
(3 9.98168e-15 0)
(3 2.01748e-14 0)
(3 9.63363e-15 0)
(3 -4.6624e-14 0)
(3 -4.03674e-14 0)
(3 -2.5418e-14 0)
(3 -3.13377e-14 0)
(3 -2.59217e-16 0)
(3 4.12172e-14 0)
(3 5.03603e-14 0)
(3 5.47957e-15 0)
(3 -3.07508e-14 0)
(3 -2.13184e-14 0)
(3 -1.29062e-14 0)
(3 2.23597e-15 0)
(3 3.24626e-14 0)
(3 8.2837e-14 0)
(3 6.48499e-14 0)
(3 1.33409e-14 0)
(3 -8.71234e-14 0)
(3 -6.3158e-14 0)
(3 -9.55761e-14 0)
(3 -2.57035e-14 0)
(3 -6.81919e-11 0)
(3.04797 0.0122295 0)
(1.26736 0.429 0)
(0.884443 0.429596 0)
(0.857845 0.44665 0)
(0.821695 0.444479 0)
(0.782737 0.442351 0)
(0.74672 0.444657 0)
(0.715931 0.450361 0)
(0.691462 0.461136 0)
(0.672658 0.476462 0)
(0.657912 0.497042 0)
(0.647205 0.52292 0)
(0.637566 0.552052 0)
(0.624393 0.580319 0)
(0.608757 0.610236 0)
(0.58682 0.63813 0)
(0.567465 0.674657 0)
(0.544317 0.715354 0)
(0.532875 0.777671 0)
(0.523515 0.868966 0)
(0.537886 1.00863 0)
(0.625069 1.1601 0)
(0.937881 1.35403 0)
(3 -5.14528e-15 0)
(3 -4.18226e-15 0)
(3 3.36436e-15 0)
(3 -6.38116e-15 0)
(3 -5.23077e-14 0)
(3 -4.79821e-14 0)
(3 -2.16149e-14 0)
(3 2.70557e-14 0)
(3 1.6895e-14 0)
(3 -2.33416e-14 0)
(3 -3.57213e-14 0)
(3 -2.86857e-14 0)
(3 -5.69785e-14 0)
(3 -9.01894e-14 0)
(3 -8.04735e-14 0)
(3 -4.70039e-14 0)
(3 1.70535e-14 0)
(3 1.95515e-14 0)
(3 2.81721e-14 0)
(3 2.76681e-14 0)
(3 -2.56609e-15 0)
(3 -1.51245e-14 0)
(3 -6.36875e-15 0)
(3 3.15222e-14 0)
(3 -1.38653e-12 0)
(3.00182 -7.65698e-06 0)
(1.49028 0.424819 0)
(0.866495 0.459254 0)
(0.8449 0.470491 0)
(0.823231 0.474084 0)
(0.800958 0.475584 0)
(0.774823 0.478213 0)
(0.746205 0.481435 0)
(0.719496 0.487777 0)
(0.696762 0.498655 0)
(0.679399 0.515775 0)
(0.666942 0.539542 0)
(0.660146 0.569429 0)
(0.651864 0.601591 0)
(0.645484 0.636579 0)
(0.632829 0.670149 0)
(0.623462 0.710324 0)
(0.610807 0.753617 0)
(0.610132 0.815868 0)
(0.624797 0.905926 0)
(0.672576 1.02779 0)
(0.823459 1.16557 0)
(1.1455 1.28455 0)
(3 -7.39048e-15 0)
(3 -1.85754e-14 0)
(3 -8.82719e-15 0)
(3 -3.01798e-15 0)
(3 2.29114e-14 0)
(3 2.98324e-14 0)
(3 4.30734e-14 0)
(3 5.84056e-14 0)
(3 1.04027e-14 0)
(3 -3.65956e-14 0)
(3 -9.20379e-14 0)
(3 -1.00076e-13 0)
(3 -4.21833e-14 0)
(3 -3.15248e-14 0)
(3 -4.23804e-14 0)
(3 -6.93125e-15 0)
(3 1.97824e-14 0)
(3 3.46824e-14 0)
(3 2.28144e-14 0)
(3 1.70267e-14 0)
(3 6.69929e-14 0)
(3 1.05596e-13 0)
(3 4.82392e-14 0)
(3 6.0353e-14 0)
(3 2.80702e-15 0)
(3 -2.1623e-07 0)
(1.9275 0.45174 0)
(0.894389 0.49138 0)
(0.831483 0.477249 0)
(0.825918 0.487722 0)
(0.812428 0.496025 0)
(0.795711 0.503562 0)
(0.774359 0.509084 0)
(0.751253 0.515291 0)
(0.727993 0.522882 0)
(0.708868 0.536338 0)
(0.693014 0.556214 0)
(0.686299 0.584155 0)
(0.680391 0.617144 0)
(0.680544 0.65505 0)
(0.677128 0.693995 0)
(0.678626 0.737552 0)
(0.678704 0.783646 0)
(0.690522 0.842628 0)
(0.721066 0.92463 0)
(0.797677 1.02999 0)
(0.969149 1.13873 0)
(1.24969 1.20984 0)
(3 -7.48218e-15 0)
(3 -1.17672e-14 0)
(3 -4.01111e-14 0)
(3 -2.19014e-14 0)
(3 4.15879e-14 0)
(3 5.00525e-14 0)
(3 4.88802e-14 0)
(3 2.73338e-14 0)
(3 -3.97325e-15 0)
(3 2.99085e-15 0)
(3 -1.67734e-14 0)
(3 -4.72332e-14 0)
(3 -3.31164e-14 0)
(3 -3.34387e-14 0)
(3 -6.74988e-14 0)
(3 -7.25949e-14 0)
(3 -7.39574e-14 0)
(3 -3.82413e-14 0)
(3 3.78643e-14 0)
(3 1.25276e-13 0)
(3 1.84401e-13 0)
(3 1.55427e-13 0)
(3 9.30885e-14 0)
(3 2.15662e-14 0)
(3 3.72543e-14 0)
(3 -2.76186e-07 0)
(2.60249 0.359822 0)
(1.01295 0.546139 0)
(0.873545 0.484741 0)
(0.855204 0.494371 0)
(0.837793 0.509035 0)
(0.821269 0.52223 0)
(0.80247 0.532656 0)
(0.783329 0.542399 0)
(0.762198 0.550334 0)
(0.74299 0.562126 0)
(0.725287 0.577241 0)
(0.716287 0.601446 0)
(0.711287 0.632117 0)
(0.71475 0.669462 0)
(0.718733 0.711063 0)
(0.730007 0.75709 0)
(0.743261 0.80568 0)
(0.767783 0.86089 0)
(0.811093 0.931395 0)
(0.903499 1.01831 0)
(1.06735 1.09666 0)
(1.30481 1.14284 0)
(3 1.84307e-15 0)
(3 2.2801e-14 0)
(3 3.816e-14 0)
(3 4.05393e-14 0)
(3 8.13882e-15 0)
(3 1.88806e-14 0)
(3 1.64649e-14 0)
(3 3.60072e-14 0)
(3 3.70153e-14 0)
(3 2.46677e-14 0)
(3 5.22723e-14 0)
(3 8.77754e-14 0)
(3 4.97253e-14 0)
(3 7.96978e-15 0)
(3 -5.04695e-14 0)
(3 -9.42214e-14 0)
(3 -9.0894e-14 0)
(3 -3.08956e-14 0)
(3 7.83092e-15 0)
(3 6.28687e-14 0)
(3 9.35995e-14 0)
(3 9.19566e-14 0)
(3 1.08853e-13 0)
(3 8.38838e-14 0)
(3 1.13783e-13 0)
(3 -5.82962e-08 0)
(3.08212 0.0495238 0)
(1.26601 0.524983 0)
(0.929382 0.513356 0)
(0.897078 0.523053 0)
(0.872625 0.531233 0)
(0.852099 0.540956 0)
(0.833929 0.551552 0)
(0.81763 0.563466 0)
(0.799357 0.573469 0)
(0.781887 0.586248 0)
(0.764346 0.598641 0)
(0.752592 0.618926 0)
(0.74677 0.645948 0)
(0.750498 0.680357 0)
(0.758803 0.720978 0)
(0.776661 0.767124 0)
(0.800943 0.817099 0)
(0.836525 0.870229 0)
(0.89126 0.930292 0)
(0.988599 0.998074 0)
(1.13343 1.0525 0)
(1.32992 1.08008 0)
(3 1.18505e-14 0)
(3 2.31038e-14 0)
(3 4.35116e-14 0)
(3 3.54959e-14 0)
(3 -3.1694e-14 0)
(3 -3.4004e-14 0)
(3 -3.55654e-14 0)
(3 -2.23582e-14 0)
(3 -2.83924e-15 0)
(3 -1.78371e-14 0)
(3 1.12014e-14 0)
(3 1.19793e-13 0)
(3 1.91473e-13 0)
(3 1.4411e-13 0)
(3 5.62678e-14 0)
(3 1.82691e-14 0)
(3 -1.13519e-14 0)
(3 1.40982e-14 0)
(3 3.79582e-14 0)
(3 1.37981e-14 0)
(3 -6.36123e-15 0)
(3 7.89029e-14 0)
(3 5.95526e-14 0)
(3 5.69023e-14 0)
(3 5.52682e-14 0)
(3 -5.94581e-09 0)
(3.00959 0.000136052 0)
(1.49267 0.507007 0)
(0.91928 0.570794 0)
(0.89268 0.555922 0)
(0.876684 0.557553 0)
(0.862372 0.564489 0)
(0.849645 0.574515 0)
(0.838795 0.5872 0)
(0.826406 0.598806 0)
(0.814625 0.612765 0)
(0.80145 0.624735 0)
(0.790953 0.641399 0)
(0.785113 0.663557 0)
(0.788362 0.69321 0)
(0.798936 0.729634 0)
(0.820054 0.772133 0)
(0.851066 0.819922 0)
(0.895153 0.871104 0)
(0.958789 0.924919 0)
(1.05705 0.977764 0)
(1.18209 1.01511 0)
(1.34553 1.03298 0)
(3 -3.15944e-16 0)
(3 -3.37125e-14 0)
(3 -3.77765e-14 0)
(3 -2.86519e-14 0)
(3 6.46938e-15 0)
(3 -4.37721e-15 0)
(3 2.07905e-15 0)
(3 -3.90639e-14 0)
(3 -4.86355e-14 0)
(3 -4.78777e-14 0)
(3 -6.36162e-14 0)
(3 -1.43266e-14 0)
(3 4.96875e-14 0)
(3 6.12168e-14 0)
(3 3.68387e-14 0)
(3 3.21515e-14 0)
(3 3.73272e-14 0)
(3 -3.86868e-15 0)
(3 -3.98025e-14 0)
(3 -9.4894e-14 0)
(3 2.57922e-14 0)
(3 -1.54957e-14 0)
(3 -1.04942e-14 0)
(3 -3.44692e-14 0)
(3 -3.13237e-14 0)
(3 -1.89081e-10 0)
(3.00007 -2.59314e-06 0)
(2.05546 0.511801 0)
(0.966053 0.602989 0)
(0.904209 0.567681 0)
(0.893715 0.572694 0)
(0.881925 0.580017 0)
(0.871211 0.589283 0)
(0.862615 0.602137 0)
(0.85372 0.615246 0)
(0.846583 0.630855 0)
(0.838366 0.644954 0)
(0.831317 0.661166 0)
(0.82674 0.679975 0)
(0.829222 0.705286 0)
(0.840316 0.737005 0)
(0.862149 0.774375 0)
(0.895424 0.81703 0)
(0.943407 0.863384 0)
(1.01123 0.912284 0)
(1.10647 0.954859 0)
(1.21756 0.982456 0)
(1.35757 0.994846 0)
(3 7.46215e-15 0)
(3 -7.73076e-15 0)
(3 -1.51654e-14 0)
(3 -5.83367e-15 0)
(3 5.62955e-14 0)
(3 7.26516e-14 0)
(3 6.11975e-14 0)
(3 6.50605e-14 0)
(3 1.41723e-14 0)
(3 -1.29014e-14 0)
(3 -8.9467e-14 0)
(3 -1.30313e-13 0)
(3 -1.22553e-13 0)
(3 -6.87602e-14 0)
(3 -4.60854e-14 0)
(3 3.08142e-14 0)
(3 5.39873e-14 0)
(3 2.62851e-14 0)
(3 -5.66463e-14 0)
(3 -1.06463e-13 0)
(3 -5.6216e-14 0)
(3 -5.86733e-14 0)
(3 -1.57532e-14 0)
(3 -2.09543e-15 0)
(3 -9.68849e-15 0)
(3 -5.01392e-13 0)
(3.00001 -3.41439e-06 0)
(2.86841 0.250342 0)
(1.15155 0.617343 0)
(0.96129 0.573592 0)
(0.93672 0.580155 0)
(0.916336 0.593204 0)
(0.900517 0.603897 0)
(0.889616 0.617277 0)
(0.880514 0.630826 0)
(0.87548 0.647186 0)
(0.871305 0.663356 0)
(0.868806 0.680631 0)
(0.867818 0.698327 0)
(0.871209 0.719702 0)
(0.882531 0.746488 0)
(0.904144 0.778242 0)
(0.937576 0.81452 0)
(0.986082 0.853849 0)
(1.05356 0.89681 0)
(1.14306 0.932182 0)
(1.24663 0.955527 0)
(1.36914 0.96704 0)
(3 -5.87645e-15 0)
(3 2.23333e-14 0)
(3 4.5186e-14 0)
(3 2.89036e-14 0)
(3 -7.59642e-15 0)
(3 -1.20835e-14 0)
(3 1.0145e-14 0)
(3 3.73015e-14 0)
(3 3.59407e-14 0)
(3 3.85627e-14 0)
(3 -7.42139e-15 0)
(3 -1.1861e-13 0)
(3 -1.85792e-13 0)
(3 -9.94704e-14 0)
(3 2.20233e-14 0)
(3 3.30768e-14 0)
(3 5.56021e-15 0)
(3 -1.57991e-14 0)
(3 -8.00355e-14 0)
(3 -5.38232e-14 0)
(3 -7.3904e-14 0)
(3 -3.08991e-14 0)
(3 -1.68634e-14 0)
(3 9.60846e-15 0)
(3 3.35494e-14 0)
(3 5.41701e-14 0)
(3 -7.23193e-07 0)
(3.05728 0.0135477 0)
(1.4018 0.575025 0)
(0.992031 0.623961 0)
(0.96436 0.620787 0)
(0.938967 0.623222 0)
(0.923303 0.626863 0)
(0.912927 0.636578 0)
(0.904738 0.647464 0)
(0.901344 0.66202 0)
(0.900551 0.67813 0)
(0.902386 0.695835 0)
(0.906232 0.713969 0)
(0.912681 0.733126 0)
(0.924822 0.755628 0)
(0.945921 0.782044 0)
(0.978441 0.81184 0)
(1.02485 0.843651 0)
(1.08777 0.87859 0)
(1.16758 0.906989 0)
(1.26328 0.927868 0)
(1.36992 0.938515 0)
(3 9.40817e-18 0)
(3 3.04903e-14 0)
(3 6.1749e-14 0)
(3 3.69941e-14 0)
(3 -1.38615e-14 0)
(3 -3.08228e-14 0)
(3 -1.74356e-14 0)
(3 4.99449e-15 0)
(3 7.22058e-14 0)
(3 6.29088e-14 0)
(3 9.22172e-14 0)
(3 5.57106e-14 0)
(3 -9.60387e-15 0)
(3 2.58784e-17 0)
(3 5.01298e-14 0)
(3 2.80851e-14 0)
(3 -7.79726e-15 0)
(3 -7.54318e-15 0)
(3 -1.77043e-15 0)
(3 -4.91629e-15 0)
(3 -4.83895e-14 0)
(3 -4.03271e-14 0)
(3 -1.90282e-14 0)
(3 -4.41448e-15 0)
(3 2.13883e-14 0)
(3 7.47732e-14 0)
(3 -7.34227e-08 0)
(3.00193 2.92929e-07 0)
(1.86073 0.566742 0)
(0.999574 0.661586 0)
(0.965829 0.63912 0)
(0.958312 0.644106 0)
(0.94918 0.645909 0)
(0.939635 0.653265 0)
(0.931949 0.661846 0)
(0.928292 0.674391 0)
(0.928784 0.689644 0)
(0.933057 0.70713 0)
(0.940525 0.725987 0)
(0.951249 0.745241 0)
(0.965181 0.765299 0)
(0.986741 0.788051 0)
(1.01884 0.812677 0)
(1.06288 0.839059 0)
(1.1208 0.865746 0)
(1.19141 0.887448 0)
(1.27806 0.905721 0)
(1.37247 0.91496 0)
(3 7.02622e-15 0)
(3 4.42556e-14 0)
(3 2.43578e-14 0)
(3 9.74851e-15 0)
(3 1.37918e-14 0)
(3 5.08062e-14 0)
(3 1.17805e-14 0)
(3 2.81029e-14 0)
(3 8.49257e-14 0)
(3 1.00704e-13 0)
(3 4.71496e-14 0)
(3 1.04977e-14 0)
(3 -2.43593e-14 0)
(3 -6.31751e-14 0)
(3 -1.6579e-14 0)
(3 1.6288e-14 0)
(3 -3.7124e-14 0)
(3 -3.07958e-14 0)
(3 7.06155e-15 0)
(3 -3.18203e-14 0)
(3 -1.22166e-14 0)
(3 -5.90469e-14 0)
(3 -3.63798e-14 0)
(3 -4.47456e-14 0)
(3 -4.8249e-14 0)
(3 -3.07614e-14 0)
(3 -2.32952e-09 0)
(3 -1.80316e-07 0)
(2.73233 0.332769 0)
(1.1496 0.6748 0)
(1.00111 0.638954 0)
(0.990068 0.65052 0)
(0.979525 0.65967 0)
(0.969276 0.668896 0)
(0.961054 0.677122 0)
(0.956467 0.687744 0)
(0.956511 0.701066 0)
(0.961896 0.717259 0)
(0.970776 0.735043 0)
(0.985277 0.754445 0)
(1.00187 0.773318 0)
(1.02551 0.792192 0)
(1.05709 0.812446 0)
(1.0984 0.833607 0)
(1.15 0.852908 0)
(1.21257 0.869171 0)
(1.28891 0.883977 0)
(1.37146 0.890213 0)
(3 4.55316e-15 0)
(3 4.07254e-15 0)
(3 -5.5269e-14 0)
(3 -4.71593e-14 0)
(3 2.08789e-15 0)
(3 -5.06819e-15 0)
(3 -6.45226e-15 0)
(3 -1.18354e-15 0)
(3 -1.48142e-14 0)
(3 1.52259e-14 0)
(3 4.16821e-15 0)
(3 -1.50559e-14 0)
(3 -5.74975e-15 0)
(3 -2.17483e-14 0)
(3 -2.18985e-14 0)
(3 2.64592e-14 0)
(3 -4.27633e-14 0)
(3 -1.65314e-14 0)
(3 1.46211e-14 0)
(3 1.50354e-14 0)
(3 4.34986e-14 0)
(3 -1.75826e-14 0)
(3 -3.00656e-14 0)
(3 -1.71636e-14 0)
(3 -1.92537e-14 0)
(3 -4.3502e-14 0)
(3 -5.55509e-12 0)
(3 -2.39453e-07 0)
(3.0702 0.0250508 0)
(1.44041 0.641653 0)
(1.04719 0.682599 0)
(1.01601 0.679857 0)
(1.00093 0.683602 0)
(0.991074 0.690094 0)
(0.985038 0.695292 0)
(0.9824 0.703206 0)
(0.983382 0.713037 0)
(0.989394 0.726741 0)
(0.998999 0.742648 0)
(1.01493 0.76059 0)
(1.0342 0.779005 0)
(1.06026 0.797515 0)
(1.09228 0.815593 0)
(1.13203 0.833147 0)
(1.17865 0.847939 0)
(1.23575 0.86101 0)
(1.30316 0.871414 0)
(1.37667 0.874137 0)
(3 -4.09657e-15 0)
(3 -5.01317e-14 0)
(3 -6.33372e-14 0)
(3 -4.89632e-14 0)
(3 -2.28411e-14 0)
(3 -5.60699e-14 0)
(3 -1.41148e-14 0)
(3 -1.91816e-14 0)
(3 -5.74617e-14 0)
(3 -8.42255e-14 0)
(3 -4.40005e-14 0)
(3 -1.41968e-14 0)
(3 8.25048e-14 0)
(3 1.01664e-13 0)
(3 7.2351e-14 0)
(3 4.69164e-14 0)
(3 3.98203e-14 0)
(3 5.08551e-14 0)
(3 7.01008e-14 0)
(3 1.12145e-13 0)
(3 1.33865e-13 0)
(3 6.64917e-14 0)
(3 3.41799e-15 0)
(3 1.2717e-15 0)
(3 -1.24153e-14 0)
(3 1.17583e-14 0)
(3 -4.16035e-14 0)
(3 -5.13338e-08 0)
(3.00361 8.10965e-05 0)
(1.9958 0.610567 0)
(1.07315 0.728289 0)
(1.03585 0.699785 0)
(1.03135 0.698765 0)
(1.0226 0.704393 0)
(1.01536 0.708854 0)
(1.01254 0.716231 0)
(1.01321 0.724405 0)
(1.01836 0.736335 0)
(1.02751 0.748989 0)
(1.04246 0.765465 0)
(1.0632 0.781647 0)
(1.09 0.798244 0)
(1.12222 0.814156 0)
(1.16065 0.828835 0)
(1.20423 0.840649 0)
(1.25729 0.850925 0)
(1.31679 0.857758 0)
(1.3835 0.858244 0)
(3 -1.06397e-14 0)
(3 -9.31708e-15 0)
(3 2.08294e-14 0)
(3 1.42926e-14 0)
(3 -2.81222e-14 0)
(3 -3.32067e-16 0)
(3 2.7864e-14 0)
(3 5.69271e-14 0)
(3 2.15614e-14 0)
(3 -8.40329e-15 0)
(3 -3.2299e-14 0)
(3 1.0197e-14 0)
(3 2.67846e-14 0)
(3 5.6035e-14 0)
(3 5.7835e-14 0)
(3 5.64614e-14 0)
(3 1.35932e-13 0)
(3 1.16431e-13 0)
(3 8.08766e-14 0)
(3 7.46311e-14 0)
(3 7.55077e-14 0)
(3 6.09053e-14 0)
(3 -9.73445e-15 0)
(3 -6.06021e-14 0)
(3 -9.21147e-14 0)
(3 -6.92825e-14 0)
(3 1.83189e-16 0)