/*--------------------------------*- C++ -*----------------------------------*\
  =========                 |
  \\      /  F ield         | OpenFOAM: The Open Source CFD Toolbox
   \\    /   O peration     | Website:  https://openfoam.org
    \\  /    A nd           | Version:  10
     \\/     M anipulation  |
\*---------------------------------------------------------------------------*/
FoamFile
{
    format      ascii;
    class       volScalarField;
    location    "30";
    object      p;
}
// * * * * * * * * * * * * * * * * * * * * * * * * * * * * * * * * * * * * * //

dimensions      [0 2 -2 0 0 0 0];

internalField   nonuniform List<scalar> 
8800
(
1.58786
1.54007
1.50137
1.47237
1.45149
1.43664
1.42602
1.4185
1.41362
1.41149
1.41266
1.41676
1.42333
1.43258
1.44532
1.46303
1.48778
1.52171
1.56425
1.62295
1.41912
1.4268
1.43426
1.43756
1.43605
1.43096
1.42446
1.41835
1.41358
1.41066
1.41028
1.41268
1.41708
1.42296
1.42968
1.43592
1.43953
1.43878
1.43334
1.42464
1.39754
1.4037
1.40782
1.41076
1.4128
1.41338
1.41225
1.4101
1.40802
1.40702
1.40787
1.41015
1.41286
1.41497
1.41553
1.41429
1.41191
1.4085
1.40393
1.40016
1.39177
1.39442
1.39717
1.39957
1.40119
1.40233
1.40304
1.40312
1.40275
1.4026
1.40322
1.40427
1.40501
1.40499
1.40432
1.40317
1.40131
1.39871
1.39629
1.39478
1.38645
1.38787
1.38965
1.39168
1.39346
1.39478
1.39574
1.39648
1.39702
1.39746
1.39797
1.39832
1.3983
1.39791
1.39712
1.3958
1.39405
1.39216
1.39082
1.38999
1.38145
1.38237
1.38361
1.38518
1.38681
1.38832
1.38958
1.39059
1.39146
1.39222
1.39273
1.39288
1.39269
1.39212
1.39112
1.38982
1.38842
1.38709
1.38624
1.38569
1.37665
1.37731
1.37829
1.3796
1.38101
1.38247
1.38388
1.38515
1.38625
1.3872
1.38781
1.38796
1.38767
1.38699
1.38603
1.38495
1.38382
1.38281
1.38219
1.3818
1.372
1.37251
1.37331
1.37446
1.37575
1.37713
1.37856
1.37998
1.3813
1.38245
1.3832
1.3834
1.38311
1.38249
1.38168
1.38078
1.37986
1.37907
1.3786
1.37829
1.36745
1.36786
1.36853
1.36958
1.37081
1.37214
1.37357
1.37506
1.37657
1.37795
1.37888
1.37919
1.37903
1.37857
1.37793
1.37719
1.37642
1.37579
1.37543
1.37518
1.36295
1.36327
1.36386
1.36484
1.36603
1.36735
1.3688
1.37036
1.37199
1.3736
1.37478
1.37533
1.37539
1.37513
1.37466
1.37408
1.37345
1.37295
1.37266
1.37247
1.35842
1.35868
1.35921
1.36016
1.36135
1.3627
1.36423
1.36591
1.36774
1.36962
1.37111
1.37195
1.37225
1.37218
1.37188
1.37144
1.37094
1.37054
1.37032
1.37016
1.35382
1.35403
1.35452
1.35546
1.35669
1.35812
1.35975
1.36161
1.36369
1.36589
1.36779
1.36899
1.36958
1.36973
1.36961
1.3693
1.36891
1.36861
1.36845
1.36832
1.34912
1.34928
1.34975
1.3507
1.35199
1.3535
1.35526
1.35732
1.35973
1.3624
1.36477
1.36637
1.3673
1.36776
1.36787
1.36774
1.36747
1.36726
1.36715
1.36704
1.34426
1.34437
1.34482
1.3458
1.34715
1.34878
1.35072
1.35305
1.3558
1.35897
1.36197
1.36416
1.36555
1.36635
1.36671
1.3668
1.36668
1.36656
1.3665
1.36642
1.33918
1.33925
1.33969
1.34071
1.34217
1.34397
1.34616
1.34886
1.35216
1.35604
1.35977
1.36256
1.36444
1.36563
1.36631
1.36661
1.36667
1.36666
1.36666
1.3666
1.33382
1.33388
1.33428
1.33529
1.33682
1.33876
1.34121
1.3443
1.34817
1.35287
1.35754
1.36119
1.36377
1.3655
1.36663
1.36729
1.36763
1.36778
1.36783
1.36778
1.32781
1.32785
1.32827
1.3293
1.33095
1.33314
1.33598
1.33968
1.34438
1.35015
1.35595
1.36054
1.36384
1.36619
1.36784
1.3689
1.36955
1.36987
1.36996
1.3699
1.32079
1.32083
1.32129
1.32239
1.32423
1.32675
1.3301
1.33452
1.34023
1.34732
1.35452
1.36029
1.36456
1.36764
1.36986
1.37139
1.37238
1.37287
1.373
1.37293
1.31235
1.31238
1.31291
1.31419
1.31636
1.31937
1.32343
1.32885
1.33587
1.3446
1.35351
1.3607
1.36604
1.36994
1.37282
1.37484
1.37617
1.37683
1.37699
1.37691
1.30206
1.3021
1.30275
1.30431
1.30697
1.31069
1.31573
1.32245
1.33116
1.34196
1.35293
1.36178
1.36838
1.37325
1.37684
1.37939
1.38107
1.38188
1.38208
1.38198
1.2894
1.28944
1.29027
1.29225
1.29558
1.30028
1.30664
1.31508
1.32596
1.33932
1.3528
1.36361
1.37169
1.37765
1.38208
1.38524
1.3873
1.38827
1.3885
1.38839
1.27361
1.27367
1.27475
1.27733
1.28165
1.2877
1.29586
1.30662
1.32029
1.33683
1.35328
1.36638
1.37614
1.38336
1.38874
1.3926
1.39508
1.39622
1.39649
1.39636
1.25353
1.25361
1.25506
1.25856
1.26436
1.27237
1.28307
1.29693
1.31415
1.33455
1.35448
1.37021
1.38189
1.39055
1.39706
1.4017
1.40463
1.40595
1.40626
1.4061
1.2275
1.22762
1.2297
1.23467
1.24275
1.25372
1.26802
1.286
1.30769
1.33267
1.3566
1.37529
1.38913
1.39944
1.40716
1.4127
1.41611
1.41764
1.41797
1.41778
1.1927
1.19295
1.19629
1.2039
1.21575
1.23125
1.25064
1.27403
1.30117
1.33147
1.35983
1.38175
1.39797
1.4101
1.41919
1.42568
1.42964
1.43139
1.43173
1.4315
1.14354
1.14468
1.15135
1.1643
1.1826
1.20495
1.23131
1.26148
1.29504
1.33127
1.3644
1.38971
1.40843
1.42247
1.43303
1.44059
1.4452
1.44715
1.44746
1.44717
1.07117
1.07878
1.09417
1.11703
1.14479
1.17613
1.21095
1.24895
1.28969
1.33245
1.37083
1.39995
1.42152
1.43781
1.45019
1.45919
1.46474
1.46715
1.46758
1.46736
0.993721
1.01129
1.03612
1.06928
1.10677
1.14723
1.19059
1.23666
1.28506
1.33521
1.38
1.41406
1.43943
1.45873
1.47362
1.48477
1.49167
1.49458
1.49535
1.49532
0.930032
0.950517
0.983162
1.0248
1.07078
1.11973
1.17129
1.22521
1.2811
1.33839
1.3892
1.42775
1.45647
1.47839
1.49525
1.50774
1.51581
1.51954
1.52014
1.52021
0.878146
0.900426
0.938248
0.985894
1.03855
1.09455
1.15328
1.21436
1.27721
1.34117
1.39754
1.44005
1.47157
1.49551
1.51393
1.52769
1.53691
1.54076
1.54147
1.54161
0.835076
0.858433
0.899733
0.952189
1.01016
1.07195
1.13681
1.20416
1.2733
1.34335
1.40471
1.45067
1.48453
1.51012
1.52976
1.54436
1.55409
1.5584
1.5594
1.55958
0.79825
0.822232
0.866295
0.922435
0.984851
1.05153
1.12166
1.19456
1.26933
1.34489
1.41075
1.45972
1.49555
1.52243
1.54292
1.55813
1.56824
1.57295
1.57418
1.57436
0.765735
0.790148
0.836293
0.895552
0.961729
1.03266
1.10745
1.18529
1.26517
1.34579
1.41577
1.46746
1.50496
1.53285
1.55393
1.56954
1.57973
1.58472
1.58605
1.58622
0.736115
0.760911
0.8088
0.870722
0.940134
1.01478
1.09372
1.17605
1.26064
1.346
1.41988
1.47412
1.51312
1.54186
1.56335
1.57913
1.58943
1.59449
1.59589
1.59601
0.708525
0.733671
0.783112
0.8473
0.91957
0.997515
1.08018
1.1666
1.25558
1.34544
1.42312
1.47986
1.52036
1.54991
1.5718
1.58771
1.59805
1.60315
1.60462
1.60472
0.682252
0.707804
0.758648
0.824844
0.899667
0.980559
1.06658
1.15676
1.24984
1.34404
1.4255
1.48483
1.5269
1.55735
1.57969
1.5958
1.60616
1.61117
1.61268
1.61283
0.65702
0.682997
0.734928
0.803077
0.880175
0.96371
1.05277
1.1464
1.24333
1.34174
1.42703
1.4891
1.53292
1.56441
1.58733
1.60369
1.61411
1.61906
1.62047
1.62055
0.632469
0.658996
0.711956
0.781811
0.860943
0.946855
1.03867
1.13545
1.23599
1.33849
1.4277
1.49273
1.53853
1.57125
1.59486
1.61157
1.62207
1.62695
1.62821
1.62822
0.608524
0.635481
0.689554
0.760931
0.841887
0.92993
1.02422
1.1239
1.2278
1.33425
1.42747
1.4957
1.54374
1.5779
1.60237
1.61949
1.63007
1.63483
1.63595
1.63586
0.585103
0.612596
0.667614
0.740383
0.822982
0.912927
1.00944
1.11173
1.21874
1.32898
1.42623
1.49791
1.54852
1.58439
1.60986
1.62745
1.63805
1.64262
1.64358
1.6434
0.562114
0.590197
0.64613
0.720168
0.804229
0.895871
0.994362
1.09898
1.20882
1.32262
1.42389
1.49927
1.55282
1.59072
1.61738
1.63544
1.64599
1.65026
1.65101
1.65077
0.539564
0.568292
0.625123
0.700313
0.785679
0.878807
0.979038
1.08572
1.19808
1.31516
1.42038
1.49964
1.55651
1.59688
1.62497
1.64349
1.65379
1.65763
1.65816
1.65786
0.517626
0.546952
0.604635
0.680856
0.767378
0.861811
0.963542
1.07201
1.18659
1.30665
1.41562
1.49886
1.55941
1.60278
1.63275
1.65176
1.66148
1.66462
1.66487
1.66454
0.496329
0.526225
0.584697
0.661857
0.749393
0.84495
0.947974
1.05796
1.17445
1.29712
1.40957
1.49676
1.56129
1.60828
1.64087
1.66064
1.66934
1.6712
1.671
1.67068
0.475616
0.506152
0.565351
0.643357
0.731792
0.828313
0.932425
1.04367
1.16176
1.28665
1.40219
1.49321
1.56185
1.61301
1.64928
1.67081
1.67836
1.67786
1.67653
1.67639
0.455657
0.486755
0.546655
0.625426
0.714635
0.811981
0.916994
1.02927
1.14864
1.27536
1.39352
1.48809
1.56078
1.61641
1.65749
1.68273
1.69059
1.68718
1.68291
1.68185
0.436368
0.468045
0.528591
0.608037
0.697893
0.79591
0.901622
1.01468
1.13502
1.26317
1.38343
1.48112
1.55775
1.61768
1.66428
1.69568
1.70765
1.70513
1.69463
1.67733
0.417819
0.450028
0.511037
0.591001
0.681273
0.779765
0.885892
0.999417
1.12036
1.24942
1.37122
1.47145
1.55207
1.61561
1.66696
1.70559
1.72269
1.714
1.69789
1.67948
0.40018
0.432567
0.494176
0.57456
0.665072
0.763894
0.87003
0.983817
1.10497
1.2344
1.35706
1.45876
1.54325
1.6093
1.66034
1.6993
1.71904
1.70172
1.63081
1.5969
0.384097
0.414507
0.478343
0.559304
0.650002
0.748782
0.854332
0.968105
1.08908
1.21828
1.34097
1.44289
1.53024
1.59892
1.64052
1.67074
1.67415
1.62464
1.55248
1.50737
0.328314
0.398738
0.46383
0.544044
0.634627
0.733037
0.838737
0.952013
1.07234
1.20063
1.32242
1.4235
1.50982
1.58576
1.58893
1.60448
1.57014
1.5056
1.42793
1.38414
0.367235
0.383138
0.442725
0.522408
0.612315
0.710412
0.815065
0.92742
1.04635
1.17253
1.29132
1.38948
1.46713
1.54264
1.54019
1.43459
1.33022
1.25814
1.1839
1.21969
0.33635
0.36551
0.425887
0.505108
0.59496
0.692705
0.797489
0.909063
1.0267
1.15074
1.26622
1.36005
1.43006
1.46975
1.42476
1.27938
1.14941
1.05711
0.955721
1.01133
0.312594
0.344751
0.40629
0.485827
0.575716
0.6733
0.777888
0.888489
1.00453
1.12588
1.23733
1.3254
1.38555
1.39415
1.28983
1.11151
0.952577
0.829397
0.693828
0.731907
0.289442
0.323135
0.385836
0.466201
0.556255
0.653688
0.757695
0.867205
0.981469
1.09982
1.20648
1.28816
1.3334
1.30893
1.15005
0.944973
0.743409
0.561849
0.361738
0.354534
0.267056
0.30108
0.364642
0.445729
0.535982
0.633213
0.736532
0.84485
0.957111
1.07213
1.17348
1.24798
1.27588
1.21662
1.0168
0.795304
0.562952
0.355024
0.0933774
-0.233392
0.24445
0.278413
0.342454
0.424024
0.514486
0.611568
0.714277
0.821389
0.931571
1.04307
1.13894
1.20522
1.2158
1.10549
0.901093
0.679335
0.458912
0.270855
0.198824
0.0981931
0.220783
0.254699
0.318963
0.400763
0.491308
0.588156
0.690169
0.795917
0.903721
1.01122
1.10118
1.1578
1.14357
0.995309
0.799025
0.596434
0.421928
0.320373
0.296115
0.277471
0.195734
0.229625
0.294019
0.375884
0.466344
0.562806
0.663902
0.767999
0.873023
0.97591
1.05948
1.10409
1.0686
0.893509
0.70651
0.530039
0.394127
0.350414
0.335244
0.333139
0.169098
0.203057
0.267578
0.349427
0.439678
0.535553
0.635504
0.73764
0.839461
0.937156
1.01362
1.04473
0.99126
0.797931
0.620732
0.462672
0.37155
0.357071
0.354798
0.354681
0.140872
0.174997
0.239643
0.321434
0.41134
0.506457
0.605031
0.704892
0.803098
0.895079
0.963443
0.982861
0.895689
0.709866
0.540883
0.408722
0.369582
0.364696
0.364211
0.364817
0.11137
0.145694
0.210366
0.292036
0.38147
0.475638
0.572589
0.66987
0.764043
0.849848
0.909561
0.912712
0.796243
0.626018
0.475239
0.382047
0.373737
0.371341
0.370146
0.370439
0.0811669
0.115544
0.180033
0.261494
0.35031
0.443327
0.538421
0.632816
0.722596
0.801777
0.853061
0.83708
0.70323
0.547228
0.42021
0.393843
0.375681
0.372411
0.372922
0.373341
0.0507309
0.0849992
0.149202
0.230247
0.318261
0.409929
0.502914
0.59415
0.679242
0.751534
0.794065
0.761196
0.609733
0.469428
0.380661
0.347602
0.362201
0.369643
0.372387
0.373111
0.0208679
0.0548811
0.118627
0.198912
0.285918
0.376014
0.466656
0.554501
0.634705
0.700072
0.732842
0.685411
0.514083
0.385767
0.339034
0.352155
0.35009
0.355621
0.361202
0.363408
-0.0068713
0.0262363
0.0891608
0.168388
0.254125
0.342381
0.430466
0.51477
0.589982
0.648369
0.67318
0.611644
0.420097
0.25914
0.236591
0.26164
0.281417
0.295156
0.305563
0.311219
-0.0312393
0.000885389
0.0617742
0.13985
0.223913
0.310076
0.395411
0.476119
0.546472
0.597993
0.619224
0.541245
0.342642
0.106814
0.0475456
0.118169
0.181766
0.205191
0.215763
0.221616
-0.0503311
-0.0200544
0.038665
0.114581
0.196571
0.280341
0.362809
0.43996
0.505951
0.551033
0.571258
0.487707
0.329181
0.0930296
-0.142854
0.00254543
0.0775546
0.0960854
0.104589
0.112037
-0.0623757
-0.034658
0.0210294
0.0942615
0.173597
0.254654
0.334158
0.408008
0.470228
0.51051
0.529538
0.458457
0.404365
0.413401
0.252585
0.130808
-0.00605527
-0.0235936
-0.014739
-0.0109444
-0.0651802
-0.0411759
0.0105734
0.0804097
0.156616
0.234561
0.311112
0.382163
0.44117
0.478522
0.490349
0.425089
0.439869
0.819479
0.921537
0.439614
0.0563026
-0.00252508
-0.0221632
-0.0264421
-0.0574748
-0.0377205
0.00900788
0.074351
0.146912
0.221574
0.29544
0.364358
0.421504
0.456242
0.453803
0.319339
0.0838195
-0.129391
-0.403866
-0.788906
-0.687862
-0.405077
-0.247767
-0.248473
-0.0375451
-0.0219015
0.0175507
0.0769963
0.145328
0.21677
0.288448
0.356569
0.414725
0.449617
0.438497
0.185933
-0.53982
-1.68204
-2.37016
-2.68127
-2.48066
-1.96682
-1.50822
-1.28517
-0.00677103
0.00404234
0.0358677
0.0881386
0.151897
0.220373
0.290929
0.36029
0.423116
0.468754
0.464503
0.238772
-0.397364
-1.19337
-1.83596
-2.00161
-1.76164
-1.37017
-1.03034
-0.876654
0.0307555
0.0372207
0.0607027
0.10571
0.165057
0.231397
0.302292
0.375439
0.446663
0.514681
0.554546
0.557439
0.499029
0.59048
0.794121
1.11168
1.4332
1.67913
1.82918
1.88905
0.069447
0.073024
0.0877379
0.125841
0.181839
0.24734
0.319782
0.398616
0.483572
0.573412
0.681794
0.823674
1.13249
1.69259
2.33355
2.91725
3.33133
3.55856
3.65303
3.67872
0.103631
0.105654
0.114038
0.144731
0.197685
0.264049
0.339459
0.423776
0.519145
0.628395
0.750229
0.881721
1.14371
1.7138
2.33243
2.87286
3.25598
3.47303
3.56916
3.59564
0.137635
0.13841
0.141333
0.162348
0.211049
0.27867
0.356349
0.443533
0.539073
0.648416
0.759756
0.875702
1.02903
1.45503
1.9477
2.35376
2.6496
2.82347
2.90375
2.9283
0.16477
0.166037
0.166803
0.179814
0.224201
0.292341
0.371499
0.457682
0.550282
0.654288
0.756002
0.853425
0.948361
1.20962
1.57186
1.86783
2.08713
2.2182
2.27813
2.29361
0.179071
0.178703
0.177262
0.189083
0.237167
0.309535
0.38962
0.472531
0.559856
0.654903
0.744949
0.822298
0.891809
1.05303
1.29169
1.49684
1.64739
1.73485
1.77494
1.78548
0.205375
0.201546
0.198524
0.21264
0.264751
0.338608
0.415896
0.492089
0.570233
0.653118
0.731591
0.797433
0.859978
0.959865
1.11701
1.24855
1.34333
1.39818
1.42158
1.42624
0.288665
0.283749
0.280533
0.293676
0.335625
0.394426
0.456535
0.518832
0.583312
0.652343
0.719005
0.775081
0.828215
0.892806
0.992184
1.07548
1.13424
1.16877
1.18208
1.18261
0.420386
0.417813
0.415787
0.421626
0.442041
0.472642
0.509927
0.551847
0.598961
0.652394
0.705223
0.750369
0.793916
0.83413
0.893197
0.949079
0.987827
1.01023
1.0197
1.01948
0.542517
0.541625
0.539742
0.537958
0.53943
0.547032
0.562041
0.584649
0.615212
0.6529
0.691261
0.725442
0.758339
0.784299
0.81923
0.855343
0.883277
0.900138
0.907191
0.906451
0.619685
0.619363
0.617229
0.611671
0.604419
0.600285
0.602514
0.612203
0.62938
0.652687
0.67612
0.695305
0.715809
0.731345
0.755684
0.783966
0.806623
0.820435
0.825975
0.824765
0.656168
0.655791
0.653661
0.64822
0.640103
0.632948
0.629786
0.632267
0.640594
0.652945
0.662797
0.666169
0.665593
0.671093
0.696538
0.725934
0.748174
0.760737
0.76548
0.764115
0.669089
0.668625
0.666816
0.662685
0.656552
0.650367
0.6463
0.645977
0.649514
0.654573
0.65278
0.638649
0.617502
0.616606
0.64923
0.681427
0.70349
0.715259
0.719712
0.71896
0.671257
0.670827
0.669464
0.666542
0.662548
0.658462
0.655564
0.655169
0.657453
0.66009
0.653761
0.627755
0.58899
0.598775
0.638138
0.669051
0.687081
0.695498
0.698411
0.697834
0.66847
0.668214
0.667412
0.6655
0.662987
0.660776
0.659824
0.661198
0.665465
0.670791
0.66891
0.648151
0.620902
0.638947
0.670801
0.692363
0.7031
0.706871
0.707961
0.707463
0.661412
0.661417
0.661258
0.660414
0.659216
0.658713
0.659977
0.664322
0.672905
0.684809
0.695579
0.695561
0.69441
0.714211
0.731393
0.739747
0.743675
0.746271
0.747577
0.747558
0.648336
0.648592
0.649022
0.649259
0.649596
0.651118
0.655113
0.663204
0.678315
0.698864
0.725934
0.749517
0.775578
0.794837
0.80054
0.803757
0.807421
0.811865
0.813661
0.811814
0.6273
0.627799
0.628793
0.630025
0.631922
0.635797
0.643109
0.655875
0.677453
0.709206
0.749096
0.789154
0.833387
0.848936
0.846267
0.847694
0.854446
0.86148
0.86236
0.8606
0.596733
0.597433
0.598852
0.600984
0.604439
0.610571
0.621179
0.638873
0.66726
0.708591
0.757343
0.802273
0.848973
0.863864
0.866367
0.87405
0.882643
0.888395
0.889271
0.888089
0.554132
0.555158
0.557047
0.559942
0.5646
0.572443
0.585504
0.60713
0.640859
0.68992
0.745587
0.790061
0.826315
0.839719
0.856631
0.881634
0.900974
0.908125
0.90629
0.905033
0.496606
0.497909
0.500147
0.503544
0.508794
0.517067
0.530311
0.552224
0.587064
0.641495
0.706856
0.756444
0.772562
0.788124
0.832442
0.88078
0.910955
0.919145
0.917095
0.916974
0.421829
0.423246
0.425475
0.428718
0.433218
0.439314
0.44806
0.462414
0.48802
0.540694
0.627006
0.699678
0.717654
0.744115
0.823004
0.890477
0.937278
0.947886
0.945045
0.946061
0.33014
0.331317
0.332881
0.334794
0.336165
0.335584
0.331777
0.324761
0.320675
0.358848
0.48698
0.607518
0.645064
0.698071
0.816175
0.918853
0.976725
0.987221
0.983475
0.981529
0.227069
0.227501
0.227556
0.22653
0.221591
0.20834
0.180457
0.130747
0.0708175
0.0806529
0.273542
0.4731
0.555626
0.657136
0.791291
0.907511
0.966914
0.963676
0.95799
0.954508
0.125174
0.124439
0.122388
0.117131
0.103297
0.0721747
0.00863047
-0.106664
-0.263741
-0.267702
0.00685941
0.291977
0.437809
0.589278
0.736267
0.830809
0.856656
0.857627
0.85506
0.852793
0.0427934
0.040762
0.0368155
0.027845
0.00573602
-0.0429659
-0.143113
-0.327075
-0.555
-0.5885
-0.234282
0.124373
0.312013
0.519807
0.671603
0.733755
0.724729
0.72032
0.718873
0.717779
-0.00365585
-0.00589351
-0.00979885
-0.0203803
-0.0453806
-0.100201
-0.216336
-0.419396
-0.69461
-0.736027
-0.362842
0.00149732
0.242479
0.493027
0.619061
0.616185
0.597138
0.583186
0.576474
0.573768
-0.0104301
-0.0121127
-0.0142569
-0.019812
-0.0369377
-0.0790749
-0.175645
-0.360761
-0.57639
-0.619309
-0.308999
-0.0252352
0.177011
0.428205
0.52547
0.481123
0.430717
0.398629
0.383025
0.376802
0.0126947
0.0124164
0.0141011
0.0167782
0.0171627
0.0123194
-0.00752782
-0.0647679
-0.140844
-0.179462
-0.1282
-0.0414951
0.0119797
0.0434587
0.124204
0.114629
0.0997624
0.0868277
0.0797939
0.0771763
0.607243
0.791473
1.00628
1.18957
1.33727
1.45521
1.55372
1.63691
1.67412
1.65125
0.942711
1.07421
1.21453
1.336
1.4389
1.52457
1.59397
1.64321
1.66821
1.68
1.1806
1.27022
1.36551
1.45006
1.52296
1.58401
1.63249
1.66787
1.69319
1.71085
1.35296
1.4158
1.4825
1.54357
1.59671
1.64177
1.67867
1.70796
1.73171
1.74982
1.48583
1.53174
1.58021
1.62656
1.66747
1.7031
1.73347
1.75862
1.7796
1.79733
1.59446
1.62896
1.66883
1.70605
1.7401
1.7705
1.79698
1.81915
1.8374
1.85469
1.68974
1.71941
1.75461
1.78776
1.8186
1.84651
1.87085
1.891
1.90679
1.92385
1.78007
1.8099
1.84465
1.87732
1.90748
1.93455
1.9578
1.97657
1.99014
2.00718
1.8765
1.90999
1.94712
1.98112
2.01152
2.03802
2.06022
2.07768
2.08969
2.10711
1.99227
2.03008
2.06907
2.10362
2.13319
2.15812
2.17865
2.19466
2.20622
2.22431
2.13772
2.17643
2.21254
2.24336
2.26917
2.29137
2.31051
2.32612
2.3386
2.35662
2.31272
2.34464
2.37091
2.39338
2.41343
2.43221
2.44998
2.4665
2.48189
2.49997
2.50148
2.51878
2.53394
2.55023
2.56617
2.58074
2.59398
2.60793
2.6255
2.64566
2.68349
2.69292
2.70449
2.71533
2.72463
2.73425
2.74508
2.75647
2.76785
2.78321
2.89062
2.89431
2.87938
2.86459
2.85835
2.86405
2.88254
2.91287
2.94506
2.97172
3.19696
3.06209
2.98548
2.94316
2.92576
2.92973
2.95714
3.01356
3.11619
3.34056
1.47845
1.47632
1.47184
1.4632
1.45097
1.43883
1.42858
1.42065
1.41498
1.41165
1.4112
1.41382
1.41883
1.42598
1.43532
1.44682
1.45944
1.47045
1.47656
1.4796
1.40292
1.40876
1.4151
1.41959
1.42205
1.42171
1.41895
1.41511
1.41154
1.4092
1.40894
1.41102
1.41459
1.4188
1.42254
1.42438
1.42341
1.41991
1.41472
1.40809
1.39453
1.39683
1.40023
1.40322
1.40528
1.40676
1.4075
1.40714
1.40606
1.40509
1.40514
1.40644
1.40814
1.40936
1.40947
1.40852
1.40693
1.40456
1.40127
1.39834
1.38906
1.39015
1.39198
1.39436
1.39637
1.39778
1.39878
1.39949
1.39982
1.39995
1.4003
1.40096
1.40143
1.40138
1.40088
1.39997
1.39844
1.39631
1.39419
1.3928
1.38392
1.38458
1.38569
1.3874
1.38917
1.3908
1.39207
1.39304
1.39384
1.39452
1.39509
1.39547
1.3955
1.3952
1.39452
1.39337
1.39187
1.39026
1.3889
1.38811
1.37903
1.37949
1.38028
1.38158
1.38307
1.38458
1.38603
1.38728
1.38834
1.38926
1.38999
1.39034
1.39029
1.38984
1.389
1.38788
1.38665
1.38543
1.38446
1.38393
1.37431
1.37465
1.37526
1.37635
1.37765
1.37903
1.38046
1.38187
1.38317
1.3843
1.38519
1.38561
1.38554
1.38503
1.38423
1.38328
1.38229
1.38131
1.38057
1.38018
1.36972
1.36998
1.37048
1.37141
1.37261
1.37392
1.37531
1.37676
1.37822
1.37957
1.38065
1.38119
1.38118
1.38077
1.38012
1.37934
1.3785
1.37771
1.37713
1.37684
1.3652
1.36541
1.36582
1.36665
1.36779
1.36906
1.37043
1.37191
1.37347
1.37503
1.37634
1.37707
1.37722
1.37699
1.37652
1.37591
1.37522
1.37458
1.37413
1.3739
1.36069
1.36085
1.36121
1.36198
1.36308
1.36434
1.36574
1.36729
1.36897
1.37071
1.3723
1.37331
1.37373
1.37371
1.37342
1.37296
1.37242
1.3719
1.37155
1.37137
1.35613
1.35625
1.35656
1.3573
1.3584
1.35969
1.36116
1.36284
1.3647
1.3667
1.36862
1.36999
1.37069
1.37091
1.3708
1.37049
1.37008
1.36967
1.36941
1.36927
1.35149
1.35158
1.35186
1.35258
1.35371
1.35507
1.35664
1.35847
1.36058
1.36293
1.36528
1.36706
1.3681
1.36859
1.36872
1.36858
1.3683
1.36798
1.36779
1.36769
1.34672
1.34677
1.34702
1.34774
1.3489
1.35034
1.35202
1.35402
1.35638
1.35913
1.362
1.36432
1.36582
1.3667
1.36712
1.36722
1.3671
1.36691
1.36678
1.36671
1.34174
1.34177
1.342
1.34273
1.34396
1.34552
1.34739
1.34968
1.35244
1.35571
1.35924
1.36222
1.36424
1.36549
1.36621
1.36654
1.3666
1.36654
1.3665
1.36646
1.33657
1.33656
1.33677
1.33748
1.33876
1.34044
1.3425
1.34508
1.34829
1.35223
1.35658
1.36035
1.36303
1.36485
1.36596
1.36661
1.36696
1.36709
1.36714
1.36713
1.33092
1.3309
1.33112
1.33182
1.33313
1.33493
1.33724
1.34023
1.34403
1.34876
1.35412
1.3589
1.36238
1.36482
1.36646
1.36759
1.36828
1.36864
1.36879
1.36879
1.32446
1.32443
1.32465
1.32539
1.3268
1.32881
1.33149
1.33503
1.33962
1.34542
1.35204
1.35799
1.3624
1.3656
1.36787
1.36944
1.37052
1.37113
1.37137
1.37139
1.31677
1.31673
1.31698
1.31782
1.3194
1.32172
1.32489
1.32914
1.33472
1.34181
1.34999
1.3574
1.36298
1.36707
1.37003
1.37218
1.37366
1.37454
1.37487
1.37489
1.30745
1.3074
1.30771
1.30871
1.3106
1.31342
1.3173
1.32254
1.32944
1.33821
1.3483
1.35746
1.36436
1.36946
1.3732
1.37594
1.37784
1.37896
1.37939
1.37941
1.29603
1.29596
1.29637
1.29763
1.29997
1.30348
1.30833
1.31487
1.32346
1.33435
1.3468
1.35804
1.36652
1.3728
1.37743
1.38084
1.38322
1.38459
1.3851
1.38513
1.28188
1.28179
1.28234
1.28397
1.28696
1.29143
1.29762
1.30592
1.31676
1.33032
1.34564
1.35935
1.36965
1.37729
1.38295
1.38713
1.39005
1.39169
1.39228
1.39231
1.26404
1.26393
1.2647
1.26689
1.27081
1.27668
1.28474
1.29545
1.30922
1.32613
1.3449
1.3615
1.3739
1.38308
1.38991
1.39497
1.3985
1.40044
1.40112
1.40116
1.24114
1.24102
1.24215
1.24517
1.25052
1.25848
1.26925
1.28328
1.30085
1.3219
1.34474
1.36464
1.37943
1.39039
1.39858
1.40462
1.4088
1.41106
1.41185
1.41188
1.21101
1.21092
1.21268
1.21713
1.22481
1.23604
1.25082
1.2694
1.29184
1.31787
1.34538
1.36897
1.3864
1.39934
1.40903
1.4162
1.42106
1.42368
1.42458
1.42459
1.1697
1.16979
1.17299
1.18036
1.19223
1.20874
1.22936
1.25402
1.28252
1.31436
1.34708
1.37465
1.39492
1.41
1.42132
1.4297
1.43535
1.43835
1.43932
1.43931
1.10977
1.11104
1.11883
1.13258
1.15201
1.17674
1.20545
1.23782
1.27347
1.31181
1.35009
1.38181
1.40498
1.42225
1.43525
1.44489
1.45145
1.45483
1.45579
1.45572
1.03845
1.0405
1.05522
1.07888
1.10893
1.14317
1.1807
1.22131
1.26469
1.31034
1.35526
1.39233
1.41952
1.43993
1.45538
1.46688
1.47477
1.47889
1.48
1.47999
0.965189
0.971882
0.993639
1.0272
1.06698
1.11044
1.15671
1.20557
1.25677
1.30985
1.36162
1.40422
1.43551
1.45913
1.47724
1.491
1.50035
1.50442
1.50579
1.50609
0.906273
0.914918
0.941365
0.981658
1.02895
1.08015
1.13419
1.1907
1.24932
1.30949
1.3677
1.41534
1.45024
1.47651
1.49661
1.51177
1.52214
1.5273
1.52947
1.52988
0.858398
0.867608
0.897502
0.942664
0.995691
1.05308
1.11363
1.17684
1.24214
1.30885
1.37299
1.42513
1.46309
1.49152
1.51323
1.52971
1.54116
1.54714
1.54962
1.55009
0.818259
0.827694
0.859913
0.908836
0.966484
1.02897
1.09501
1.16402
1.23526
1.30786
1.37737
1.43351
1.47408
1.50427
1.52721
1.54459
1.55675
1.56337
1.56613
1.56664
0.783354
0.792882
0.826804
0.878791
0.940274
1.00708
1.07789
1.152
1.22855
1.3065
1.38088
1.44062
1.48345
1.51508
1.53893
1.55693
1.56955
1.57665
1.57953
1.58005
0.752123
0.761689
0.796948
0.8515
0.916194
0.986737
1.06174
1.14041
1.22179
1.30465
1.38358
1.44664
1.49151
1.52435
1.54888
1.56721
1.58007
1.58738
1.5903
1.59085
0.723381
0.732998
0.769369
0.826136
0.893604
0.967411
1.04613
1.12892
1.21473
1.3022
1.38546
1.45172
1.49854
1.53248
1.5576
1.57619
1.58913
1.59659
1.59947
1.60003
0.696355
0.706031
0.743391
0.802065
0.872021
0.948734
1.03078
1.11729
1.2072
1.29903
1.3865
1.45595
1.50475
1.53984
1.56556
1.58445
1.5975
1.60498
1.60788
1.60827
0.670547
0.680314
0.718596
0.778896
0.851107
0.930413
1.01545
1.10537
1.19906
1.29503
1.38665
1.45937
1.51028
1.54665
1.57309
1.59233
1.60552
1.61297
1.61585
1.61622
0.64555
0.655497
0.694609
0.756451
0.830647
0.912278
1.00001
1.09302
1.19023
1.29015
1.38588
1.46204
1.51527
1.55311
1.58039
1.6001
1.61348
1.62093
1.62369
1.62406
0.621185
0.631372
0.671238
0.734554
0.810516
0.894228
0.984394
1.08022
1.18067
1.28434
1.38417
1.46394
1.51974
1.55926
1.58758
1.60785
1.62148
1.62891
1.63154
1.63185
0.597396
0.607802
0.648449
0.71308
0.790644
0.876222
0.968565
1.06693
1.17036
1.27756
1.38145
1.465
1.52365
1.56514
1.59468
1.61563
1.62952
1.63687
1.63933
1.63955
0.574068
0.584787
0.626158
0.692006
0.771014
0.858258
0.952542
1.05318
1.15932
1.26981
1.37763
1.46511
1.52695
1.57073
1.60173
1.62344
1.63755
1.64478
1.647
1.64711
0.551264
0.562271
0.604382
0.671338
0.751648
0.840372
0.936373
1.03902
1.14757
1.26108
1.37266
1.46416
1.5295
1.57598
1.60873
1.63131
1.64555
1.65249
1.65442
1.65442
0.528954
0.540269
0.583142
0.651113
0.732585
0.82261
0.920115
1.02453
1.1352
1.25139
1.36652
1.46205
1.53115
1.58078
1.61573
1.63934
1.65355
1.65995
1.66147
1.66136
0.507324
0.518874
0.562478
0.631376
0.713887
0.805057
0.903846
1.00978
1.12227
1.24085
1.35919
1.45864
1.53169
1.58496
1.62274
1.64777
1.66175
1.66715
1.66803
1.6678
0.486246
0.498136
0.542426
0.612164
0.695596
0.787761
0.887665
0.994862
1.10891
1.22952
1.35069
1.45385
1.53093
1.58823
1.62964
1.65694
1.67079
1.67444
1.67404
1.67361
0.465887
0.478087
0.523021
0.593534
0.677796
0.770809
0.871657
0.979911
1.09522
1.2175
1.34109
1.44761
1.52863
1.59018
1.63602
1.667
1.68187
1.68337
1.68016
1.67855
0.446194
0.458682
0.504317
0.575542
0.660529
0.754273
0.855908
0.965008
1.08133
1.20494
1.3305
1.43987
1.52464
1.59033
1.64102
1.67733
1.6959
1.69751
1.69035
1.68016
0.427248
0.439969
0.486213
0.558036
0.643588
0.737869
0.840077
0.949737
1.06676
1.19129
1.31832
1.42998
1.51834
1.58801
1.64331
1.68619
1.71171
1.7173
1.70906
1.69952
0.409107
0.422041
0.468707
0.541059
0.626985
0.721595
0.824186
0.934087
1.05148
1.17648
1.30442
1.41764
1.50907
1.58255
1.64034
1.68789
1.71674
1.72736
1.69175
1.63738
0.392027
0.405662
0.451901
0.524669
0.610608
0.70532
0.808194
0.918182
1.03556
1.16056
1.28875
1.40273
1.49592
1.57373
1.63033
1.67097
1.70082
1.69225
1.63493
1.56843
0.37571
0.390131
0.435987
0.50947
0.59478
0.68952
0.791882
0.902081
1.01915
1.14374
1.27138
1.38516
1.47791
1.56269
1.61256
1.66549
1.64039
1.60155
1.53169
1.46159
0.389915
0.407949
0.456451
0.533898
0.624034
0.72245
0.830011
0.942994
1.0629
1.19057
1.31164
1.41216
1.49649
1.58622
1.63768
1.55666
1.51323
1.45145
1.37764
1.32839
0.365593
0.382075
0.417564
0.485388
0.570295
0.664486
0.766935
0.876418
0.99253
1.11559
1.2409
1.35231
1.44123
1.52
1.59061
1.5931
1.47265
1.38884
1.32583
1.2407
0.34572
0.361418
0.402684
0.471931
0.557091
0.65084
0.752084
0.860589
0.975593
1.09702
1.22026
1.32905
1.41474
1.48064
1.50748
1.43786
1.29505
1.19724
1.12075
1.02945
0.325451
0.337967
0.383745
0.454302
0.53963
0.633537
0.734689
0.842779
0.956743
1.07644
1.19656
1.30054
1.37907
1.42914
1.40689
1.27687
1.11989
0.998421
0.897744
0.7567
0.302001
0.31509
0.362878
0.434573
0.520217
0.614145
0.715141
0.822553
0.935276
1.05288
1.16936
1.26786
1.33834
1.3688
1.30979
1.12267
0.933032
0.771884
0.623643
0.421724
0.279674
0.292382
0.341391
0.414253
0.500391
0.594276
0.694867
0.801356
0.912594
1.02775
1.14022
1.23271
1.29446
1.29592
1.1845
0.976864
0.753568
0.535047
0.350326
-0.0739097
0.257426
0.269692
0.319185
0.392913
0.479453
0.573359
0.673538
0.779094
0.888736
1.00121
1.10934
1.19521
1.24667
1.21311
1.05919
0.847379
0.617386
0.389193
0.193032
-0.125776
0.234338
0.246435
0.296059
0.370314
0.457133
0.551069
0.650874
0.755522
0.863514
0.973145
1.07669
1.15548
1.19371
1.14015
0.946092
0.742393
0.53185
0.351534
0.274868
0.238363
0.209968
0.221879
0.271655
0.346173
0.433074
0.526882
0.626163
0.72968
0.835698
0.941998
1.04032
1.11134
1.13529
1.0521
0.844998
0.653889
0.480654
0.364056
0.326141
0.313921
0.18412
0.195958
0.245826
0.320494
0.407355
0.500872
0.599425
0.701563
0.805243
0.907707
1.00011
1.0631
1.06537
0.946546
0.753331
0.576046
0.427741
0.365812
0.350271
0.345614
0.15676
0.16835
0.218516
0.293292
0.380019
0.473078
0.570704
0.671184
0.772168
0.870343
0.956096
1.0107
0.985377
0.845586
0.666535
0.500135
0.391586
0.352388
0.358907
0.35942
0.12789
0.139476
0.189765
0.264642
0.351143
0.443594
0.540073
0.638629
0.736562
0.829964
0.908594
0.952805
0.908615
0.748851
0.586937
0.437309
0.38697
0.372176
0.36799
0.367612
0.0979364
0.109523
0.159791
0.23475
0.320908
0.412586
0.5077
0.604065
0.698594
0.786781
0.857908
0.890176
0.836376
0.660591
0.513774
0.406137
0.356543
0.368989
0.371313
0.371575
0.0673754
0.078887
0.129193
0.203957
0.289654
0.380371
0.473905
0.567808
0.658623
0.741244
0.804544
0.827252
0.750889
0.575686
0.448366
0.379349
0.371072
0.370723
0.372232
0.37315
0.0370705
0.0482585
0.0985581
0.172774
0.257877
0.34744
0.439156
0.530348
0.617197
0.694016
0.749243
0.761406
0.65397
0.4898
0.383133
0.386034
0.364197
0.363502
0.369269
0.370902
0.00791726
0.0187431
0.0684489
0.142249
0.226281
0.314485
0.404147
0.492416
0.575122
0.646001
0.693624
0.689337
0.561345
0.391065