/*--------------------------------*- C++ -*----------------------------------*\
  =========                 |
  \\      /  F ield         | OpenFOAM: The Open Source CFD Toolbox
   \\    /   O peration     | Website:  https://openfoam.org
    \\  /    A nd           | Version:  10
     \\/     M anipulation  |
\*---------------------------------------------------------------------------*/
FoamFile
{
    format      ascii;
    class       surfaceScalarField;
    location    "30";
    object      phi;
}
// * * * * * * * * * * * * * * * * * * * * * * * * * * * * * * * * * * * * * //

dimensions      [0 3 -1 0 0 0 0];

internalField   nonuniform List<scalar> 
17370
(
-0.0916072
0.0960067
0.284611
-0.07759
0.0594134
0.364952
-0.0430352
0.031616
0.427587
-0.0223108
0.0162556
0.505307
-0.0116578
0.00877845
0.602281
-0.00656164
0.00507471
0.720544
-0.00384151
0.0029701
0.863778
-0.00221131
0.0016473
1.03601
-0.0011305
0.000720587
1.24291
-0.000316063
-6.91563e-05
1.49158
0.000451848
-0.000860036
1.4916
0.00126489
-0.00177264
1.2432
0.00232765
-0.00307643
1.03639
0.00393876
-0.00516224
0.86413
0.00664003
-0.00884601
0.721263
0.0117143
-0.0162985
0.603799
0.0223408
-0.0316324
0.508731
0.0430374
-0.059407
0.432538
0.0775861
-0.0960029
0.365192
0.0916179
0.197393
-0.127086
0.0880174
0.0390691
-0.364349
0.354023
-0.0714787
0.0818048
-0.446655
0.454245
-0.0791677
0.0715773
-0.521007
0.529105
-0.0637285
0.0556312
-0.612984
0.620755
-0.0482439
0.0404723
-0.727155
0.73368
-0.0338566
0.0273324
-0.867578
0.872419
-0.0221306
0.0172903
-1.03857
1.04188
-0.0136104
0.0102966
-1.24472
1.2471
-0.00776926
0.00538735
-1.49283
1.49483
-0.00344183
0.00144644
-1.49268
1.49449
0.000365986
-0.00217586
-1.24411
1.24602
0.00414622
-0.00605897
-1.03761
1.0401
0.00839959
-0.0108865
-0.866194
0.869832
0.0141549
-0.0177936
-0.7246
0.729764
0.0225903
-0.027754
-0.609068
0.615647
0.0342381
-0.0408171
-0.515126
0.522472
0.0485479
-0.0558946
-0.43988
0.447673
0.0639334
-0.0717257
-0.374715
0.377365
0.0792356
-0.0818856
-0.256912
0.224462
0.0715416
-0.0390922
-0.0687991
0.0591858
0.00961331
-0.0521184
0.0589544
-0.374831
0.367995
-0.0581091
0.054269
-0.453937
0.457777
-0.0487812
0.04422
-0.527603
0.532165
-0.0396666
0.0357687
-0.620785
0.624683
-0.031558
0.027574
-0.734644
0.738628
-0.0232403
0.0193817
-0.873936
0.877794
-0.0153735
0.0119494
-1.04334
1.04676
-0.00846349
0.00545858
-1.24862
1.25163
-0.00227854
-0.000678628
-1.49692
1.49988
0.00362176
-0.00675883
-1.49741
1.50054
0.00970424
-0.0131137
-1.25007
1.25348
0.0164631
-0.0203871
-1.04566
1.04958
0.0241698
-0.0284224
-0.877157
0.88141
0.032333
-0.0364653
-0.73901
0.743142
0.040298
-0.0447893
-0.625995
0.630486
0.0493005
-0.0547394
-0.535038
0.540477
0.0585229
-0.0593023
-0.458102
0.458881
0.0523749
-0.0320216
-0.336804
0.316451
0.00965936
-0.068689
0.0590296
-0.053394
0.0492813
0.00411263
-0.0332529
0.0436826
-0.358537
0.348107
-0.0473646
0.0467846
-0.459558
0.460138
-0.0438635
0.0406578
-0.536105
0.539311
-0.0369879
0.0336396
-0.628359
0.631707
-0.0300152
0.026791
-0.741995
0.745219
-0.0233659
0.0202014
-0.881295
0.88446
-0.0166522
0.0133403
-1.05019
1.0535
-0.0096853
0.00631863
-1.25487
1.25824
-0.00256734
-0.00101736
-1.50321
1.50679
0.0045781
-0.00826112
-1.50403
1.50771
0.0115388
-0.0150814
-1.25703
1.26058
0.0182835
-0.0217089
-1.0533
1.05672
0.0247634
-0.0280741
-0.885031
0.888342
0.0311966
-0.0347122
-0.746836
0.750352
0.0379651
-0.0415369
-0.634615
0.638186
0.0446602
-0.0474909
-0.544629
0.54746
0.0479791
-0.044171
-0.457017
0.453209
0.0335886
-0.0163275
-0.297173
0.279912
0.00416304
-0.0531934
0.0490304
-0.0461101
0.0435547
0.00255538
-0.0230478
0.0334007
-0.337508
0.327155
-0.0391371
0.0400863
-0.459875
0.458926
-0.0388332
0.0365019
-0.541947
0.544279
-0.0338551
0.0313093
-0.634651
0.637196
-0.0283455
0.025529
-0.748287
0.751104
-0.0223468
0.0193955
-0.887505
0.890456
-0.0161136
0.0130401
-1.05666
1.05973
-0.00954647
0.00620012
-1.26161
1.26495
-0.00234406
-0.00140692
-1.5105
1.51426
0.00512652
-0.00888652
-1.51148
1.51524
0.0121072
-0.0154446
-1.26402
1.26736
0.0183659
-0.0214773
-1.05993
1.06304
0.024277
-0.0273007
-0.891546
0.89457
0.0299779
-0.0327948
-0.753554
0.756371
0.0352133
-0.0377321
-0.641158
0.643677
0.0399579
-0.0410749
-0.549317
0.550434
0.0399857
-0.0340475
-0.448129
0.442191
0.0234752
-0.0103044
-0.264788
0.251618
0.00261775
-0.0458044
0.0431867
-0.0414358
0.0396382
0.00179755
-0.0169204
0.0261978
-0.317281
0.308004
-0.0327947
0.0349251
-0.457349
0.455219
-0.0345088
0.032831
-0.546291
0.547969
-0.0306257
0.028519
-0.639481
0.641587
-0.026109
0.0237672
-0.753679
0.75602
-0.0210065
0.0183167
-0.893295
0.895984
-0.0151955
0.0122176
-1.06274
1.06572
-0.00881409
0.00556343
-1.26822
1.27147
-0.00180586
-0.0018595
-1.51797
1.52163
0.005483
-0.00911473
-1.51896
1.52259
0.012199
-0.0153933
-1.27062
1.27381
0.0181692
-0.0210686
-1.06606
1.06896
0.0235653
-0.0261255
-0.897361
0.899921
0.028291
-0.030515
-0.758838
0.761062
0.0324584
-0.0344961
-0.645935
0.647973
0.0360199
-0.0362499
-0.551049
0.551279
0.0339064
-0.0270178
-0.435673
0.428785
0.0174499
-0.00737636
-0.240135
0.230062
0.00187372
-0.0410012
0.0391275
-0.038092
0.0367464
0.0013456
-0.0128887
0.0208597
-0.299376
0.291405
-0.0276065
0.0305208
-0.45265
0.449735
-0.0307305
0.0296149
-0.549365
0.550481
-0.0276322
0.025728
-0.64359
0.645494
-0.0235598
0.0214818
-0.758232
0.76031
-0.0190685
0.0166974
-0.898515
0.900886
-0.0138853
0.0111234
-1.06857
1.07133
-0.00789397
0.00476895
-1.27464
1.27776
-0.00113382
-0.00241103
-1.52523
1.52877
0.00590348
-0.00937761
-1.52616
1.52964
0.0122904
-0.0152475
-1.27691
1.27987
0.0177418
-0.0202571
-1.07168
1.0742
0.0223731
-0.0245278
-0.902247
0.904402
0.026385
-0.0283233
-0.763119
0.765058
0.0300255
-0.0318076
-0.649853
0.651635
0.0327007
-0.0322338
-0.55115
0.550683
0.0290184
-0.0218765
-0.421707
0.414565
0.0135364
-0.00563958
-0.221177
0.21328
0.00143817
-0.0375006
0.0360625
-0.0355731
0.034544
0.00102908
-0.010009
0.0167248
-0.28408
0.277364
-0.0232014
0.026575
-0.446564
0.443191
-0.027365
0.0266856
-0.551363
0.552042
-0.0249353
0.0231743
-0.647346
0.649107
-0.0211615
0.0192352
-0.762329
0.764255
-0.0169963
0.0148022
-0.903144
0.905338
-0.0122121
0.00966183
-1.07392
1.07647
-0.00665588
0.00371726
-1.28076
1.2837
-0.000282319
-0.00306168
-1.53221
1.53555
0.00634021
-0.00957467
-1.53302
1.53625
0.0122463
-0.0149053
-1.2827
1.28536
0.0171179
-0.019337
-1.07654
1.07876
0.0212175
-0.0231426
-0.906405
0.908331
0.0247987
-0.0265283
-0.766866
0.768596
0.0280377
-0.0295091
-0.653306
0.654777
0.0299025
-0.0287451
-0.549893
0.548736
0.0249604
-0.0179709
-0.407471
0.400482
0.0107974
-0.00446169
-0.206234
0.199898
0.0011416
-0.0347912
0.0336496
-0.033642
0.0328495
0.000792527
-0.0078392
0.0134295
-0.271231
0.26564
-0.0193766
0.0229294
-0.439697
0.436144
-0.0242118
0.0238173
-0.552578
0.552972
-0.0224003
0.0208053
-0.650801
0.652396
-0.0189426
0.0171408
-0.766158
0.76796
-0.0150233
0.0129325
-0.907475
0.909566
-0.010466
0.00805795
-1.0789
1.08131
-0.00524559
0.0025033
-1.28649
1.28923
0.000706854
-0.00384721
-1.53877
1.54191
0.00690666
-0.00987663
-1.53937
1.54234
0.0122951
-0.0146873
-1.28791
1.2903
0.0166779
-0.0186736
-1.08089
1.08289
0.0203525
-0.022062
-0.910135
0.911845
0.0235269
-0.0250436
-0.770191
0.771707
0.0263281
-0.0273915
-0.656036
0.657099
0.0274174
-0.0256446
-0.54727
0.545497
0.021551
-0.0149534
-0.393679
0.387081
0.00879975
-0.0036178
-0.19419
0.189008
0.000929745
-0.0326291
0.0316994
-0.0321569
0.0315517
0.000605199
-0.00612735
0.0107348
-0.260562
0.255955
-0.0160273
0.0195325
-0.432603
0.429098
-0.021096
0.0208989
-0.553269
0.553466
-0.0196921
0.0181661
-0.653962
0.655488
-0.0163949
0.0147041
-0.769751
0.771442
-0.0127367
0.0107977
-0.911564
0.913503
-0.00850032
0.00624864
-1.08357
1.08582
-0.00361074
0.00104602
-1.29184
1.2944
0.00193794
-0.00482136
-1.5449
1.54778
0.0076081
-0.0102988
-1.54518
1.54787
0.0124674
-0.014581
-1.29258
1.29469
0.0163098
-0.0180209
-1.08476
1.08647
0.0194438
-0.020897
-0.913427
0.914881
0.0221703
-0.0235209
-0.773088
0.774438
0.0246798
-0.0254114
-0.657994
0.658725
0.025117
-0.0228996
-0.543522
0.541305
0.0186955
-0.0125914
-0.380743
0.374639
0.00729578
-0.00299029
-0.184305
0.179999
0.000772616
-0.0308625
0.0300899
-0.0310268
0.0305752
0.000451571
-0.00470718
0.00843423
-0.251803
0.248076
-0.0130036
0.0163143
-0.425678
0.422367
-0.018056
0.0180747
-0.553567
0.553549
-0.0171073
0.0156699
-0.657016
0.658454
-0.013987
0.012375
-0.773146
0.774758
-0.0104926
0.00863319
-0.915353
0.917212
-0.00643548
0.00429192
-1.08793
1.09008
-0.00179942
-0.000601837
-1.29683
1.29923
0.00336556
-0.00599775
-1.5505
1.55314
0.00851101
-0.0109146
-1.55042
1.55283
0.0128312
-0.0146815
-1.29672
1.29857
0.0161812
-0.0176438
-1.08808
1.08954
0.0188588
-0.0200965
-0.916209
0.917446
0.0211809
-0.0223404
-0.775638
0.776797
0.0233226
-0.023681
-0.659261
0.659619
0.0230472
-0.0204635
-0.538944
0.536361
0.0162705
-0.0106999
-0.368826
0.363256
0.00613328
-0.00251588
-0.176074
0.172457
0.000656803
-0.0293898
0.028733
-0.0301931
0.0298763
0.000316847
-0.00346168
0.00637631
-0.244766
0.241851
-0.0101708
0.013144
-0.419213
0.41624
-0.0149287
0.015151
-0.553432
0.55321
-0.0143794
0.0131255
-0.659843
0.661097
-0.0115439
0.00997699
-0.776391
0.777958
-0.00811464
0.00628348
-0.919011
0.920842
-0.00415298
0.00210849
-1.0921
1.09415
0.000238364
-0.00248426
-1.30151
1.30375
0.00504903
-0.00747699
-1.55563
1.55806
0.00975579
-0.0118759
-1.5551
1.55722
0.0135269
-0.0150965
-1.30032
1.30189
0.0163562
-0.0175907
-1.09094
1.09217
0.0186211
-0.0196531
-0.918592
0.919624
0.0205275
-0.0214293
-0.777782
0.778683
0.0220758
-0.0220949
-0.659794
0.659813
0.0210752
-0.0182256
-0.533669
0.530819
0.0141596
-0.00914157
-0.357989
0.352971
0.00520424
-0.00214416
-0.169151
0.166091
0.000568354
-0.028135
0.0275667
-0.029626
0.0294341
0.000191943
-0.002319
0.00446405
-0.23933
0.237185
-0.0074487
0.00995226
-0.413505
0.411001
-0.0115854
0.0118545
-0.55297
0.552701
-0.011136
0.00997027
-0.662353
0.663518
-0.00844554
0.00694321
-0.77954
0.781042
-0.00518023
0.00345617
-0.922545
0.924269
-0.0014536
-0.000465428
-1.09603
1.09795
0.00266657
-0.00475532
-1.30586
1.30794
0.0071147
-0.00930385
-1.56034
1.56253
0.0113075
-0.013106
-1.55919
1.56099
0.0144512
-0.0156573
-1.30334
1.30454
0.0165684
-0.0174131
-1.09329
1.09413
0.0180942
-0.0188281
-0.920516
0.92125
0.0195075
-0.0202222
-0.779384
0.780098
0.0206595
-0.0204445
-0.659695
0.65948
0.0191454
-0.0161769
-0.52795
0.524981
0.0123242
-0.00784597
-0.348266
0.343788
0.00445499
-0.00185345
-0.163299
0.160697
0.000501934
-0.027051
0.0265491
-0.0293044
0.029233
7.13928e-05
-0.00124084
0.00265376
-0.235417
0.234004
-0.00482922
0.00681977
-0.408776
0.406786
-0.0082391
0.00851391
-0.552484
0.55221
-0.00785591
0.0067817
-0.664734
0.665808
-0.00534821
0.00392361
-0.782528
0.783953
-0.00223455
0.000571831
-0.925832
0.927495
0.00137359
-0.00324283
-1.09973
1.1016
0.00537745
-0.0073765
-1.30991
1.31191
0.00957544
-0.0115446
-1.56455
1.56652
0.013289
-0.0148146
-1.56265
1.56417
0.0158995
-0.0168296
-1.30566
1.30659
0.0174871
-0.0180465
-1.09489
1.09545
0.0184729
-0.0188566
-0.921787
0.922171
0.01918
-0.0195366
-0.780588
0.780945
0.0195879
-0.0190931
-0.659058
0.658564
0.0175155
-0.0144223
-0.522035
0.518942
0.010775
-0.00678492
-0.339616
0.335626
0.00385901
-0.00163162
-0.158328
0.1561
0.000455397
-0.0260926
0.0256372
-0.0292217
0.029278
-5.62406e-05
-0.000106241
0.00078654
-0.232972
0.232291
-0.00212594
0.0035357
-0.405097
0.403687
-0.00469081
0.00500016
-0.551962
0.551653
-0.00450787
0.00360403
-0.666906
0.66781
-0.00226192
0.000830367
-0.785399
0.786831
0.000926639
-0.0026556
-0.92905
0.930779
0.00464198
-0.00651249
-1.10334
1.10521
0.00860096
-0.0105104
-1.31378
1.31569
0.0125609
-0.0143443
-1.56836
1.57014
0.0158424
-0.0170444
-1.56556
1.56676
0.017813
-0.018371
-1.30743
1.30799
0.0187176
-0.0189731
-1.09591
1.09616
0.0191283
-0.0192419
-0.92245
0.922564
0.019272
-0.01929
-0.781026
0.781044
0.0190114
-0.0180306
-0.657746
0.656765
0.0160711
-0.0128518
-0.515849
0.51263
0.00942661
-0.00589105
-0.331929
0.328393
0.00336727
-0.00145037
-0.154078
0.152161
0.000417729
-0.0252228
0.0248051
-0.0294069
0.0296052
-0.000198308
0.000889342
-0.000925382
-0.232003
0.232039
0.000441518
0.000293424
-0.40265
0.401915
-0.000987281
0.00111657
-0.551497
0.551368
-0.000591888
-0.000299076
-0.668816
0.669707
0.0016294
-0.00307403
-0.788264
0.789708
0.00485669
-0.00660546
-0.932354
0.934103
0.00860382
-0.0104641
-1.10693
1.10879
0.0125039
-0.014329
-1.31746
1.31929
0.016234
-0.017812
-1.57176
1.57334
0.0190401
-0.0199063
-1.56778
1.56864
0.0203353
-0.0205302
-1.30845
1.30864
0.0205216
-0.0203809
-1.09631
1.09617
0.0201802
-0.0199114
-0.922474
0.922205
0.0196452
-0.0193009
-0.780723
0.780378
0.0185957
-0.0171924
-0.655491
0.654088
0.0150153
-0.0117859
-0.509537
0.506308
0.00856794
-0.00536586
-0.32514
0.321938
0.0030991
-0.00135379
-0.15041
0.148664
0.000394045
-0.0244333
0.0240392
-0.0298618
0.0301722
-0.000310395
0.00179676
-0.00241901
-0.232357
0.232979
0.00271436
-0.00264957
-0.401575
0.40151
0.00251482
-0.00270096
-0.551538
0.551724
0.00340202
-0.00442566
-0.670799
0.671823
0.0058722
-0.00740629
-0.791148
0.792682
0.00925907
-0.0110496
-0.935662
0.937452
0.0130777
-0.0149597
-1.11049
1.11237
0.0170194
-0.0188364
-1.32098
1.3228
0.0206743
-0.0221025
-1.57477
1.5762
0.0230935
-0.02365
-1.56936
1.56991
0.0237608
-0.0235604
-1.30871
1.30851
0.0231839
-0.0226247
-1.09583
1.09527
0.0220426
-0.021399
-0.921703
0.921059
0.0208238
-0.0201274
-0.779677
0.778981
0.0191105
-0.0173704
-0.652567
0.650827
0.0149659
-0.0116425
-0.503209
0.499886
0.00848802
-0.00540355
-0.318929
0.315844
0.00318151
-0.00141187
-0.146993
0.145223
0.000413518
-0.0236735
0.02326
-0.0305501
0.0309782
-0.00042804
0.00260074
-0.00375685
-0.233893
0.235049
0.00475549
-0.00533945
-0.401812
0.402396
0.00573556
-0.00620884
-0.552287
0.552761
0.00709555
-0.00829396
-0.67311
0.674309
0.00993146
-0.0116488
-0.79421
0.795927
0.0137086
-0.0156921
-0.939082
0.941066
0.0179424
-0.0200287
-1.11415
1.11623
0.0222827
-0.0242239
-1.32453
1.32647
0.0260922
-0.0274312
-1.57749
1.57883
0.0282486
-0.0285397
-1.5703
1.57059
0.0283937
-0.0278597
-1.30817
1.30763
0.0271479
-0.0262078
-1.09451
1.09357
0.0252671
-0.0242247
-0.920142
0.9191
0.0233
-0.0222192
-0.777919
0.776839
0.0208423
-0.0186766
-0.648975
0.646809
0.0159524
-0.0124126
-0.496679
0.493139
0.00916634
-0.00597411
-0.31287
0.309678
0.00358667
-0.00161132
-0.14345
0.141475
0.000473677
-0.0228626
0.0223889
-0.0314742
0.0320371
-0.000562897
0.00349366
-0.00519214
-0.236499
0.238198
0.00688632
-0.00811579
-0.403301
0.404531
0.00911661
-0.00993382
-0.553698
0.554515
0.0109935
-0.0123553
-0.675772
0.677134
0.01425
-0.0162749
-0.797634
0.799659
0.0187331
-0.0210995
-0.942963
0.945329
0.023757
-0.0261683
-1.11827
1.12068
0.028707
-0.0308233
-1.32836
1.33047
0.0327764
-0.0340759
-1.58006
1.58136
0.0347209
-0.0347202
-1.5707
1.5707
0.0342346
-0.0333267
-1.30691
1.30601
0.0322651
-0.0309586
-1.09239
1.09108
0.0297063
-0.0283166
-0.917763
0.916373
0.0270209
-0.0254502
-0.775354
0.773784
0.023611
-0.020939
-0.644531
0.641859
0.0178409
-0.0140009
-0.489726
0.485886
0.0104993
-0.00695801
-0.30651
0.302969
0.00422061
-0.00190627
-0.13944
0.137126
0.000561327
-0.0219231
0.0213617
-0.0326742
0.0334135
-0.000739247
0.00460765
-0.00692743
-0.240212
0.242531
0.00939657
-0.0113825
-0.406181
0.408167
0.0131508
-0.0145629
-0.55598
0.557392
0.0161088
-0.0178624
-0.67886
0.680614
0.0202219
-0.0227085
-0.801696
0.804182
0.0256676
-0.0284626
-0.947623
0.950418
0.031537
-0.0342541
-1.12303
1.12575
0.0370181
-0.0392204
-1.33248
1.33468
0.0411335
-0.0422473
-1.58248
1.58359
0.0425671
-0.0421165
-1.57044
1.56999
0.0412065
-0.0398208
-1.30483
1.30345
0.0383192
-0.0365327
-1.08949
1.08771
0.0348467
-0.0330001
-0.914591
0.912745
0.0313202
-0.0292526
-0.771781
0.769713
0.0270049
-0.0239282
-0.639133
0.636056
0.0205153
-0.0163019
-0.482202
0.477988
0.0123505
-0.0082403
-0.299386
0.295276
0.00501015
-0.00226557
-0.134727
0.131982
0.000667803
-0.0208066
0.0201388
-0.0342319
0.0352164
-0.000984452
0.0061153
-0.00921453
-0.245186
0.248285
0.0125648
-0.0153577
-0.410671
0.413464
0.0180172
-0.0202105
-0.559685
0.561878
0.0225674
-0.0250421
-0.682943
0.685417
0.0281549
-0.0312455
-0.80669
0.80978
0.0347819
-0.0380347
-0.953116
0.956368
0.0415155
-0.0445106
-1.12835
1.13135
0.0474559
-0.0496982
-1.33671
1.33896
0.0514759
-0.0522691
-1.58443
1.58522
0.0521034
-0.0510235
-1.56917
1.56809
0.0494713
-0.0474113
-1.30171
1.29965
0.0453741
-0.0430702
-1.08556
1.08326
0.0409585
-0.0386709
-0.91045
0.908162
0.0365795
-0.0341083
-0.767203
0.764732
0.0315329
-0.0280523
-0.632973
0.629493
0.0241559
-0.0192379
-0.473863
0.468945
0.0145496
-0.00966921
-0.291088
0.286208
0.00586572
-0.00264949
-0.129159
0.125942
0.000779717
-0.0194792
0.0186995
-0.0362819
0.0376164
-0.00133444
0.00820672
-0.0123346
-0.25174
0.255867
0.0167467
-0.0203893
-0.416885
0.420528
0.0238806
-0.0268503
-0.565142
0.568112
0.0301048
-0.0334202
-0.68858
0.691895
0.0374131
-0.0412572
-0.812895
0.816739
0.0455254
-0.0493422
-0.959532
0.963349
0.0533454
-0.0567197
-1.13423
1.13761
0.0599701
-0.0623551
-1.34104
1.34342
0.0640964
-0.0646551
-1.58572
1.58628
0.064078
-0.0624189
-1.56661
1.56495
0.0602556
-0.0574527
-1.29713
1.29432
0.0546719
-0.0515978
-1.08049
1.07741
0.0489292
-0.0462036
-0.905418
0.902693
0.0438457
-0.0409843
-0.761812
0.75895
0.0379502
-0.0337136
-0.625908
0.621671
0.0288497
-0.02275
-0.463941
0.457841
0.0170752
-0.0113087
-0.281245
0.275478
0.00685674
-0.00309624
-0.122653
0.118892
0.000909807
-0.0179323
0.0170225
-0.0390115
0.0408609
-0.00184933
0.011225
-0.0167735
-0.260347
0.265895
0.0225514
-0.0271475
-0.425013
0.429609
0.0314115
-0.035031
-0.572338
0.575957
0.0390482
-0.0431553
-0.695879
0.699986
0.0480834
-0.0527423
-0.820619
0.825277
0.0578411
-0.0623794
-0.96712
0.971659
0.06711
-0.0710736
-1.14094
1.14491
0.074843
-0.0775515
-1.34571
1.34842
0.0794585
-0.0799771
-1.58663
1.58714
0.0792047
-0.0772023
-1.56299
1.56099
0.0746456
-0.0713365
-1.29116
1.28786
0.0680352
-0.0642999
-1.07379
1.07006
0.0609154
-0.0573897
-0.899219
0.895693
0.0542746
-0.0505369
-0.755445
0.751707
0.0463467
-0.0405378
-0.616962
0.611153
0.0341866
-0.0266485
-0.451584
0.444046
0.0199152
-0.0131866
-0.269696
0.262967
0.00799107
-0.0035959
-0.115069
0.110673
0.00104914
-0.0161345
0.0150854
-0.0427393
0.0454045
-0.00266521
0.0157985
-0.0233455
-0.271786
0.279333
0.0309746
-0.0368648
-0.435582
0.441473
0.0420998
-0.0464228
-0.581167
0.58549
0.0511993
-0.0560725
-0.704723
0.709596
0.0618413
-0.0672835
-0.829874
0.835316
0.0732962
-0.0786615
-0.976176
0.981541
0.0842391
-0.0888535
-1.14886
1.15347
0.0931504
-0.0961549
-1.35104
1.35404
0.0981692
-0.0985834
-1.58744
1.58785
0.0975404
-0.0951401
-1.5587
1.5563
0.092165
-0.0883472
-1.28423
1.28041
0.0845329
-0.0801505
-1.06582
1.06143
0.0760755
-0.0715295
-0.891258
0.886712
0.0670463
-0.0616072
-0.746817
0.741378
0.0555915
-0.0478242
-0.604536
0.596769
0.0399526
-0.0310783
-0.436466
0.427591
0.0232743
-0.0154333
-0.256303
0.248462
0.00932822
-0.00416637
-0.106224
0.101062
0.00120202
-0.0140653
0.0128633
-0.048031
0.0521235
-0.00409256
0.0231612
-0.0335496
-0.287292
0.297681
0.0437277
-0.0515315
-0.449747
0.457551
0.0581993
-0.0634825
-0.591934
0.597217
0.0692607
-0.0750355
-0.715027
0.720801
0.0817559
-0.0880446
-0.840671
0.846959
0.0949245
-0.100964
-0.986828
0.992868
0.107098
-0.112013
-1.15792
1.16283
0.116399
-0.11926
-1.35675
1.35961
0.120865
-0.120673
-1.58781
1.58762
0.118868
-0.115594
-1.55339
1.55012
0.111807
-0.107063
-1.27611
1.27137
0.102374
-0.0969747
-1.05638
1.05098
0.0918284
-0.0858486
-0.880933
0.874953
0.0798371
-0.0725006
-0.734348
0.727011
0.0648503
-0.0555434
-0.588268
0.578961
0.046485
-0.0363761
-0.418864
0.408755
0.027339
-0.0180923
-0.240766
0.231519
0.0108476
-0.00477591
-0.0959045
0.0898329
0.00135108
-0.0117125
0.0103614
-0.0559678
0.0631276
-0.00715976
0.0365623
-0.0512609
-0.309072
0.323771
0.0651286
-0.0755144
-0.469143
0.479529
0.0838878
-0.0904427
-0.605351
0.611906
0.0977093
-0.104547
-0.727033
0.733871
0.112096
-0.11887
-0.852995
0.859769
0.126012
-0.132036
-0.99853
1.00455
0.137876
-0.142263
-1.16718
1.17157
0.145822
-0.147672
-1.36172
1.36357
0.147944
-0.146291
-1.58653
1.58488
0.142954
-0.138089
-1.54594
1.54107
0.132887
-0.126639
-1.26582
1.25957
0.120599
-0.11372
-1.04464
1.03776
0.107175
-0.0996545
-0.867524
0.860004
0.0923244
-0.0836769
-0.718074
0.709427
0.0750022
-0.0646623
-0.569047
0.558707
0.0545259
-0.0429423
-0.398782
0.387199
0.0322913
-0.0212682
-0.222518
0.211495
0.012617
-0.00545635
-0.0839378
0.0767771
0.0015004
-0.0091009
0.0076005
-0.0698966
0.0737422
-0.00384561
0.0273605
-0.0400692
-0.341135
0.353844
0.052457
-0.0618661
-0.495059
0.504469
0.0702064
-0.0784793
-0.621897
0.63017
0.0878896
-0.0963132
-0.740502
0.748925
0.10602
-0.114922
-0.865742
0.874645
0.12456
-0.133192
-1.00959
1.01822
0.14219
-0.149817
-1.17479
1.18241
0.15719
-0.162752
-1.36413
1.36969
0.167097
-0.168963
-1.58183
1.5837
0.168161
-0.16504
-1.53487
1.53175
0.160418
-0.153819
-1.25222
1.24562
0.146861
-0.137836
-1.02977
1.02075
0.129052
-0.118817
-0.851032
0.840797
0.10904
-0.0978511
-0.699159
0.68797
0.0866234
-0.0733522
-0.54756
0.534289
0.0605525
-0.0457802
-0.375396
0.360624
0.0326656
-0.0199325
-0.200665
0.187931
0.0108233
-0.00421085
-0.0703088
0.0636963
0.000990193
-0.00635234
0.00536215
-0.0807225
0.0786058
0.00211671
0.00568772
-0.0137746
-0.369475
0.377562
0.0230377
-0.0299999
-0.518619
0.525582
0.0373753
-0.044758
-0.640565
0.647947
0.0535509
-0.0616165
-0.757318
0.765383
0.0703684
-0.0785517
-0.883084
0.891267
0.0873322
-0.0948281
-1.02652
1.03401
0.102785
-0.109121
-1.18974
1.19608
0.115104
-0.119188
-1.37473
1.37881
0.121531
-0.121501
-1.58428
1.58425
0.118749
-0.113608
-1.52715
1.52201
0.107074
-0.098622
-1.23781
1.22935
0.0901699
-0.0801489
-1.01071
1.00069
0.0705019
-0.059629
-0.828692
0.817819
0.04992
-0.0401161
-0.673411
0.663607
0.0318538
-0.0229962
-0.519009
0.510151
0.0153011
-0.00840057
-0.345259
0.338358
0.00393069
-0.000904398
-0.175496
0.17247
-0.000400876
0.000625542
-0.0572018
0.0569772
-0.000329112
-0.00412353
0.00445264
-0.0816133
0.0786647
0.00294859
-0.00288988
-0.00156231
-0.38847
0.392923
0.00763083
-0.0129838
-0.536618
0.541971
0.0190668
-0.0255925
-0.656929
0.663455
0.033307
-0.0403996
-0.772932
0.780025
0.0482757
-0.0554235
-0.898809
0.905957
0.0628052
-0.0694238
-1.0413
1.04792
0.0761993
-0.0816264
-1.20189
1.20731
0.0862322
-0.0890403
-1.38205
1.38486
0.0903067
-0.0891074
-1.58323
1.58203
0.0852823
-0.079222
-1.51588
1.50982
0.0721484
-0.0635496
-1.22044
1.21184
0.0548519
-0.0451322
-0.990104
0.980384
0.0360489
-0.0261089
-0.806747
0.796806
0.0176082
-0.00914991
-0.651731
0.643272
0.0025542
0.00377685
-0.499193
0.492862
-0.00790686
0.0098025
-0.329313
0.327418
-0.00952214
0.00774842
-0.167325
0.169099
-0.00542364
0.00278089
-0.0559302
0.058573
-0.000924101
-0.00429531
0.00521941
-0.0801526
0.0773881
0.00276449
-0.00598702
0.00395687
-0.400987
0.403017
-0.000293369
-0.00394724
-0.550459
0.5547
0.00945131
-0.0150486
-0.670704
0.676301
0.0217577
-0.0279578
-0.786844
0.793044
0.0347673
-0.0409319
-0.912692
0.918857
0.0476464
-0.0532477
-1.05412
1.05972
0.0591388
-0.063378
-1.2123
1.21654
0.067202
-0.0693644
-1.38737
1.38953
0.0698626
-0.0679224
-1.58027
1.57833
0.0639629
-0.0580168
-1.50316
1.49722
0.0512291
-0.0428135
-1.20305
1.19464
0.0348105
-0.026009
-0.97043
0.961628
0.0177491
-0.00910894
-0.7867
0.77806
0.00144732
0.00572921
-0.632989
0.625812
-0.0110471
0.0153553
-0.484408
0.4801
-0.0172727
0.0166605
-0.322028
0.32264
-0.0142225
0.0104915
-0.168441
0.172172
-0.00702626
0.00341546
-0.060022
0.0636328
-0.00107341
-0.00560102
0.00667442
-0.0785935
0.0762226
0.00237091
-0.00670724
0.00608308
-0.409358
0.409982
-0.00332136
0.000233273
-0.56196
0.565049
0.00448982
-0.0096836
-0.682505
0.687698
0.0154193
-0.0209756
-0.798832
0.804388
0.0269544
-0.0323628
-0.924695
0.930103
0.0381649
-0.0431834
-1.06522
1.07024
0.0481866
-0.0521028
-1.22065
1.22457
0.0553735
-0.0571363
-1.39133
1.3931
0.0573444
-0.0553251
-1.57623
1.57421
0.0515196
-0.0457993
-1.49069
1.48497
0.0395941
-0.0321313
-1.18639
1.17893
0.024997
-0.0170775
-0.952735
0.944816
0.00993774
-0.00240465
-0.769187
0.761654
-0.00401522
0.0101008
-0.617397
0.611311
-0.0144095
0.0174759
-0.473354
0.470288
-0.0187109
0.017525
-0.319269
0.320455
-0.0145423
0.0106211
-0.173154
0.177075
-0.00701785
0.00333502
-0.0657267
0.0694096
-0.00104866
-0.00718941
0.00823807
-0.077274
0.0752786
0.00199535
-0.00634809
0.00609212
-0.415162
0.415418
-0.00450172
0.00184163
-0.570926
0.573586
0.00275024
-0.00726968
-0.692746
0.697265
0.0123071
-0.0172314
-0.809385
0.814309
0.0226364
-0.0275425
-0.935283
0.940189
0.032927
-0.0373855
-1.07503
1.07949
0.0419552
-0.0455398
-1.22824
1.23182
0.048481
-0.0500506
-1.39463
1.3962
0.0501829
-0.0486421
-1.57217
1.57063
0.0451212
-0.0400781
-1.47896
1.47391
0.0345043
-0.0278765
-1.17152
1.16489
0.0218181
-0.0147896
-0.937035
0.930006
0.00855418
-0.00216966
-0.75411
0.747726
-0.00329321
0.00842952
-0.604412
0.599276
-0.0120433
0.0147096
-0.464819
0.462153
-0.0154908
0.0144948
-0.318157
0.319153
-0.0121442
0.00875814
-0.178065
0.181451
-0.00570335
0.00274687
-0.0711612
0.0741177
-0.000879234
-0.00866452
0.00954376
-0.0763504
0.0748181
0.0015323
-0.00533468
0.00530433
-0.419544
0.419574
-0.00384564
0.00172721
-0.578976
0.581094
0.00246679
-0.00659813
-0.70182
0.705951
0.0114711
-0.015804
-0.81902
0.823352
0.0206451
-0.0250752
-0.94517
0.9496
0.0302684
-0.0343962
-1.08404
1.08817
0.0385423
-0.0420223
-1.23528
1.23876
0.0452223
-0.046769
-1.39784
1.39939
0.0471431
-0.0457999
-1.56878
1.56744
0.0429976
-0.0383
-1.46881
1.46411
0.0334991
-0.0277757
-1.15827
1.15255
0.0223594
-0.0164268
-0.923229
0.917296
0.0110032
-0.00533947
-0.741213
0.73555
0.000867094
0.00362148
-0.593402
0.588913
-0.00681308
0.00891767
-0.45752
0.455416
-0.00968733
0.00930028
-0.317281
0.317668
-0.00771591
0.00539166
-0.18176
0.184084
-0.00342943
0.0016685
-0.0750296
0.0767905
-0.000560015
-0.00974825
0.0103083
-0.0759494
0.0747598
0.00118956
-0.00419672
0.00422804
-0.423112
0.423081
-0.00277967
0.000720087
-0.586127
0.588187
0.00320298
-0.00696207
-0.710112
0.713871
0.0112243
-0.0154727
-0.827767
0.832016
0.0200243
-0.0246545
-0.953934
0.958565
0.0292084
-0.0332244
-1.09245
1.09646
0.0375762
-0.040899
-1.24217
1.24549
0.0437371
-0.0458071
-1.4009
1.40297
0.0465188
-0.04564
-1.56621
1.56533
0.0432209
-0.0393517
-1.45969
1.45582
0.0351294
-0.030029
-1.14665
1.14155
0.0252709
-0.019977
-0.911349
0.906055
0.0151888
-0.0103468
-0.72999
0.725148
0.00612926
-0.00217711
-0.583816
0.579864
-0.000694369
0.00287502
-0.451381
0.449201
-0.00386294
0.00384488
-0.315487
0.315505
-0.00328882
0.00231319
-0.183333
0.184308
-0.00148647
0.000749143
-0.0767435
0.0774809
-0.000289437
-0.010246
0.0105354
-0.0760755
0.0750858
0.000989643
-0.00291468
0.00272131
-0.42641
0.426603
-0.00144128
-0.000713396
-0.592713
0.594867
0.00433693
-0.00800833
-0.717931
0.721602
0.0121538
-0.0160633
-0.836171
0.84008
0.02079
-0.0247067
-0.962712
0.966629
0.0292888
-0.0331851
-1.10068
1.10458
0.0374924
-0.0410764
-1.24885
1.25243
0.0442826
-0.0462366
-1.40486
1.40681
0.0474073
-0.0470533
-1.56443
1.56408
0.0453914
-0.0419619
-1.45188
1.44845
0.0382803
-0.0336931
-1.13658
1.13199
0.0294204
-0.0245441
-0.900598
0.895722
0.0202629
-0.0157089
-0.720076
0.715522
0.0118199
-0.00804181
-0.57536
0.571582
0.00513126
-0.00294851
-0.445364
0.443181
0.0015384
-0.000898338
-0.312682
0.312042
0.000429631
-0.000185135
-0.182675
0.182431
2.07936e-05
0.000143051
-0.0765288
0.0763649
-0.000123733
-0.0102311
0.0103548
-0.0764713
0.0757878
0.000683509
-0.00178844
0.00122977
-0.429876
0.430434
-0.000156645
-0.00229471
-0.59853
0.600981
0.00557794
-0.00914076
-0.725303
0.728866
0.0131529
-0.0172253
-0.843947
0.848019
0.0214004
-0.0255155
-0.970814
0.974929
0.0301088
-0.0338493
-1.10894
1.11268
0.0383016
-0.0418995
-1.25587
1.25946
0.0452375
-0.0477876
-1.40921
1.41176
0.0495312
-0.0495486
-1.5638
1.56382
0.0482146
-0.045544
-1.4452
1.44253
0.0424211
-0.0381982
-1.12727
1.12305
0.0341601
-0.029784
-0.890746
0.88637
0.0254187
-0.0212405
-0.710685
0.706506
0.0175181
-0.0137387
-0.567484
0.563705
0.0108896
-0.00828334
-0.439232
0.436626
0.00647032
-0.00494596
-0.308852
0.307327
0.0037
-0.00236369
-0.180052
0.178716
0.00120697
-0.000326612
-0.07469
0.0738096
-1.29557e-05
-0.00978074
0.00979369
-0.0772625
0.0767257
0.000536778
-0.000851777
0.000397016
-0.433562
0.434017
0.00138974
-0.0036177
-0.604568
0.606796
0.00703311
-0.0104779
-0.732221
0.735666
0.0143625
-0.0180743
-0.851846
0.855558
0.0224059
-0.0262476
-0.979104
0.982946
0.0308288
-0.035032
-1.1169
1.12111
0.0391769
-0.0431443
-1.26314
1.26711
0.0469536
-0.0496559
-1.41425
1.41695
0.051841
-0.0526937
-1.56408
1.56494
0.0518474
-0.049819
-1.43974
1.43771
0.0468997
-0.0430914
-1.11882
1.11501
0.0393966
-0.0351113
-0.881549
0.877264
0.0310334
-0.026876
-0.701782
0.697625
0.0231843
-0.0192792
-0.559479
0.555574
0.0161424
-0.01323
-0.43269
0.429777
0.0107298
-0.00843818
-0.303568
0.301276
0.00635873
-0.00414076
-0.175541
0.173323
0.00232478
-0.000860441
-0.0716038
0.0701394
0.000156184
-0.00909502
0.00893883
-0.0782991
0.0779356
0.000363532
0.000142098
-0.000862443
-0.437332
0.438053
0.00249666
-0.0049931
-0.610181
0.612677
0.00832416
-0.011618
-0.738924
0.742218
0.0155937
-0.019177
-0.859308
0.862892
0.0233826
-0.0273684
-0.987302
0.991288
0.0318831
-0.0360792
-1.1252
1.1294
0.0404749
-0.044503
-1.27103
1.27506
0.0485406
-0.0520243
-1.41997
1.42345
0.0547027
-0.0558982
-1.56575
1.56695
0.0557733
-0.0540794
-1.43557
1.43388
0.0516925
-0.048357
-1.1111
1.10776
0.0446639
-0.0405062
-0.872642
0.868485
0.0365126
-0.0322281
-0.693034
0.688749
0.0285709
-0.0244923
-0.551501
0.547422
0.0211574
-0.0176762
-0.425578
0.422096
0.0147052
-0.0116434
-0.296901
0.293839
0.00868922
-0.00568123
-0.169379
0.166371
0.00327053
-0.00128779
-0.0674702
0.0654874
0.000275834
-0.00818674
0.00791091
-0.0795384