/*--------------------------------*- C++ -*----------------------------------*\
  =========                 |
  \\      /  F ield         | OpenFOAM: The Open Source CFD Toolbox
   \\    /   O peration     | Website:  https://openfoam.org
    \\  /    A nd           | Version:  10
     \\/     M anipulation  |
\*---------------------------------------------------------------------------*/
FoamFile
{
    format      ascii;
    class       volVectorField;
    location    "30";
    object      U;
}
// * * * * * * * * * * * * * * * * * * * * * * * * * * * * * * * * * * * * * //

dimensions      [0 1 -1 0 0 0 0];

internalField   nonuniform List<vector> 
8800
(
(0.980154 -0.0915212 0)
(1.00234 -0.0587229 0)
(0.99961 -0.0321239 0)
(0.999998 -0.0165145 0)
(1.00005 -0.0088256 0)
(1.00002 -0.00507086 0)
(0.999996 -0.00297317 0)
(0.99999 -0.00168588 0)
(0.99999 -0.000808732 0)
(1.00005 -0.000122597 0)
(0.999996 0.000571188 0)
(1 0.00132756 0)
(1.00001 0.00236043 0)
(1.00002 0.00397121 0)
(1.00004 0.00672186 0)
(1.00005 0.0120314 0)
(0.99988 0.0230856 0)
(0.999072 0.0431527 0)
(1.00722 0.0790277 0)
(0.775024 0.0478396 0)
(0.358977 -0.0147489 0)
(1.04649 -0.0724932 0)
(1.08849 -0.0660304 0)
(1.04946 -0.0509236 0)
(1.02552 -0.037703 0)
(1.01266 -0.0258904 0)
(1.00648 -0.0166992 0)
(1.00356 -0.0102425 0)
(1.00214 -0.00565453 0)
(1.00149 -0.00209717 0)
(1.00137 0.00109497 0)
(1.00174 0.00439734 0)
(1.00271 0.00829325 0)
(1.00473 0.0136216 0)
(1.00897 0.0213147 0)
(1.01798 0.0318225 0)
(1.03588 0.0446118 0)
(1.0675 0.0580714 0)
(1.09474 0.0699572 0)
(0.845699 0.0554975 0)
(0.21776 -0.00138105 0)
(1.07567 -0.0506623 0)
(1.09943 -0.0489482 0)
(1.06438 -0.0400302 0)
(1.03983 -0.0325642 0)
(1.02369 -0.0253529 0)
(1.0139 -0.0181705 0)
(1.00842 -0.0116083 0)
(1.0056 -0.00590547 0)
(1.00446 -0.000662503 0)
(1.00479 0.00441568 0)
(1.00665 0.0097006 0)
(1.01057 0.0156888 0)
(1.01789 0.0224689 0)
(1.03053 0.0295897 0)
(1.05057 0.0367016 0)
(1.08018 0.0445079 0)
(1.1058 0.0518576 0)
(0.943444 0.040971 0)
(0.2173 0.00139991 0)
(0.176609 -0.000628825 0)
(1.01937 -0.0354687 0)
(1.10571 -0.0414231 0)
(1.07794 -0.0364173 0)
(1.05233 -0.0303818 0)
(1.03506 -0.024517 0)
(1.02321 -0.018767 0)
(1.01543 -0.0128376 0)
(1.01085 -0.00681174 0)
(1.00885 -0.000638907 0)
(1.00941 0.00547431 0)
(1.01254 0.0113768 0)
(1.0185 0.0171747 0)
(1.02809 0.0227934 0)
(1.04232 0.0283761 0)
(1.06319 0.034178 0)
(1.09404 0.0400872 0)
(1.09467 0.0416499 0)
(0.830597 0.0227182 0)
(0.175828 0.000643946 0)
(0.154697 -0.000462447 0)
(0.958135 -0.0256867 0)
(1.10437 -0.0351122 0)
(1.08801 -0.0326577 0)
(1.0611 -0.0281421 0)
(1.043 -0.0231997 0)
(1.03062 -0.0179867 0)
(1.02205 -0.0125567 0)
(1.01653 -0.00674784 0)
(1.01393 -0.000381088 0)
(1.01463 0.006013 0)
(1.01847 0.0118505 0)
(1.02527 0.0171744 0)
(1.03542 0.0222009 0)
(1.05021 0.0270537 0)
(1.07219 0.031542 0)
(1.10127 0.0354826 0)
(1.07014 0.0337704 0)
(0.743289 0.0143669 0)
(0.153532 0.000479547 0)
(0.140022 -0.000334002 0)
(0.901128 -0.0192952 0)
(1.09674 -0.03019 0)
(1.09611 -0.0293408 0)
(1.06875 -0.0255986 0)
(1.04984 -0.0215609 0)
(1.03688 -0.0169505 0)
(1.02792 -0.011802 0)
(1.02202 -0.00618174 0)
(1.01908 4.01379e-05 0)
(1.01979 0.00629095 0)
(1.02388 0.0118866 0)
(1.03094 0.016903 0)
(1.04148 0.021443 0)
(1.05693 0.0254393 0)
(1.07979 0.0289783 0)
(1.1037 0.0317282 0)
(1.0387 0.0278267 0)
(0.676996 0.0101815 0)
(0.138385 0.000354427 0)
(0.129314 -0.000252387 0)
(0.851342 -0.014862 0)
(1.08433 -0.0260222 0)
(1.10165 -0.0263713 0)
(1.07541 -0.0230798 0)
(1.05604 -0.0195005 0)
(1.04267 -0.0154677 0)
(1.03331 -0.0107785 0)
(1.02712 -0.00544247 0)
(1.02399 0.000567094 0)
(1.02461 0.00659518 0)
(1.02875 0.0118714 0)
(1.03602 0.0164091 0)
(1.04688 0.0202921 0)
(1.06271 0.0236705 0)
(1.08598 0.0267544 0)
(1.10309 0.0286561 0)
(1.0046 0.0231459 0)
(0.625705 0.00773082 0)
(0.127105 0.000277226 0)
(0.121189 -0.000192598 0)
(0.809072 -0.0116149 0)
(1.06906 -0.0223371 0)
(1.10514 -0.0236562 0)
(1.08156 -0.0208136 0)
(1.06165 -0.0174721 0)
(1.04798 -0.0137671 0)
(1.03837 -0.00945387 0)
(1.03193 -0.00445852 0)
(1.02859 0.00121806 0)
(1.0291 0.00687047 0)
(1.03323 0.0117282 0)
(1.04059 0.0157728 0)
(1.05159 0.0191898 0)
(1.06777 0.0221947 0)
(1.09151 0.0249933 0)
(1.09983 0.026015 0)
(0.970426 0.0193793 0)
(0.585015 0.00609591 0)
(0.118283 0.000222908 0)
(0.114942 -0.000147301 0)
(0.773687 -0.00914178 0)
(1.05225 -0.0190001 0)
(1.10726 -0.0210704 0)
(1.08716 -0.0187045 0)
(1.06688 -0.0156096 0)
(1.05296 -0.0120981 0)
(1.04315 -0.00801117 0)
(1.03645 -0.00334462 0)
(1.03287 0.0019825 0)
(1.03322 0.00726519 0)
(1.03733 0.011672 0)
(1.0447 0.0152962 0)
(1.05576 0.0183486 0)
(1.07221 0.0210074 0)
(1.09566 0.0234131 0)
(1.09385 0.0236301 0)
(0.93764 0.0163416 0)
(0.552031 0.00493342 0)
(0.111191 0.000184452 0)
(0.110144 -0.000110555 0)
(0.744385 -0.00717851 0)
(1.03521 -0.0159648 0)
(1.10843 -0.0184756 0)
(1.09237 -0.0163862 0)
(1.07182 -0.0134514 0)
(1.05764 -0.0101857 0)
(1.04765 -0.0063731 0)
(1.0408 -0.00200856 0)
(1.03702 0.00293731 0)
(1.03714 0.00776004 0)
(1.04105 0.0117046 0)
(1.04833 0.0148528 0)
(1.05945 0.0174499 0)
(1.07612 0.0197606 0)
(1.09866 0.021862 0)
(1.08582 0.0214439 0)
(0.907069 0.0138863 0)
(0.524829 0.0040697 0)
(0.105362 0.000156093 0)
(0.106511 -8.0629e-05 0)
(0.72044 -0.00554323 0)
(1.01877 -0.0131472 0)
(1.10882 -0.015953 0)
(1.09744 -0.0142077 0)
(1.0765 -0.0114044 0)
(1.06196 -0.00828262 0)
(1.05177 -0.00463468 0)
(1.04469 -0.000503829 0)
(1.04063 0.00407013 0)
(1.0405 0.00841277 0)
(1.04422 0.0119059 0)
(1.05137 0.0146416 0)
(1.06252 0.0168583 0)
(1.07955 0.018823 0)
(1.10046 0.0205414 0)
(1.07621 0.019463 0)
(0.879 0.0118741 0)
(0.502099 0.00341416 0)
(0.100471 0.000136804 0)
(0.103868 -5.41196e-05 0)
(0.701349 -0.0041065 0)
(1.0036 -0.0104392 0)
(1.10833 -0.0133415 0)
(1.10203 -0.0119717 0)
(1.081 -0.00931301 0)
(1.06618 -0.0062274 0)
(1.05573 -0.00270216 0)
(1.04838 0.00119662 0)
(1.044 0.00543821 0)
(1.04353 0.00937518 0)
(1.04696 0.0123946 0)
(1.05398 0.0146964 0)
(1.06517 0.0165696 0)
(1.08238 0.0181504 0)
(1.10107 0.0193348 0)
(1.06527 0.0175868 0)
(0.853538 0.010186 0)
(0.482928 0.00289813 0)
(0.0962827 0.000123241 0)
(0.102125 -2.88441e-05 0)
(0.686784 -0.00278583 0)
(0.990404 -0.00778351 0)
(1.1073 -0.0104505 0)
(1.10614 -0.00921657 0)
(1.08536 -0.00665302 0)
(1.07026 -0.00372914 0)
(1.05949 -0.000415982 0)
(1.05178 0.00322396 0)
(1.04699 0.00712322 0)
(1.04609 0.0105894 0)
(1.04925 0.0130476 0)
(1.05611 0.014709 0)
(1.06725 0.0159627 0)
(1.08443 0.0171963 0)
(1.10072 0.0180409 0)
(1.05358 0.015799 0)
(0.830735 0.00875755 0)
(0.466687 0.00249014 0)
(0.0926437 0.000114496 0)
(0.101216 -3.01445e-06 0)
(0.676559 -0.00154683 0)
(0.979652 -0.00520431 0)
(1.10637 -0.00752993 0)
(1.11014 -0.00641399 0)
(1.08952 -0.00400954 0)
(1.07407 -0.00120962 0)
(1.06312 0.00200684 0)
(1.05518 0.00553922 0)
(1.04997 0.00916416 0)
(1.0485 0.0121827 0)
(1.05108 0.0141793 0)
(1.05753 0.015405 0)
(1.06853 0.0161588 0)
(1.08592 0.0167645 0)
(1.09943 0.0170212 0)
(1.04157 0.0142581 0)
(0.810463 0.00757305 0)
(0.452859 0.00217454 0)
(0.0894019 0.000110762 0)
(0.101165 2.40118e-05 0)
(0.670621 -0.000264234 0)
(0.971482 -0.00251816 0)
(1.10524 -0.00442475 0)
(1.11361 -0.00359325 0)
(1.09345 -0.00135257 0)
(1.07773 0.00155951 0)
(1.06644 0.00484276 0)
(1.058 0.00828442 0)
(1.05212 0.0116709 0)
(1.05004 0.0142727 0)
(1.05216 0.0156824 0)
(1.05826 0.0163151 0)
(1.06914 0.0166427 0)
(1.08623 0.0166667 0)
(1.09678 0.0163187 0)
(1.02894 0.0128537 0)
(0.792457 0.00656318 0)
(0.441032 0.00191958 0)
(0.0864539 0.000107178 0)
(0.102048 6.15623e-05 0)
(0.668907 0.000926673 0)
(0.966374 8.05971e-05 0)
(1.10442 -0.00107771 0)
(1.1168 -0.000183441 0)
(1.09752 0.00201114 0)
(1.08169 0.00496751 0)
(1.07009 0.00826612 0)
(1.06118 0.0116345 0)
(1.05464 0.0147681 0)
(1.05168 0.0168861 0)
(1.05301 0.0177155 0)
(1.05856 0.017742 0)
(1.06899 0.0173889 0)
(1.08566 0.0168755 0)
(1.09261 0.0157269 0)
(1.01621 0.0118409 0)
(0.776494 0.00595327 0)
(0.430698 0.00179417 0)
(0.0837666 0.000101486 0)
(0.103823 8.91779e-05 0)
(0.670738 0.00190153 0)
(0.964583 0.0023492 0)
(1.10477 0.00211737 0)
(1.12023 0.00332578 0)
(1.10158 0.00573095 0)
(1.08548 0.00879927 0)
(1.07338 0.0121427 0)
(1.06379 0.0155364 0)
(1.05635 0.0185516 0)
(1.0524 0.0202822 0)
(1.05289 0.0205305 0)
(1.0578 0.0198649 0)
(1.06785 0.0188069 0)
(1.08403 0.0177661 0)
(1.08744 0.0160129 0)
(1.00338 0.0116825 0)
(0.76165 0.00594335 0)
(0.420792 0.00187727 0)
(0.0811031 0.000105707 0)
(0.106425 0.000123641 0)
(0.675997 0.00283188 0)
(0.965889 0.00445566 0)
(1.10653 0.00504654 0)
(1.12427 0.00659614 0)
(1.106 0.00932703 0)
(1.08959 0.0127303 0)
(1.07708 0.0164407 0)
(1.06678 0.0201567 0)
(1.05823 0.0232158 0)
(1.05302 0.0246354 0)
(1.05234 0.0244093 0)
(1.05629 0.0231347 0)
(1.06574 0.0214504 0)
(1.08134 0.0197243 0)
(1.08113 0.0173177 0)
(0.990016 0.0123922 0)
(0.74689 0.00650996 0)
(0.410231 0.00214594 0)
(0.0781845 0.000120623 0)
(0.109881 0.000162826 0)
(0.684398 0.00382926 0)
(0.970039 0.00656878 0)
(1.10961 0.00817075 0)
(1.12889 0.0100214 0)
(1.11099 0.0131946 0)
(1.09432 0.0172457 0)
(1.08121 0.0216242 0)
(1.06991 0.0258022 0)
(1.05991 0.0290008 0)
(1.05314 0.0301241 0)
(1.05115 0.029306 0)
(1.05404 0.0274075 0)
(1.06277 0.0251605 0)
(1.07743 0.0227363 0)
(1.07334 0.0194559 0)
(0.975749 0.0138662 0)
(0.731115 0.00755034 0)
(0.398108 0.00253891 0)
(0.0747679 0.000142916 0)
(0.114379 0.00021458 0)
(0.696146 0.00505669 0)
(0.977663 0.00908711 0)
(1.11466 0.011964 0)
(1.13435 0.0145983 0)
(1.11698 0.0185642 0)
(1.09997 0.0234423 0)
(1.08594 0.0285069 0)
(1.07323 0.0330445 0)
(1.06143 0.0361698 0)
(1.05279 0.0367371 0)
(1.04923 0.035136 0)
(1.05098 0.0324577 0)
(1.05881 0.0294188 0)
(1.07216 0.0262379 0)
(1.06405 0.0221752 0)
(0.960341 0.0160461 0)
(0.713264 0.00893299 0)
(0.383827 0.00301606 0)
(0.0707044 0.000170541 0)
(0.120252 0.000288052 0)
(0.711759 0.00671541 0)
(0.989233 0.0121918 0)
(1.12279 0.0165438 0)
(1.14182 0.0205097 0)
(1.12441 0.0257172 0)
(1.10665 0.0315455 0)
(1.09123 0.0372722 0)
(1.07665 0.0421137 0)
(1.06262 0.0450037 0)
(1.05171 0.0447312 0)
(1.04646 0.0420019 0)
(1.0469 0.0383375 0)
(1.05374 0.0345417 0)
(1.06557 0.030591 0)
(1.05359 0.0259173 0)
(0.943161 0.0189365 0)
(0.692468 0.0105046 0)
(0.367075 0.00352792 0)
(0.0659105 0.00019834 0)
(0.128027 0.000395407 0)
(0.732209 0.00900871 0)
(1.0049 0.0162038 0)
(1.13445 0.0219602 0)
(1.15204 0.0274543 0)
(1.1336 0.0340727 0)
(1.11443 0.0411008 0)
(1.09707 0.0476819 0)
(1.08012 0.0530223 0)
(1.06333 0.055856 0)
(1.04973 0.0548956 0)
(1.0424 0.0510516 0)
(1.04162 0.0460514 0)
(1.04768 0.0412438 0)
(1.05792 0.0368035 0)
(1.04148 0.0312107 0)
(0.922415 0.0225271 0)
(0.667898 0.0122812 0)
(0.347585 0.00412727 0)
(0.0603391 0.000230267 0)
(0.13843 0.000556031 0)
(0.758894 0.0123077 0)
(1.02511 0.021707 0)
(1.14946 0.0287482 0)
(1.16501 0.035536 0)
(1.14499 0.043665 0)
(1.12363 0.0520637 0)
(1.10377 0.0598624 0)
(1.08395 0.0660636 0)
(1.06387 0.0691796 0)
(1.04715 0.0678877 0)
(1.03736 0.0633219 0)
(1.03478 0.0573709 0)
(1.04004 0.0512988 0)
(1.04872 0.0456925 0)
(1.0257 0.037865 0)
(0.896625 0.0264711 0)
(0.639318 0.0143179 0)
(0.324965 0.0048075 0)
(0.0539046 0.000261143 0)
(0.152704 0.000816745 0)
(0.793951 0.0172581 0)
(1.05132 0.0296281 0)
(1.16765 0.0383218 0)
(1.1805 0.0463823 0)
(1.15838 0.055884 0)
(1.13454 0.0657755 0)
(1.11168 0.0749941 0)
(1.08831 0.0820897 0)
(1.06434 0.0853963 0)
(1.04413 0.0836408 0)
(1.03158 0.078308 0)
(1.02677 0.0714173 0)
(1.03029 0.0640554 0)
(1.03594 0.0559615 0)
(1.00377 0.045042 0)
(0.86563 0.0308252 0)
(0.606502 0.0167713 0)
(0.298722 0.00559374 0)
(0.0465405 0.000292346 0)
(0.173025 0.00128093 0)
(0.840796 0.0250528 0)
(1.08653 0.041553 0)
(1.18973 0.0527228 0)
(1.19832 0.0624304 0)
(1.17386 0.0734603 0)
(1.14719 0.0848219 0)
(1.12053 0.0949706 0)
(1.09285 0.10224 0)
(1.06443 0.104889 0)
(1.04034 0.101814 0)
(1.02474 0.0949833 0)
(1.01722 0.0864833 0)
(1.01756 0.0771396 0)
(1.01748 0.0661955 0)
(0.975902 0.0523284 0)
(0.830286 0.0359604 0)
(0.56888 0.0197309 0)
(0.268466 0.00645429 0)
(0.0382859 0.000315955 0)
(0.202799 0.00233396 0)
(0.905289 0.038585 0)
(1.13385 0.0612898 0)
(1.21688 0.0754779 0)
(1.21882 0.0876954 0)
(1.19116 0.0999927 0)
(1.1607 0.111849 0)
(1.12929 0.121534 0)
(1.09659 0.127448 0)
(1.06324 0.127902 0)
(1.03495 0.122135 0)
(1.01597 0.112686 0)
(1.00525 0.101702 0)
(1.00114 0.0897941 0)
(0.994167 0.0764012 0)
(0.943973 0.0606454 0)
(0.790696 0.0423674 0)
(0.525736 0.0233055 0)
(0.23446 0.00743264 0)
(0.0294414 0.00033078 0)
(0.243777 0.00865427 1.57166e-19)
(0.991265 0.0659108 1.35175e-19)
(1.19161 0.0947777 -4.60015e-20)
(1.24858 0.110728 0)
(1.24084 0.12592 -1.04055e-33)
(1.20847 0.137947 1.48707e-20)
(1.17321 0.148473 -2.47922e-20)
(1.1364 0.155981 0)
(1.0982 0.159009 4.65525e-34)
(1.05946 0.155891 -2.65998e-20)
(1.02643 0.146318 0)
(1.0034 0.13344 -2.97675e-20)
(0.988595 0.119477 -8.66e-20)
(0.979066 0.105101 -4.05055e-20)
(0.965227 0.090443 -1.1996e-20)
(0.906396 0.0740106 -7.07212e-21)
(0.742147 0.0528042 0)
(0.47268 0.0290896 4.9356e-21)
(0.197162 0.00988383 5.83221e-21)
(0.0213907 0.00079256 1.05289e-19)
(0.271498 0.0243352 1.42709e-19)
(1.06183 0.10877 5.07214e-22)
(1.23905 0.142832 1.35302e-20)
(1.27864 0.160198 0)
(1.26095 0.17487 -5.68046e-20)
(1.22338 0.185494 -6.19953e-20)
(1.18295 0.19395 -2.59963e-20)
(1.14049 0.198909 -8.6144e-20)
(1.09639 0.198829 0)
(1.05141 0.191866 1.13944e-19)
(1.01232 0.178204 1.09583e-19)
(0.98374 0.161694 3.18366e-20)
(0.963383 0.144804 1.12666e-19)
(0.947603 0.128252 1.55068e-19)
(0.92593 0.11221 0)
(0.859311 0.0946211 2.15537e-19)
(0.686373 0.0690588 3.08773e-19)
(0.419756 0.0393077 3.42492e-19)
(0.165738 0.014586 -3.91634e-19)
(0.0151567 0.00132859 -7.38234e-21)
(0.271097 0.0397101 0)
(1.10559 0.164675 3.14446e-20)
(1.27194 0.202461 0)
(1.30209 0.219877 -9.20153e-20)
(1.27679 0.231604 0)
(1.23439 0.239182 -1.29193e-19)
(1.18889 0.244268 5.47628e-20)
(1.14101 0.245652 -1.80218e-19)
(1.09121 0.241705 -1.57274e-21)
(1.0402 0.230562 6.0194e-20)
(0.995326 0.212908 2.37944e-19)
(0.96168 0.193308 -3.11996e-22)
(0.936667 0.174354 -8.12257e-20)
(0.916479 0.156697 -1.44621e-19)
(0.890903 0.139988 1.70122e-19)
(0.82397 0.120571 -3.00295e-19)
(0.655625 0.0899403 -3.94409e-20)
(0.403662 0.0538577 0)
(0.166339 0.021896 2.78301e-23)
(0.0166652 0.00234252 0)
(0.264155 0.0532325 5.75633e-19)
(1.12855 0.223743 -2.56081e-19)
(1.29278 0.266933 -1.64341e-19)
(1.31746 0.284073 4.78047e-20)
(1.28682 0.292397 -7.79976e-20)
(1.24056 0.296285 2.74845e-19)
(1.19075 0.297458 1.16294e-19)
(1.1381 0.294793 0)
(1.08319 0.286656 -3.17939e-19)
(1.02675 0.271194 0)
(0.976677 0.24979 -1.26383e-19)
(0.938672 0.227523 -1.49438e-19)
(0.910066 0.206911 -8.7833e-20)
(0.886975 0.188358 -1.04262e-19)
(0.859574 0.170813 0)
(0.795321 0.149777 0)
(0.639956 0.115457 -2.56641e-19)
(0.407113 0.0733438 5.04779e-20)
(0.179195 0.0324388 -2.98077e-20)
(0.0214913 0.00415357 -3.48463e-20)
(0.256683 0.0653283 -3.5048e-19)
(1.13805 0.282588 0)
(1.30452 0.332298 3.97445e-19)
(1.32562 0.349411 1.49079e-19)
(1.29115 0.354395 1.70143e-19)
(1.24187 0.354555 0)
(1.18855 0.351779 1.20757e-19)
(1.13194 0.34501 2.04026e-19)
(1.07264 0.332673 1.6723e-19)
(1.01147 0.312957 2.79687e-19)
(0.956977 0.287922 0)
(0.915389 0.263188 -3.21311e-19)
(0.88399 0.241029 -1.89026e-19)
(0.858773 0.221603 -1.1062e-19)
(0.830625 0.203412 6.62946e-19)
(0.770301 0.181116 7.85965e-20)
(0.62956 0.143755 3.69565e-19)
(0.414993 0.0952839 -1.74503e-18)
(0.193667 0.0450589 1.03618e-18)
(0.0266301 0.00652709 -1.24889e-18)
(0.249901 0.0763162 -3.185e-19)
(1.13913 0.339343 6.81077e-20)
(1.30927 0.39671 -5.81064e-20)
(1.328 0.414071 -1.99688e-19)
(1.29065 0.415924 -1.72228e-19)
(1.23895 0.412505 1.72436e-21)
(1.18278 0.405965 -1.2977e-19)
(1.12286 0.395266 2.15659e-19)
(1.05986 0.378869 -3.5879e-19)
(0.99463 0.355042 0)
(0.936414 0.326456 -1.48388e-19)
(0.891987 0.299273 -1.58159e-21)
(0.858456 0.27561 -2.04476e-19)
(0.831737 0.255257 0)
(0.80337 0.236443 -1.42704e-19)
(0.747035 0.213032 -3.37795e-19)
(0.61955 0.173018 9.00592e-19)
(0.420639 0.118136 -8.86176e-19)
(0.204794 0.0583075 1.25912e-18)
(0.0308403 0.0091038 -1.30829e-18)
(0.24441 0.0865592 -4.08242e-22)
(1.13499 0.3934 -6.86288e-20)
(1.30926 0.459801 -2.38434e-19)
(1.32588 0.477018 1.02473e-19)
(1.28632 0.476016 -9.09069e-20)
(1.23266 0.469275 0)
(1.17412 0.459224 -1.32767e-19)
(1.11141 0.444835 -2.2888e-19)
(1.04522 0.424597 -1.89726e-19)
(0.976509 0.396801 0)
(0.915117 0.364725 -1.56415e-19)
(0.868396 0.335009 -1.8533e-19)
(0.833312 0.309706 2.20123e-19)
(0.805652 0.288369 -1.30694e-19)
(0.777436 0.268851 -6.16249e-19)
(0.724631 0.244202 3.65576e-19)
(0.607771 0.202023 1.09005e-19)
(0.420808 0.140512 0)
(0.20983 0.0707707 -1.20553e-18)
(0.0332998 0.0114594 -4.41472e-20)
(0.240207 0.0963635 -4.24414e-20)
(1.12776 0.444634 7.07281e-20)
(1.30541 0.520296 1.26207e-19)
(1.32033 0.537602 3.33286e-19)
(1.27902 0.53409 -3.77661e-19)
(1.22375 0.524339 3.2916e-19)
(1.16323 0.511059 2.84492e-19)
(1.09813 0.493253 -3.6659e-19)
(1.02916 0.469414 1.07634e-19)
(0.957359 0.437812 -6.85842e-19)
(0.893215 0.402242 -1.7171e-19)
(0.844577 0.369893 0)
(0.808378 0.342718 2.36857e-19)
(0.780181 0.320122 2.79074e-19)
(0.752403 0.299633 3.30183e-19)
(0.70262 0.273744 -3.93476e-19)
(0.593532 0.228815 -1.16204e-19)
(0.415276 0.160287 1.36928e-19)
(0.208953 0.0809988 0)
(0.033848 0.0132192 -9.49149e-20)
(0.237133 0.105868 4.31374e-19)
(1.11893 0.493148 -2.91278e-19)
(1.29884 0.57798 -1.33197e-19)
(1.31225 0.595516 2.3231e-19)
(1.26949 0.589791 -1.95961e-19)
(1.21289 0.577344 -3.98586e-21)
(1.15068 0.561153 -3.06138e-19)
(1.08351 0.540228 -1.31356e-19)
(1.01205 0.513041 -3.27032e-19)
(0.937455 0.477805 2.23423e-22)
(0.870815 0.438746 -5.4407e-19)
(0.820538 0.40358 4.34437e-19)
(0.783449 0.374306 -2.5638e-19)
(0.755011 0.350164 3.02675e-19)
(0.727745 0.328351 0)
(0.680356 0.300736 -2.1143e-19)
(0.576822 0.252513 -9.15658e-22)
(0.404785 0.176754 -5.89931e-19)
(0.203675 0.0886476 -8.69676e-20)
(0.0330276 0.0143315 0)
(0.235029 0.115179 0)
(1.10935 0.539134 -3.08053e-19)
(1.29037 0.632753 -2.73644e-19)
(1.30233 0.650642 -2.4366e-19)
(1.25833 0.642952 -2.15698e-19)
(1.20061 0.628102 0)
(1.13697 0.609301 -1.55924e-19)
(1.06797 0.585562 -1.17411e-21)
(0.994266 0.555309 6.99496e-19)
(0.917057 0.516641 -9.62401e-20)
(0.84804 0.474108 -3.90078e-19)
(0.796249 0.435977 2.2912e-19)
(0.758421 0.404306 -2.00898e-21)
(0.729822 0.378291 3.22503e-19)
(0.703031 0.354866 1.93917e-19)
(0.65737 0.325051 -4.54545e-19)
(0.557648 0.272726 5.37865e-19)
(0.390044 0.189827 1.58728e-19)
(0.194434 0.0936567 6.54404e-19)
(0.0309268 0.0147228 -1.75329e-18)
(0.233817 0.124418 9.09203e-20)
(1.09958 0.582794 -1.56739e-19)
(1.28074 0.684639 1.34173e-19)
(1.2911 0.702957 2.524e-19)
(1.24604 0.69349 0)
(1.18738 0.676509 -1.88362e-19)
(1.12251 0.655394 5.06319e-19)
(1.05187 0.62914 2.95364e-19)
(0.976094 0.596115 0)
(0.896382 0.554249 -1.35748e-18)
(0.825027 0.5083 1.04721e-18)
(0.771686 0.467062 0)
(0.733102 0.432754 2.95838e-19)
(0.704376 0.404577 -1.99626e-21)
(0.677976 0.379172 -6.19888e-19)
(0.633459 0.346698 2.42634e-19)
(0.536143 0.289554 0)
(0.371915 0.199279 8.52952e-19)
(0.182201 0.0961897 0)
(0.0280446 0.0145533 -8.24756e-19)
(0.233299 0.13364 -9.38536e-20)
(1.09003 0.624258 -1.59792e-19)
(1.27017 0.733704 1.45123e-19)
(1.279 0.752442 0)
(1.23303 0.741392 -2.34083e-19)
(1.17357 0.722531 0)
(1.10762 0.699371 -5.29082e-19)
(1.03551 0.670899 -1.50443e-19)
(0.957799 0.635407 1.29133e-19)
(0.875643 0.590608 -6.70329e-19)
(0.801862 0.541358 1.10095e-19)
(0.746839 0.496907 0)
(0.707398 0.459726 -6.31955e-19)
(0.678504 0.429076 2.04647e-21)
(0.652352 0.401373 0)
(0.60841 0.365748 2.29734e-21)
(0.512271 0.30302 7.75523e-19)
(0.350669 0.20507 -7.33888e-19)
(0.167674 0.0962584 2.16365e-19)
(0.0246258 0.0138131 0)
(0.233155 0.142694 0)
(1.08092 0.663625 -1.64787e-19)
(1.25907 0.78009 -1.45811e-19)
(1.26639 0.799148 -2.27831e-21)
(1.21962 0.78669 -1.18223e-19)
(1.15947 0.766172 -4.28057e-19)
(1.09258 0.741221 1.90992e-19)
(1.01915 0.710813 -1.66114e-19)
(0.93961 0.673156 5.61011e-19)
(0.855013 0.625732 -1.07179e-18)
(0.778656 0.57335 -3.32327e-21)
(0.721755 0.525635 -2.85083e-19)
(0.681304 0.48536 1.01898e-18)
(0.652109 0.45197 -2.41166e-21)
(0.626057 0.421616 -4.76652e-19)
(0.582117 0.382247 -8.46949e-19)
(0.486199 0.31318 0)
(0.326831 0.207402 0)
(0.151349 0.0939074 2.3296e-19)
(0.0209002 0.0125518 -1.36287e-19)
(0.233535 0.151729 -9.92085e-20)
(1.07223 0.700743 3.45434e-19)
(1.24773 0.823866 1.554e-19)
(1.25354 0.843158 0)
(1.20606 0.829437 -1.54731e-21)
(1.14534 0.807464 -4.43958e-19)
(1.07764 0.780955 4.96144e-19)
(1.003 0.74888 6.90349e-19)
(0.921723 0.70937 7.40953e-19)
(0.834679 0.659656 -8.83519e-19)
(0.755598 0.604383 -8.954e-19)
(0.69653 0.553417 7.61892e-19)
(0.654765 0.509849 0)
(0.625111 0.473383 -2.17206e-19)
(0.599 0.439987 -5.13175e-19)
(0.554547 0.396237 -6.06242e-19)
(0.457739 0.319903 -7.1823e-19)
(0.300738 0.206259 2.12246e-19)
(0.133517 0.0891425 -1.25019e-19)
(0.0168735 0.0108025 3.29431e-22)
(0.233966 0.160628 0)
(1.06414 0.736116 0)
(1.23632 0.865117 2.57696e-21)
(1.24064 0.884564 0)
(1.19254 0.869717 3.89906e-19)
(1.13134 0.846463 3.45829e-19)
(1.06295 0.818604 0)
(0.987226 0.785116 8.87319e-20)
(0.904314 0.744056 1.25389e-18)
(0.814844 0.692415 -2.02584e-18)
(0.732848 0.634565 0)
(0.671235 0.580439 -4.88884e-19)
(0.62779 0.533378 -2.94784e-21)
(0.597424 0.493478 -2.41367e-21)
(0.571085 0.45654 5.48327e-19)
(0.525674 0.407602 -4.1663e-22)
(0.427281 0.323124 -1.54214e-18)
(0.272454 0.20147 4.55783e-19)
(0.114807 0.0822376 1.34643e-19)
(0.0128333 0.00873245 0)
(0.234399 0.169327 3.13901e-19)
(1.05638 0.769773 1.84618e-19)
(1.22494 0.903916 3.29661e-19)
(1.22784 0.923468 -6.03364e-19)
(1.17922 0.907597 6.78408e-19)
(1.11764 0.883229 0)
(1.04866 0.854212 3.28568e-19)
(0.971973 0.819547 -1.91953e-19)
(0.887531 0.777237 3.81977e-21)
(0.795664 0.724046 1.46315e-19)
(0.710548 0.663982 1.1623e-18)
(0.646002 0.606886 -1.72736e-19)
(0.600402 0.556215 -6.24668e-19)
(0.568932 0.512455 -2.50848e-19)
(0.542141 0.471251 2.96259e-19)
(0.495442 0.416104 -2.73241e-22)
(0.395185 0.322581 4.14655e-19)
(0.242838 0.193154 -9.7842e-19)
(0.0959203 0.0735753 1.15649e-18)
(0.00893261 0.00645927 1.68683e-19)
(0.234668 0.177705 -1.07716e-19)
(1.04896 0.801796 9.60651e-20)
(1.21372 0.940389 6.08051e-21)
(1.21526 0.959986 -3.10283e-19)
(1.16622 0.943181 -1.38258e-19)
(1.10434 0.917832 -6.48549e-19)
(1.03488 0.88783 1.117e-19)
(0.957344 0.852195 -8.13545e-19)
(0.871488 0.808911 -1.41046e-18)
(0.777261 0.754551 -1.22019e-18)
(0.68888 0.692714 0)
(0.620994 0.632937 -7.47191e-19)
(0.572658 0.578657 8.94519e-19)
(0.539478 0.530568 0)
(0.511861 0.484047 -6.33642e-19)
(0.463728 0.42126 3.76628e-19)
(0.361779 0.317772 -4.44627e-19)
(0.213007 0.18144 -5.25662e-19)
(0.0778042 0.0636881 -9.30219e-19)
(0.00540891 0.00417154 -7.25153e-19)
(0.235227 0.1859 1.10298e-19)
(1.04174 0.832158 -1.02527e-19)
(1.20272 0.974611 -2.59831e-19)
(1.20299 0.994204 -4.05248e-19)
(1.1536 0.976556 2.98567e-19)
(1.0915 0.950355 -4.05167e-19)
(1.02167 0.919508 3.60786e-19)
(0.943413 0.883105 -8.58068e-19)
(0.856255 0.839103 -8.42148e-19)
(0.759758 0.783945 1.28994e-18)
(0.668011 0.720814 2.55741e-18)
(0.59639 0.658749 0)
(0.544665 0.601008 0)
(0.508878 0.548192 -2.87767e-19)
(0.479701 0.494918 0)
(0.430071 0.422262 8.09016e-19)
(0.32754 0.307636 9.55296e-19)
(0.184559 0.166122 0)
(0.0618328 0.0531475 0)
(0.00248081 0.0020975 7.78236e-19)
(0.2354 0.193606 -1.12829e-19)
(1.03475 0.860857 -9.5084e-20)
(1.19199 1.0067 -1.82944e-19)
(1.19107 1.02625 3.34382e-19)
(1.14144 1.00782 3.11562e-19)
(1.0792 0.980871 4.92628e-19)
(1.0091 0.949308 -5.09229e-19)
(0.930228 0.912304 1.96269e-22)
(0.841904 0.867819 -4.9291e-21)
(0.743249 0.812221 -5.70459e-21)
(0.648104 0.748301 1.31847e-18)
(0.572406 0.684431 0)
(0.516625 0.623576 8.9774e-19)
(0.47702 0.565846 6.13435e-19)
(0.444847 0.504168 1.46558e-18)
(0.393306 0.418226 4.339e-19)
(0.292632 0.289971 -5.14108e-19)
(0.160498 0.145294 -3.02354e-19)
(0.0523816 0.0417695 0)
(0.00153534 0.000856227 8.35015e-19)
(0.235849 0.201284 2.28788e-19)
(1.02796 0.887992 0)
(1.18154 1.03672 -1.85776e-19)
(1.17955 1.0562 2.62479e-19)
(1.12977 1.03707 -3.21222e-19)
(1.06745 1.00946 -6.58837e-19)
(0.997183 0.977286 1.06526e-18)
(0.91782 0.939831 -6.42502e-20)
(0.828468 0.895072 0)
(0.727801 0.839348 -1.44819e-18)
(0.629307 0.775159 -2.88516e-18)
(0.549276 0.710057 1.11611e-19)
(0.488852 0.646605 1.23206e-18)
(0.443984 0.584171 0)
(0.406405 0.512665 9.8322e-19)
(0.351108 0.409074 0)
(0.254384 0.261347 0)
(0.143171 0.109144 -3.26338e-19)
(0.0674936 0.0182538 0)
(0.026001 0.0105272 2.23642e-19)
(0.235904 0.208327 2.34252e-19)
(1.02135 0.913902 0)
(1.17138 1.06487 -2.84391e-19)
(1.16838 1.08428 0)
(1.11856 1.06455 1.62099e-19)
(1.0562 1.03641 0)
(0.985867 1.00375 6.49855e-20)
(0.906091 0.966023 1.21857e-19)
(0.81583 0.921224 1.063e-19)
(0.713266 0.865716 -1.60512e-18)
(0.611485 0.80182 8.92145e-20)
(0.526866 0.736196 8.84819e-19)
(0.461149 0.670698 1.19965e-18)
(0.409301 0.604185 1.58301e-19)
(0.362799 0.522227 7.65198e-19)
(0.299339 0.396987 0)
(0.201072 0.221948 1.07669e-18)
(0.103229 0.0472941 -6.31051e-19)
(0.0461739 0.0458731 7.35322e-19)
(-0.0680736 0.419529 -8.70577e-19)
(0.235926 0.21513 -1.8173e-19)
(1.01468 0.938396 -3.1526e-19)
(1.16141 1.09148 0)
(1.15745 1.11092 5.09712e-21)
(1.10763 1.09083 -4.15106e-19)
(1.0452 1.06239 1.14342e-18)
(0.974854 1.02949 4.13426e-19)
(0.894658 0.991811 0)
(0.80349 0.947356 7.42863e-19)
(0.699016 0.892617 -8.80717e-20)
(0.593782 0.829742 0)
(0.504102 0.764622 0)
(0.432193 0.697637 1.07227e-18)
(0.371646 0.627716 -4.8349e-19)
(0.311377 0.536148 -7.69947e-19)
(0.233447 0.387906 0)
(0.115662 0.204261 5.39608e-19)
(0.0105917 0.429613 -6.26953e-19)
(0.0395239 1.85092 -3.54918e-19)
(0.0701871 2.79054 -4.46607e-19)
(0.235799 0.221076 1.21178e-19)
(1.00816 0.961635 3.76517e-19)
(1.15163 1.11652 -1.52697e-19)
(1.14674 1.13597 -1.86246e-19)
(1.09702 1.11569 0)
(1.0345 1.0871 7.8368e-19)
(0.964324 1.05419 6.2869e-19)
(0.883693 1.01676 -6.31686e-20)
(0.791698 0.972953 1.09444e-19)
(0.685411 0.919435 1.55742e-18)
(0.57678 0.858231 1.48226e-18)
(0.481952 0.794856 9.99194e-19)
(0.403104 0.727062 1.07612e-18)
(0.333201 0.653234 -1.12885e-18)
(0.258149 0.557268 -1.15659e-18)
(0.156114 0.413901 0)
(0.0577903 0.816953 0)
(0.11429 2.52305 3.05667e-19)
(0.115967 3.18464 0)
(0.118816 3.38171 7.57779e-19)
(0.238169 0.22653 0)
(1.00236 0.98377 0)
(1.14185 1.13986 0)
(1.13602 1.15921 -4.58395e-20)
(1.08643 1.13889 -3.59706e-19)
(1.02388 1.11041 5.57723e-19)
(0.95417 1.07775 4.29029e-19)
(0.873148 1.04078 -6.413e-20)
(0.780416 0.997883 9.76235e-19)
(0.672477 0.94603 -1.00331e-20)
(0.560624 0.887169 2.96376e-18)
(0.460779 0.826689 -1.13334e-19)
(0.374394 0.759775 1.32297e-19)
(0.296175 0.677708 1.61695e-19)
(0.199023 0.585987 -2.29132e-22)
(0.119942 0.946756 1.79689e-21)
(0.157585 2.67045 -1.56742e-18)
(0.170715 3.28176 -6.02796e-19)
(0.156631 3.42517 3.28359e-19)
(0.14088 3.44918 -3.74168e-19)
(0.155684 0.183019 -5.95641e-20)
(0.990972 1.00766 0)
(1.13181 1.16172 2.61814e-19)
(1.12594 1.18115 4.39139e-19)
(1.07662 1.16121 -6.76941e-19)
(1.01424 1.13297 -5.77211e-19)
(0.944291 1.10027 -4.75492e-19)
(0.863123 1.06399 8.26004e-19)
(0.769836 1.02226 -8.25963e-19)
(0.660548 0.972463 0)
(0.545798 0.916601 1.4833e-18)
(0.441228 0.859809 -8.25738e-19)
(0.34683 0.798342 0)
(0.261589 0.704706 1.52845e-19)
(0.172856 0.819077 3.60369e-19)
(0.173144 2.41467 -4.3197e-19)
(0.240077 3.31741 4.91058e-19)
(0.216648 3.44251 2.76612e-19)
(0.179919 3.46551 3.1812e-19)
(0.155559 3.47641 5.3612e-19)
(0.280865 0.264428 1.2035e-19)
(0.975477 1.01679 0)
(1.11355 1.18619 -2.45985e-19)
(1.11163 1.21336 -4.16375e-19)
(1.06076 1.19398 6.45574e-19)
(0.997914 1.16624 5.47521e-19)
(0.927173 1.13494 6.23909e-19)
(0.845457 1.0998 6.3062e-20)
(0.751003 1.06015 8.43747e-19)
(0.639297 1.01408 1.44309e-18)
(0.520026 0.964373 8.82711e-20)
(0.408126 0.915188 7.53009e-19)
(0.298469 0.864542 1.27768e-19)
(0.228983 0.976661 -1.5333e-19)
(0.24757 2.26025 -3.52443e-19)
(0.315096 3.32122 3.67075e-19)
(0.300221 3.47723 -4.22742e-19)
(0.261791 3.50024 -2.47903e-19)
(0.222148 3.52849 -2.45623e-19)
(0.167144 3.52123 -2.78887e-20)
(0.268419 0.260948 0)
(0.972853 1.03884 -4.67695e-20)
(1.10566 1.2091 4.31416e-20)
(1.10192 1.23625 4.09213e-20)
(1.05088 1.21678 3.99862e-19)
(0.988112 1.18927 -5.20035e-19)
(0.917069 1.15813 -3.93174e-19)
(0.835292 1.12376 6.00716e-20)
(0.740571 1.08555 -9.11217e-19)
(0.628049 1.04222 -1.43337e-20)
(0.506885 0.99717 -2.79666e-18)
(0.391979 0.954138 1.06595e-19)
(0.285825 0.929871 -1.23406e-19)
(0.269646 1.44071 -1.46958e-19)
(0.351702 3.05864 1.79829e-20)
(0.379662 3.47298 9.31812e-22)
(0.336074 3.5376 7.30532e-19)
(0.296751 3.56217 3.9838e-19)
(0.24523 3.58644 -1.77731e-19)
(0.18198 3.58186 -1.68474e-19)
(0.251703 0.258946 -9.74941e-20)
(0.96855 1.06343 -2.96951e-19)
(1.09724 1.23405 1.21346e-19)
(1.09167 1.26056 1.56195e-19)
(1.0405 1.24089 0)
(0.977892 1.21339 -6.80198e-19)
(0.906846 1.18248 -5.5404e-19)
(0.82529 1.14885 5.69643e-20)
(0.730626 1.11213 -9.93713e-20)
(0.6178 1.07171 -1.40671e-18)
(0.495512 1.03159 -1.33816e-18)
(0.37946 0.995645 -9.14675e-19)
(0.289539 1.05071 -9.49942e-19)
(0.340285 2.09583 9.69695e-19)
(0.442173 3.36933 8.73286e-19)
(0.42732 3.5376 0)
(0.377106 3.58453 0)
(0.338666 3.62789 -1.51385e-19)
(0.280201 3.69247 0)
(0.194317 3.66428 -2.58701e-19)
(0.240431 0.26024 1.23225e-19)
(0.962263 1.08901 2.23381e-19)
(1.0874 1.26011 0)
(1.08014 1.28567 6.0148e-21)
(1.02894 1.26559 3.40143e-19)
(0.966596 1.23796 -9.52935e-19)
(0.89588 1.20728 -3.46894e-19)
(0.814757 1.17428 5.0624e-20)
(0.720399 1.13898 -7.3192e-19)
(0.607665 1.10141 7.73354e-20)
(0.485044 1.06631 0)
(0.370146 1.03987 0)
(0.316571 1.26857 -9.07816e-19)
(0.427777 2.77503 3.77913e-19)
(0.519707 3.48918 5.36412e-19)
(0.474722 3.57461 0)
(0.434163 3.63483 -2.17047e-19)
(0.39295 3.70538 1.82235e-19)
(0.345802 3.6972 6.0318e-21)
(0.224458 3.68331 -8.59537e-21)