/*--------------------------------*- C++ -*----------------------------------*\
  =========                 |
  \\      /  F ield         | OpenFOAM: The Open Source CFD Toolbox
   \\    /   O peration     | Website:  https://openfoam.org
    \\  /    A nd           | Version:  10
     \\/     M anipulation  |
\*---------------------------------------------------------------------------*/
FoamFile
{
    format      ascii;
    class       volScalarField;
    location    "57";
    object      p;
}
// * * * * * * * * * * * * * * * * * * * * * * * * * * * * * * * * * * * * * //

dimensions      [0 2 -2 0 0 0 0];

internalField   nonuniform List<scalar> 
2200
(
0.773068
0.751569
0.735661
0.719993
0.705386
0.692867
0.682513
0.674415
0.668716
0.665779
0.666264
0.670084
0.676436
0.684997
0.695685
0.708454
0.723244
0.739168
0.75521
0.776708
0.705479
0.702221
0.699299
0.695184
0.689724
0.683253
0.676642
0.670693
0.666192
0.663808
0.664296
0.667609
0.672801
0.679266
0.686252
0.693009
0.698672
0.702771
0.705623
0.708984
0.665572
0.665793
0.667847
0.669187
0.669576
0.668726
0.666745
0.664075
0.661545
0.660069
0.660646
0.663107
0.666387
0.669609
0.671944
0.672942
0.672669
0.671673
0.67003
0.669782
0.643056
0.644506
0.647107
0.649568
0.652017
0.65404
0.655197
0.655433
0.655068
0.654791
0.655449
0.656836
0.658043
0.658437
0.657763
0.656094
0.653934
0.651732
0.649116
0.647711
0.6287
0.630672
0.633495
0.636337
0.6392
0.642037
0.644506
0.646377
0.647616
0.648426
0.649168
0.649652
0.649423
0.648323
0.646465
0.644099
0.641558
0.638835
0.636037
0.634113
0.621373
0.622972
0.625175
0.627704
0.630368
0.633037
0.635634
0.638064
0.640093
0.641616
0.642498
0.642544
0.641726
0.640224
0.638334
0.636192
0.633861
0.631519
0.629423
0.627849
0.617936
0.618959
0.620227
0.62209
0.624237
0.626411
0.62861
0.630904
0.633135
0.635003
0.636045
0.636068
0.635313
0.634119
0.632741
0.631199
0.629511
0.627938
0.626823
0.625806
0.615258
0.615926
0.61656
0.617866
0.619487
0.62118
0.622944
0.624885
0.626969
0.628946
0.630225
0.630553
0.630241
0.629635
0.628864
0.627923
0.626881
0.625959
0.625512
0.624834
0.612014
0.61246
0.612857
0.613854
0.615118
0.616506
0.618011
0.61969
0.621564
0.623555
0.625096
0.625913
0.626191
0.626151
0.625877
0.625409
0.624828
0.624295
0.624109
0.623645
0.607945
0.608243
0.608601
0.609471
0.610588
0.611868
0.613312
0.614933
0.616756
0.6188
0.620692
0.622032
0.622827
0.62322
0.623317
0.623186
0.622897
0.622576
0.622449
0.622124
0.603211
0.603412
0.603784
0.604615
0.605708
0.607016
0.608547
0.610298
0.612281
0.614543
0.616857
0.618712
0.619947
0.620683
0.621029
0.621126
0.621012
0.620833
0.620728
0.620491
0.597997
0.598142
0.598514
0.599327
0.600479
0.60192
0.60364
0.605645
0.607973
0.610682
0.613504
0.615843
0.617452
0.618449
0.61902
0.619282
0.619357
0.619327
0.619253
0.619065
0.592377
0.592486
0.592867
0.593689
0.594916
0.596518
0.598491
0.600842
0.603617
0.606883
0.610345
0.613214
0.615232
0.616569
0.617396
0.617883
0.618171
0.61827
0.618237
0.61807
0.586349
0.58642
0.586801
0.587648
0.588984
0.590765
0.592998
0.595736
0.599079
0.603067
0.607272
0.610818
0.613324
0.615058
0.616259
0.617047
0.617549
0.617781
0.617792
0.617636
0.579773
0.579812
0.580232
0.58114
0.582621
0.584617
0.587158
0.590358
0.594362
0.599214
0.604343
0.608634
0.611791
0.614068
0.615713
0.61686
0.617614
0.617999
0.618055
0.6179
0.572633
0.572599
0.573017
0.574022
0.575718
0.577986
0.58089
0.584613
0.58936
0.595203
0.601446
0.606728
0.610689
0.613639
0.615825
0.617383
0.61842
0.618966
0.619072
0.618914
0.564561
0.564545
0.565008
0.566125
0.568061
0.570641
0.574004
0.578366
0.583969
0.590953
0.598521
0.605092
0.610105
0.613844
0.616642
0.61869
0.620053
0.620767
0.620928
0.620761
0.55545
0.555475
0.555908
0.557136
0.559362
0.562361
0.566336
0.571514
0.578199
0.586629
0.595848
0.60386
0.610058
0.614772
0.618317
0.620881
0.62261
0.623503
0.623718
0.623535
0.544847
0.544824
0.54537
0.546826
0.549446
0.55305
0.557857
0.564138
0.57224
0.582437
0.593574
0.603259
0.610773
0.61653
0.620865
0.624054
0.626196
0.627267
0.627532
0.627329
0.532303
0.532236
0.532911
0.534743
0.537909
0.54231
0.548226
0.555926
0.565826
0.578199
0.591659
0.60333
0.612323
0.619226
0.62445
0.628312
0.630896
0.632157
0.632463
0.632233
0.517499
0.517394
0.518168
0.520381
0.524293
0.529768
0.537127
0.546716
0.558979
0.574091
0.590195
0.60406
0.614739
0.622916
0.629133
0.633758
0.636797
0.638225
0.63856
0.6383
0.499415
0.499331
0.500333
0.503092
0.507985
0.514905
0.524224
0.536302
0.551547
0.569935
0.589154
0.605467
0.617973
0.62759
0.63495
0.640389
0.643914
0.645514
0.645857
0.645564
0.477076
0.476933
0.478238
0.481824
0.488223
0.497299
0.509365
0.524763
0.543704
0.565959
0.588705
0.607721
0.622254
0.63341
0.641943
0.64827
0.652258
0.653985
0.654311
0.653982
0.448206
0.448219
0.450311
0.455395
0.46414
0.47638
0.492258
0.511849
0.535139
0.561818
0.588581
0.610755
0.627541
0.640355
0.650169
0.657316
0.661691
0.663517
0.663795
0.663431
0.410129
0.410368
0.413879
0.421787
0.434488
0.451596
0.472689
0.497618
0.526201
0.558009
0.589231
0.61462
0.633737
0.64834
0.659447
0.667466
0.672145
0.673963
0.674158
0.673773
0.359447
0.359824
0.366772
0.379965
0.399075
0.42332
0.451436
0.483071
0.517957
0.555493
0.591233
0.619878
0.641292
0.657585
0.670003
0.678669
0.68332
0.684833
0.68486
0.684526
0.292739
0.295542
0.310574
0.33194
0.359974
0.393187
0.429494
0.468602
0.510366
0.554244
0.595166
0.627539
0.651714
0.670207
0.684027
0.69349
0.698108
0.699221
0.699169
0.69899
0.21692
0.226353
0.251432
0.282615
0.320792
0.363115
0.407658
0.454541
0.503712
0.55447
0.60126
0.637994
0.665587
0.686467
0.702214
0.712524
0.716992
0.717649
0.717608
0.717551
0.149129
0.163777
0.195137
0.235226
0.282971
0.334107
0.386712
0.441271
0.497593
0.554855
0.607006
0.648329
0.679213
0.702525
0.719791
0.73083
0.735334
0.735685
0.735809
0.735805
0.0975259
0.110649
0.147233
0.193397
0.248453
0.307066
0.366994
0.42869
0.491739
0.555471
0.613402
0.658808
0.692338
0.717724
0.736311
0.748174
0.752856
0.753924
0.754101
0.754112
0.0548167
0.0672242
0.10756
0.15763
0.218146
0.282717
0.349035
0.41726
0.486834
0.556954
0.620265
0.66901
0.70524
0.732475
0.752393
0.764849
0.770262
0.77151
0.771574
0.771654
0.01832
0.0309676
0.0739478
0.126887
0.191749
0.261177
0.333034
0.407066
0.482492
0.558036
0.625742
0.678291
0.71702
0.745903
0.767394
0.780437
0.786164
0.787577
0.787678
0.787756
-0.0135084
-0.000641084
0.044485
0.100007
0.168543
0.242044
0.318584
0.397491
0.477871
0.558456
0.631103
0.687039
0.727769
0.758234
0.780606
0.794229
0.800398
0.801973
0.802133
0.802197
-0.0418389
-0.02895
0.0178842
0.0759236
0.147619
0.224549
0.305055
0.388174
0.473114
0.558675
0.635711
0.694362
0.737328
0.768923
0.792022
0.806396
0.812777
0.81454
0.814738
0.81478
-0.0676713
-0.0547593
-0.00665262
0.0537676
0.128205
0.208127
0.292115
0.379042
0.468242
0.558292
0.639156
0.70092
0.745652
0.778409
0.80189
0.816739
0.823505
0.825403
0.82566
0.825672
-0.0917391
-0.0785466
-0.029643
0.0329702
0.109837
0.192441
0.27955
0.369938
0.462992
0.557163
0.642009
0.706799
0.753066
0.786786
0.810702
0.825924
0.832769
0.834824
0.835081
0.835068
-0.114389
-0.100938
-0.0512821
0.0132292
0.0922066
0.177258
0.267192
0.360652
0.457138
0.5552
0.644069
0.711662
0.759613
0.794523
0.818855
0.833849
0.840912
0.842932
0.843236
0.843148
-0.13573
-0.122209
-0.0718077
-0.00567659
0.0751305
0.162387
0.254816
0.350977
0.450581
0.552378
0.645254
0.715966
0.766049
0.801728
0.826347
0.84117
0.84795
0.850008
0.85022
0.850067
-0.156105
-0.142492
-0.0914008
-0.023901
0.0584468
0.147619
0.242251
0.340869
0.443403
0.548732
0.645486
0.719634
0.772055
0.808919
0.833511
0.847783
0.854359
0.856192
0.856389
0.856285
-0.175914
-0.161857
-0.110285
-0.0416301
0.0420389
0.13289
0.229486
0.330363
0.435583
0.544139
0.644842
0.722777
0.777889
0.816118
0.840654
0.854349
0.860253
0.861804
0.861957
0.861864
-0.195406
-0.180605
-0.128606
-0.0589275
0.0258824
0.118195
0.216536
0.319449
0.427081
0.538707
0.6434
0.725244
0.783642
0.823847
0.848512
0.861102
0.866066
0.866925
0.867009
0.866962
-0.214443
-0.198886
-0.146475
-0.0758471
0.00997814
0.103581
0.203451
0.308167
0.418008
0.532541
0.640978
0.72698
0.789248
0.832029
0.857462
0.868999
0.871919
0.871708
0.871599
0.871462
-0.232983
-0.216802
-0.163895
-0.0923565
-0.0056319
0.0890812
0.190267
0.296576
0.408436
0.525565
0.637371
0.727765
0.794383
0.840866
0.868116
0.878507
0.878868
0.876581
0.876218
0.877103
-0.250895
-0.234261
-0.18084
-0.10845
-0.0209255
0.0747433
0.177047
0.284752
0.398408
0.517778
0.632597
0.727431
0.798956
0.850023
0.880621
0.891257
0.888841
0.882188
0.877178
0.875975
-0.268213
-0.251206
-0.197242
-0.12407
-0.03585
0.0606156
0.163848
0.272746
0.387954
0.509238
0.626668
0.725612
0.802246
0.859286
0.894961
0.90815
0.906256
0.89494
0.894396
0.898552
-0.284885
-0.267524
-0.21305
-0.13919
-0.0503673
0.0467624
0.150753
0.260636
0.377137
0.500043
0.619647
0.722096
0.804018
0.867485
0.910142
0.929094
0.92949
0.900346
0.861091
0.826559
-0.300899
-0.283257
-0.22829
-0.153857
-0.0645565
0.0330735
0.137621
0.248241
0.365731
0.489947
0.611276
0.71652
0.803054
0.873695
0.925448
0.953356
0.968693
0.946602
0.963736
1.02376
-0.316176
-0.29841
-0.243057
-0.168225
-0.0786033
0.019334
0.124195
0.235233
0.353304
0.478385
0.600978
0.708115
0.798359
0.874864
0.932628
0.965318
0.972435
0.948129
0.905652
0.921461
-0.330719
-0.312998
-0.257306
-0.182223
-0.0924159
0.00564392
0.110591
0.221747
0.339999
0.465462
0.588715
0.696642
0.78785
0.866453
0.925241
0.957936
0.942387
0.886537
0.8217
0.809131
-0.34449
-0.326972
-0.271036
-0.195867
-0.106008
-0.00799827
0.0968261
0.207819
0.325865
0.451152
0.57429
0.681687
0.771275
0.845597
0.89902
0.904943
0.868159
0.789653
0.714336
0.690864
-0.357547
-0.340363
-0.284259
-0.209162
-0.11939
-0.0216086
0.0828946
0.193466
0.310946
0.435495
0.557648
0.663112
0.747273
0.81013
0.83877
0.824544
0.764398
0.661758
0.57374
0.550828
-0.370322
-0.353528
-0.297361
-0.222488
-0.13293
-0.035502
0.0685329
0.178475
0.29506
0.418297
0.538532
0.640269
0.717028
0.763992
0.758638
0.722896
0.610231
0.486887
0.378853
0.351063
-0.383705
-0.367312
-0.311036
-0.236441
-0.147174
-0.0501529
0.0533331
0.1625
0.277932
0.399372
0.516733
0.612856
0.682333
0.704644
0.671173
0.582264
0.425476
0.272172
0.142266
0.114132
-0.398201
-0.382029
-0.325598
-0.251285
-0.162324
-0.0656926
0.0372126
0.145499
0.259551
0.378707
0.492152
0.581693
0.640609
0.634413
0.582221
0.431776
0.231792
0.0190398
-0.161218
-0.210107
-0.413958
-0.397886
-0.341111
-0.267002
-0.178326
-0.0820865
0.0201937
0.127491
0.239962
0.356399
0.464814
0.548235
0.592221
0.554341
0.467256
0.279392
0.0485517
-0.239773
-0.56048
-0.708886
-0.431019
-0.414856
-0.357697
-0.283739
-0.195282
-0.0994083
0.00221044
0.108423
0.219134
0.332478
0.435055
0.51201
0.538147
0.46991
0.333658
0.128736
-0.104505
-0.447424
-1.03277
-1.60396
-0.449513
-0.43318
-0.375428
-0.301492
-0.213167
-0.117647
-0.016712
0.0883665
0.197231
0.307347
0.404021
0.47297
0.480312
0.395705
0.204825
-0.0278188
-0.229631
-0.463084
-1.01611
-2.52559
-0.469411
-0.452755
-0.394416
-0.320475
-0.232208
-0.137019
-0.0368093
0.0670543
0.173931
0.280649
0.371368
0.430678
0.417584
0.337667
0.11202
-0.125063
-0.272022
-0.308422
-0.29697
-0.683421
-0.490704
-0.473954
-0.414827
-0.340888
-0.252734
-0.15801
-0.0587117
0.0437053
0.148287
0.251035
0.336155
0.38503
0.356136
0.288186
0.0623841
-0.1387
-0.248694
-0.256071
-0.202622
-0.24261
-0.513191
-0.496354
-0.436676
-0.36292
-0.274931
-0.180773
-0.0825712
0.0181605
0.120085
0.218353
0.298513
0.337529
0.302102
0.234856
0.0306656
-0.128857
-0.210348
-0.218107
-0.26609
-0.270029
-0.537012
-0.520189
-0.459862
-0.386421
-0.298673
-0.205304
-0.108446
-0.00967054
0.0892884
0.18293
0.258173
0.287771
0.255324
0.174323
0.00275951
-0.11882
-0.188509
-0.165722
-0.186045
-0.187632
-0.561696
-0.544683
-0.484301
-0.411469
-0.323965
-0.231567
-0.136252
-0.039646
0.0560516
0.145149
0.215748
0.234665
0.214505
0.106703
-0.0319741
-0.113832
-0.15202
-0.200169
-0.174656
-0.183189
-0.587148
-0.569767
-0.509796
-0.437689
-0.35041
-0.259358
-0.165827
-0.0716057
0.0204733
0.105252
0.171861
0.180494
0.172085
0.0464652
-0.0688064
-0.132383
-0.108671
-0.16869
-0.149608
-0.154503
-0.612255
-0.594743
-0.53621
-0.464943
-0.377872
-0.288507
-0.196874
-0.105165
-0.0171865
0.0637664
0.127801
0.128728
0.120086
-0.00528639
-0.0954995
-0.146249
-0.135011
-0.149572
-0.155116
-0.153255
-0.636818
-0.619423
-0.56283
-0.492299
-0.405768
-0.318578
-0.229005
-0.139991
-0.0564323
0.0209231
0.0837673
0.0809939
0.0628219
-0.0474016
-0.109065
-0.139929
-0.17894
-0.15057
-0.156193
-0.150666
-0.659656
-0.642975
-0.588419
-0.519087
-0.433998
-0.349135
-0.261696
-0.175474
-0.0963467
-0.0229063
0.0394342
0.0374799
0.0069946
-0.0834745
-0.12343
-0.114086
-0.18682
-0.130819
-0.145822
-0.138126
-0.680266
-0.664708
-0.612141
-0.544008
-0.461861
-0.379279
-0.294265
-0.211071
-0.136026
-0.0672889
-0.00545268
-0.0033303
-0.0392834
-0.102695
-0.13168
-0.0921089
-0.135724
-0.117787
-0.124383
-0.121344
-0.696877
-0.68298
-0.633017
-0.566932
-0.488581
-0.408142
-0.325907
-0.245958
-0.174533
-0.111378
-0.0510217
-0.041909
-0.0720042
-0.105665
-0.124364
-0.100449
-0.114208
-0.116613
-0.117835
-0.118168
-0.70882
-0.697069
-0.650359
-0.586717
-0.512185
-0.434689
-0.355685
-0.279257
-0.211068
-0.153908
-0.0956972
-0.0782444
-0.0983027
-0.101607
-0.114699
-0.127876
-0.120114
-0.12556
-0.121424
-0.122426
-0.714514
-0.705201
-0.662676
-0.602467
-0.531843
-0.457843
-0.382481
-0.309786
-0.244709
-0.193082
-0.136903
-0.115125
-0.128904
-0.104556
-0.0995742
-0.134397
-0.11457
-0.131674
-0.124351
-0.127809
-0.714106
-0.706935
-0.668755
-0.612346
-0.545931
-0.476207
-0.405078
-0.33631
-0.274509
-0.227138
-0.173254
-0.152327
-0.165978
-0.127871
-0.0678489
-0.0973421
-0.0828898
-0.107665
-0.113988
-0.119625
-0.706462
-0.699109
-0.666086
-0.615224
-0.553878
-0.488767
-0.422074
-0.357205
-0.298638
-0.25394
-0.203733
-0.189016
-0.203605
-0.20353
-0.155042
-0.188405
-0.202945
-0.208078
-0.207812
-0.206312
-0.686424
-0.678053
-0.653094
-0.609529
-0.55427
-0.494523
-0.432706
-0.371194
-0.31473
-0.271165
-0.22431
-0.213331
-0.26222
-0.387191
-0.600113
-0.709931
-0.738487
-0.705893
-0.648695
-0.606637
-0.644647
-0.636698
-0.627338
-0.595591
-0.547797
-0.493342
-0.436099
-0.376963
-0.320428
-0.275237
-0.229944
-0.20372
-0.300706
-0.486578
-0.73447
-0.845107
-0.846651
-0.78177
-0.728418
-0.690835
-0.603054
-0.600101
-0.599305
-0.574351
-0.535312
-0.487297
-0.433382
-0.374758
-0.314546
-0.262315
-0.211279
-0.142967
-0.114041
-0.0966174
-0.117976
-0.068902
0.0196884
0.0868011
0.154178
0.206142
-0.580497
-0.581974
-0.572551
-0.556266
-0.523901
-0.478577
-0.425158
-0.365582
-0.298651
-0.229879
-0.161627
-0.0283775
0.13867
0.418577
0.697807
0.931921
1.1004
1.19701
1.23866
1.26167
-0.549181
-0.54924
-0.54548
-0.54178
-0.514602
-0.471756
-0.416933
-0.353861
-0.2793
-0.19237
-0.0999104
0.0476082
0.275442
0.618247
0.960402
1.2426
1.43804
1.55317
1.60747
1.62797
-0.532044
-0.53042
-0.532967
-0.527011
-0.50555
-0.464976
-0.409109
-0.342229
-0.262592
-0.164151
-0.057538
0.0722229
0.317275
0.632617
0.946555
1.21531
1.41605
1.53781
1.59247
1.6083
-0.517992
-0.516766
-0.520676
-0.513172
-0.500015
-0.460547
-0.403441
-0.33343
-0.2509
-0.148413
-0.0391358
0.0592617
0.276449
0.549427
0.812744
1.03992
1.22024
1.32897
1.37696
1.38998
-0.497602
-0.49678
-0.49749
-0.492023
-0.491607
-0.457725
-0.401923
-0.329982
-0.24656
-0.147288
-0.0427853
0.029977
0.20321
0.433612
0.646756
0.826583
0.971765
1.05978
1.098
1.10768
-0.489168
-0.487653
-0.482714
-0.47994
-0.481289
-0.454451
-0.40112
-0.329318
-0.247818
-0.156852
-0.058222
-0.000266629
0.127592
0.316494
0.486033
0.623362
0.732999
0.801246
0.830787
0.838412
-0.503918
-0.501808
-0.497952
-0.503187
-0.497237
-0.464741
-0.404282
-0.329361
-0.249504
-0.168816
-0.076499
-0.0252795
0.0628311
0.213739
0.34696
0.450154
0.530628
0.582158
0.603634
0.607752
-0.531559
-0.532202
-0.534743
-0.545066
-0.534022
-0.486518
-0.408983
-0.327734
-0.248272
-0.177217
-0.0920361
-0.0443375
0.0140194
0.132417
0.23453
0.31038
0.36891
0.406586
0.421335
0.426402
-0.539266
-0.542662
-0.551873
-0.561712
-0.54619
-0.486193
-0.400274
-0.318242
-0.240417
-0.178073
-0.102127
-0.0576393
-0.0202573
0.0727848
0.148583
0.202444
0.245788
0.275546
0.285875
0.288744
-0.471917
-0.476269
-0.490311
-0.497682
-0.485254
-0.433582
-0.363356
-0.292402
-0.222556
-0.168947
-0.105967
-0.0659345
-0.0416972
0.0307993
0.0856606
0.123611
0.156227
0.176658
0.185768
0.188378
-0.331789
-0.337704
-0.344358
-0.349099
-0.34363
-0.319566
-0.282878
-0.240594
-0.191005
-0.149058
-0.102646
-0.0696886
-0.0515138
0.00331587
0.0418257
0.0691019
0.0907576
0.103026
0.10844
0.109698
-0.184058
-0.186554
-0.19063
-0.196136
-0.19708
-0.193518
-0.185439
-0.171016
-0.146174
-0.121103
-0.0920557
-0.06795
-0.0514676
-0.0135024
0.0126709
0.0306479
0.0430538
0.0491944
0.0508818
0.0504915
-0.0667498
-0.0680504
-0.0709505
-0.0774293
-0.0857582
-0.0948665
-0.102392
-0.104943
-0.0991247
-0.0903271
-0.0756493
-0.0606233
-0.0472222
-0.0230758
-0.00702227
0.00302403
0.00880543
0.010259
0.00955276
0.00843673
0.00723199
0.00630645
0.00419884
-0.0026912
-0.0159043
-0.031622
-0.0453198
-0.0554633
-0.0599963
-0.0621986
-0.0569657
-0.0493844
-0.0412151
-0.0279534
-0.0200527
-0.0160916
-0.0145005
-0.0155712
-0.017576
-0.019006
0.0439214
0.0433073
0.0415196
0.0350847
0.0220471
0.00515182
-0.0107681
-0.0242531
-0.0332638
-0.0403846
-0.0399809
-0.0368703
-0.0347075
-0.0295236
-0.0274276
-0.0273115
-0.0284584
-0.0308666
-0.0330851
-0.0345248
0.0578925
0.0573779
0.0558493
0.0503872
0.0392947
0.0241163
0.00866931
-0.00563498
-0.0164019
-0.0251891
-0.02671
-0.0268982
-0.029326
-0.0288408
-0.0300892
-0.0321829
-0.0347134
-0.0376022
-0.0396527
-0.0410081
0.0592354
0.0588504
0.0576461
0.0533921
0.0446699
0.0323557
0.0189395
0.00538649
-0.00551702
-0.0150385
-0.0175939
-0.0198875
-0.024425
-0.0262267
-0.0291209
-0.0324545
-0.035687
-0.0385563
-0.0403497
-0.0415304
0.0544416
0.0541694
0.0532508
0.0500775
0.0435463
0.0341411
0.0233591
0.0116065
0.00179417
-0.00792342
-0.0115623
-0.0146583
-0.0195632
-0.0222285
-0.0258886
-0.0297128
-0.0330639
-0.0357174
-0.0371887
-0.0381822
0.0473341
0.0471596
0.0465016
0.0442468
0.03954
0.0325663
0.0242295
0.0146378
0.00657311
-0.00275013
-0.0071283
-0.010492
-0.0148667
-0.017628
-0.0216005
-0.0253962
-0.0284265
-0.0306772
-0.0318079
-0.0326401
0.0396396
0.0395422
0.03907
0.0375034
0.0342219
0.0292619
0.023075
0.0155949
0.00933033
0.000902846
-0.00343291
-0.00674434
-0.0106139
-0.0129581
-0.0167264
-0.0202083
-0.0229116
-0.0248298
-0.0256295
-0.0262912
0.0322109
0.0321538
0.0318209
0.0307244
0.028407
0.0248725
0.0203544
0.0146935
0.0101684
0.0032182
-0.000352559
-0.00323047
-0.00670036
-0.00889639
-0.0122586
-0.015144
-0.0173342
-0.0188535
-0.0193924
-0.019928
0.0255619
0.0255253
0.0253065
0.0245759
0.0229964
0.0204419
0.0170501
0.0126458
0.00951171
0.0041184
0.00162477
-0.000529938
-0.0034184
-0.00546655
-0.00829837
-0.010441
-0.0120041
-0.0130496
-0.013352
-0.0138236
0.019608
0.0195917
0.0194628
0.0189769
0.01793
0.0162085
0.0138235
0.0104548
0.00830518
0.00416425
0.0025148
0.000809771
-0.00141895
-0.00288628
-0.0049484
-0.00643689
-0.00750318
-0.00815465
-0.00835566
-0.00880024
0.0142164
0.0141915
0.0141087
0.0138254
0.0131791
0.0120844
0.0106196
0.00825277
0.00694666
0.00370615
0.00258393
0.00135004
-0.000251621
-0.00123838
-0.00268603
-0.00368933
-0.00433669
-0.00473193
-0.00483728
-0.00522428
0.00949235
0.00946641
0.0094091
0.00927739
0.00896247
0.00838261
0.00759382
0.00597376
0.00537822
0.00289579
0.00231692
0.00152565
0.000456579
-0.000364903
-0.00151879
-0.00210775
-0.00237304
-0.00248312
-0.0025124
-0.00290405
0.00542208
0.00538886
0.00537069
0.00532726
0.00519822
0.00489607
0.00456718
0.00345017
0.00342087
0.0017623
0.00185119
0.00162794
0.000773285
0.00022689
-0.000857419
-0.00132126
-0.00146018
-0.00152963
-0.00142792
-0.00172438
0.00193646
0.00193462
0.00195797
0.00196693
0.00192519
0.0017034
0.00164066
0.000965159
0.00131869
0.000499211
0.0010139
0.00147655
0.000785991
0.000642639
-0.000556849
-0.00131976
-0.00214218
-0.0028441
-0.00266563
-0.00270928
-1.07374
-0.235692
0.0342758
0.309899
0.490669
0.645697
0.770568
0.897947
1.03857
1.12185
-0.0952071
0.310666
0.326449
0.514226
0.637214
0.747578
0.842433
0.927049
0.954242
0.912424
0.280229
0.493436
0.52785
0.663921
0.749135
0.828362
0.893738
0.942835
0.944792
0.959003
0.508688
0.650988
0.685821
0.786992
0.843711
0.900912
0.945503
0.977726
0.986718
1.01044
0.685852
0.786745
0.816471
0.883599
0.927996
0.968707
1.0007
1.02491
1.03464
1.06625
0.828602
0.89712
0.927379
0.970028
1.006
1.03599
1.06019
1.08091
1.09499
1.12331
0.947426
0.997829
1.02333
1.05119
1.07875
1.10246
1.12237
1.14161
1.15647
1.183
1.05099
1.08791
1.10894
1.12953
1.15026
1.16962
1.187
1.20511
1.21998
1.24365
1.14485
1.17392
1.19023
1.20546
1.22154
1.23759
1.25314
1.27004
1.28366
1.30598
1.23304
1.25349
1.26832
1.28147
1.29504
1.3088
1.3223
1.33689
1.34844
1.36808
1.31845
1.33423
1.34805
1.35986
1.37177
1.38341
1.39454
1.40623
1.4139
1.4307
1.40367
1.41621
1.42992
1.44167
1.45231
1.46211
1.47093
1.47919
1.48276
1.494
1.49242
1.50324
1.51671
1.52624
1.53381
1.5411
1.54829
1.55478
1.55587
1.56323
1.59083
1.59544
1.60363
1.60838
1.61177
1.61625
1.62225
1.62992
1.63381
1.64369
1.70413
1.69103
1.68374
1.67802
1.67529
1.67663
1.68297
1.69534
1.71016
1.73983
1.82612
1.77008
1.73906
1.72186
1.71364
1.71358
1.72241
1.74202
1.77384
1.84309
)
;

boundaryField
{
    wall-4
    {
        type            zeroGradient;
    }
    pressure-outlet-7
    {
        type            fixedValue;
        value           uniform 0;
    }
    velocity-inlet-6
    {
        type            zeroGradient;
    }
    velocity-inlet-5
    {
        type            zeroGradient;
    }
    frontAndBackPlanes
    {
        type            empty;
    }
}


// ************************************************************************* //
