/*--------------------------------*- C++ -*----------------------------------*\
  =========                 |
  \\      /  F ield         | OpenFOAM: The Open Source CFD Toolbox
   \\    /   O peration     | Website:  https://openfoam.org
    \\  /    A nd           | Version:  10
     \\/     M anipulation  |
\*---------------------------------------------------------------------------*/
FoamFile
{
    format      ascii;
    class       surfaceScalarField;
    location    "57";
    object      phi;
}
// * * * * * * * * * * * * * * * * * * * * * * * * * * * * * * * * * * * * * //

dimensions      [0 3 -1 0 0 0 0];

internalField   nonuniform List<scalar> 
4262
(
0.107137
0.470851
0.0955631
0.70516
0.0693794
0.858487
0.0473844
1.02076
0.0310172
1.21488
0.0198001
1.44944
0.0123812
1.73328
0.00715379
2.07626
0.00318872
2.48921
-0.000507297
2.98599
-0.00410316
2.98589
-0.0078739
2.48901
-0.0128944
2.07606
-0.0200892
1.73306
-0.031067
1.4492
-0.047149
1.2146
-0.0689106
1.02053
-0.0951886
0.858581
-0.107063
0.705461
0.470925
0.112883
0.357969
0.135319
0.682723
0.120439
0.873366
0.0978869
1.04331
0.0746436
1.23813
0.0529123
1.47117
0.0345097
1.75169
0.0203187
2.09045
0.00908661
2.50044
-0.00101286
2.99609
-0.011249
2.99612
-0.022468
2.50023
-0.0365089
2.0901
-0.0547682
1.75132
-0.0765789
1.47101
-0.100309
1.23833
-0.123479
1.0437
-0.137004
0.872106
-0.113559
0.682015
0.357366
0.0920286
0.26594
0.124937
0.649814
0.121046
0.877258
0.104774
1.05958
0.0861112
1.25679
0.0669943
1.49028
0.0480477
1.77063
0.029981
2.10852
0.0133678
2.51705
-0.00262303
3.01208
-0.0181888
3.01169
-0.0341764
2.51622
-0.0517394
2.10766
-0.0701605
1.76974
-0.0884845
1.48933
-0.105699
1.25554
-0.119806
1.0578
-0.125202
0.877503
-0.0923317
0.649145
0.265034
0.0640419
0.201899
0.104932
0.608924
0.106745
0.875445
0.0953745
1.07095
0.0814381
1.27073
0.0666797
1.50504
0.0505276
1.78678
0.0333563
2.12569
0.0157422
2.53467
-0.00289837
3.03072
-0.0215247
3.03032
-0.0389382
2.53363
-0.0553838
2.12411
-0.0706607
1.78502
-0.0845092
1.50318
-0.0982277
1.26926
-0.109993
1.06957
-0.107033
0.874543
-0.0649046
0.607017
0.200129
0.0374789
0.16442
0.0806944
0.565708
0.090969
0.865171
0.0837611
1.07816
0.0711781
1.28331
0.0593695
1.51685
0.0464157
1.79974
0.031474
2.14063
0.0144125
2.55173
-0.00486968
3.05
-0.0235236
3.04897
-0.0394371
2.54955
-0.053405
2.13807
-0.0655038
1.79711
-0.0767166
1.51439
-0.0886077
1.28115
-0.0949899
1.07595
-0.0831558
0.862708
-0.0383761
0.562237
0.161753
0.0194513
0.144968
0.0572024
0.527957
0.0726131
0.84976
0.0705131
1.08026
0.0617103
1.29211
0.0508312
1.52773
0.0396671
1.8109
0.0270644
2.15324
0.0120855
2.56671
-0.00536243
3.06745
-0.0226921
3.0663
-0.0370314
2.56389
-0.0485294
2.14957
-0.0586193
1.8072
-0.0685822
1.52436
-0.0762937
1.28886
-0.0771423
1.0768
-0.0599969
0.845563
-0.0203756
0.522616
0.141378
0.0106444
0.134324
0.0424098
0.496192
0.0585615
0.833608
0.0588602
1.07996
0.0527107
1.29826
0.043299
1.53714
0.0328944
1.82131
0.0215579
2.16457
0.00828425
2.57998
-0.00779432
3.08353
-0.0231346
3.08164
-0.0349695
2.57572
-0.0448005
2.1594
-0.0536055
1.81601
-0.0614925
1.53224
-0.0660686
1.29344
-0.064181
1.07491
-0.0458555
0.827238
-0.0116889
0.488449
0.129689
0.00658832
0.127736
0.032998
0.469782
0.0492925
0.817314
0.0508073
1.07845
0.0457312
1.30334
0.0374038
1.54547
0.027756
1.83095
0.0168133
2.17552
0.00474081
2.59205
-0.0089299
3.0972
-0.0223009
3.09501
-0.0332329
2.58665
-0.0425492
2.16872
-0.0503619
1.82382
-0.0569402
1.53882
-0.0601273
1.29663
-0.0563999
1.07118
-0.0372335
0.808071
-0.00787396
0.459089
0.121815
0.00472001
0.123016
0.0265921
0.44791
0.0424316
0.801474
0.0445943
1.07628
0.0400175
1.30791
0.0324132
1.55307
0.0233175
1.84005
0.0128226
2.18601
0.00112884
2.60375
-0.0121208
3.11045
-0.024198
3.10709
-0.03389
2.59635
-0.0420985
2.17693
-0.048878
1.8306
-0.054197
1.54414
-0.0564479
1.29888
-0.0514991
1.06624
-0.0319171
0.788489
-0.00634696
0.433519
0.115468
0.00378438
0.119231
0.0218061
0.429889
0.03701
0.78627
0.0397647
1.07353
0.0353866
1.31229
0.0280294
1.56043
0.019249
1.84883
0.00912542
2.19613
-0.00218466
2.61506
-0.0141893
3.12245
-0.0255912
3.11849
-0.0350701
2.60582
-0.0425138
2.18437
-0.0484846
1.83657
-0.053204
1.54886
-0.054467
1.30014
-0.0480872
1.05986
-0.0281862
0.768588
-0.00572916
0.411062
0.109739
0.00306555
0.116166
0.0175982
0.415356
0.0315757
0.772293
0.0345697
1.07054
0.030459
1.3164
0.0233532
1.56754
0.0148918
1.85729
0.00508004
2.20595
-0.00617617
2.62631
-0.0184727
3.13475
-0.0294145
3.12943
-0.0374928
2.6139
-0.0439807
2.19086
-0.0492145
1.84181
-0.0530174
1.55266
-0.0532133
1.30034
-0.0455246
1.05217
-0.0254981
0.748562
-0.00549069
0.391055
0.104248
0.00240334
0.113762
0.0139424
0.403817
0.0266507
0.759585
0.0298552
1.06733
0.0258547
1.3204
0.0187526
1.57464
0.0102741
1.86577
0.00066457
2.21556
-0.0100036
2.63698
-0.0217192
3.14647
-0.0321109
3.13982
-0.0401276
2.62192
-0.0459794
2.19671
-0.0503629
1.84619
-0.0532074
1.55551
-0.0526014
1.29973
-0.0435104
1.04308
-0.0234498
0.728501
-0.00531305
0.372918
0.0989349
0.00170415
0.112058
0.0105635
0.394958
0.0214067
0.748741
0.0240921
1.06465
0.020131
1.32436
0.0132197
1.58155
0.00471947
1.87427
-0.00507268
2.22535
-0.0161417
2.64805
-0.0279338
3.15826
-0.0379415
3.14983
-0.0444715
2.62845
-0.0491016
2.20134
-0.0527479
1.84984
-0.0544793
1.55724
-0.0530247
1.29828
-0.0425585
1.03261
-0.0222145
0.708157
-0.00524595
0.35595
0.093689
0.000872316
0.111186
0.00720367
0.388626
0.0164603
0.739485
0.0188368
1.06227
0.0145288
1.32867
0.00720965
1.58887
-0.00143732
1.88292
-0.0111129
2.23502
-0.0216617
2.6586
-0.032934
3.16953
-0.0422761
3.15917
-0.0486561
2.63483
-0.0527621
2.20545
-0.0554161
1.85249
-0.0561809
1.558
-0.0536453
1.29574
-0.0419677
1.02093
-0.021385
0.687574
-0.00520401
0.339769
0.0884849
0.000192933
0.110993
0.00436397
0.384455
0.01124
0.732609
0.0123498
1.06116
0.00766026
1.33336
0.000189983
1.59634
-0.00901028
1.89212
-0.0194194
2.24543
-0.0306628
2.66984
-0.0418469
3.18071
-0.0503169
3.16764
-0.0549953
2.63951
-0.0577544
2.20821
-0.0597286
1.85446
-0.0596227
1.5579
-0.0554941
1.29161
-0.0422536
1.00769
-0.0210748
0.666396
-0.00522177
0.323916
0.0832632
-0.000803693
0.111797
0.000596331
0.383055
0.00545844
0.727747
0.00586378
1.06075
0.000373341
1.33885
-0.00819673
1.60491
-0.018002
1.90192
-0.0284029
2.25583
-0.0390343
2.68048
-0.0494474
3.19113
-0.0572055
3.1754
-0.0615841
2.64389
-0.063769
2.21039
-0.0647536
1.85545
-0.0637568
1.5569
-0.0582231
1.28608
-0.0432894
0.992758
-0.0212857
0.644392
-0.00536952
0.307999
0.0778937
-0.00163363
0.11343
-0.00243687
0.383858
-0.000410165
0.72572
-0.00210753
1.06245
-0.00858533
1.34533
-0.0176906
1.61402
-0.0282594
1.91249
-0.0397893
2.26736
-0.0516176
2.6923
-0.062228
3.20174
-0.0687221
3.1819
-0.0717318
2.6469
-0.0727327
2.21139
-0.0723378
1.85505
-0.0697858
1.55435
-0.0623333
1.27863
-0.0452415
0.975666
-0.0220204
0.621171
-0.00562725
0.291606
0.0722664
-0.00298127
0.116412
-0.00612223
0.386999
-0.00764392
0.727242
-0.0106331
1.06544
-0.0180304
1.35273
-0.0283738
1.62436
-0.0399666
1.92408
-0.0520178
2.27941
-0.0637904
2.70408
-0.0738815
3.21183
-0.0800846
3.1881
-0.0822582
2.64907
-0.0816919
2.21083
-0.0805451
1.85391
-0.0770528
1.55086
-0.0676091
1.26918
-0.0480931
0.95615
-0.0232702
0.596348
-0.00600113
0.274337
0.0662653
-0.00426827
0.12068
-0.0103512
0.393082
-0.015249
0.732139
-0.0211998
1.07139
-0.0299707
1.3615
-0.0415066
1.6359
-0.0543734
1.93695
-0.0681002
2.29314
-0.0814754
2.71745
-0.0923509
3.2227
-0.0971194
3.19287
-0.097402
2.64935
-0.0960465
2.20947
-0.0925821
1.85044
-0.0864855
1.54476
-0.0743915
1.25709
-0.0519992
0.933758
-0.0250112
0.56936
-0.00647074
0.255797
0.0597945
-0.00573884
0.126419
-0.0154073
0.402751
-0.0242967
0.741029
-0.033107
1.0802
-0.0436952
1.37209
-0.0568075
1.64901
-0.0711813
1.95132
-0.0859694
2.30793
-0.0996883
2.73117
-0.109671
3.23269
-0.113728
3.19692
-0.113213
2.64884
-0.109656
2.20591
-0.105105
1.84589
-0.0978629
1.53752
-0.0827313
1.24196
-0.056791
0.907817
-0.0271462
0.539715
-0.0069971
0.235648
0.0527974
-0.00804618
0.134465
-0.0222286
0.416933
-0.0364734
0.755274
-0.0487898
1.09252
-0.0615692
1.38487
-0.0769831
1.66442
-0.093617
1.96796
-0.110501
2.32481
-0.12539
2.74606
-0.135387
3.24268
-0.13726
3.1988
-0.134247
2.64582
-0.12947
2.20114
-0.122242
1.83866
-0.111484
1.52676
-0.0927868
1.22326
-0.0626783
0.877709
-0.0296736
0.50671
-0.007573
0.213547
0.0452244
-0.010477
0.144942
-0.0294662
0.435922
-0.0498113
0.775619
-0.0670287
1.10974
-0.0830697
1.40091
-0.101129
1.68248
-0.119973
1.9868
-0.137858
2.3427
-0.152466
2.76067
-0.161289
3.25151
-0.161938
3.19945
-0.156926
2.64081
-0.148958
2.19317
-0.139952
1.82966
-0.127274
1.51408
-0.104134
1.20012
-0.0690215
0.842596
-0.0322461
0.469935
-0.00808278
0.189384
0.0371417
-0.0151288
0.160071
-0.0414736
0.462267
-0.0685681
0.802713
-0.0908047
1.13197
-0.110796
1.4209
-0.132883
1.70457
-0.154711
2.00863
-0.174827
2.36281
-0.190275
2.77612
-0.197062
3.25829
-0.193203
3.19559
-0.184651
2.63226
-0.175044
2.18356
-0.163218
1.81783
-0.145809
1.49667
-0.117654
1.17197
-0.0766041
0.801546
-0.0350272
0.428358
-0.00854925
0.162906
0.0285924
-0.0193118
0.179382
-0.0547032
0.497659
-0.091776
0.839786
-0.121802
1.162
-0.147558
1.44666
-0.17379
1.7308
-0.19789
2.03273
-0.217456
2.38238
-0.22983
2.78849
-0.2332
3.26166
-0.227488
3.18987
-0.216225
2.621
-0.201941
2.16928
-0.186902
1.80279
-0.166497
1.47627
-0.131626
1.13709
-0.0834173
0.753337
-0.0372239
0.382165
-0.00868712
0.134369
0.0199053
-0.032506
0.211888
-0.0816753
0.546828
-0.129311
0.887422
-0.165716
1.1984
-0.196618
1.47756
-0.226683
1.76087
-0.251496
2.05754
-0.270782
2.40167
-0.282342
2.80005
-0.282079
3.2614
-0.268803
3.1766
-0.251657
2.60385
-0.23586
2.15348
-0.217058
1.78399
-0.189306
1.44852
-0.147095
1.09488
-0.0913097
0.697552
-0.0393862
0.330241
-0.008628
0.103611
0.0112773
-0.046886
0.258774
-0.120317
0.620259
-0.183464
0.950569
-0.228464
1.2434
-0.265414
1.51451
-0.296195
1.79165
-0.318937
2.08029
-0.333878
2.41661
-0.338044
2.80422
-0.328814
3.25217
-0.311465
3.15925
-0.292328
2.58471
-0.270314
2.13147
-0.246565
1.76024
-0.21382
1.41577
-0.161662
1.04273
-0.0955959
0.631486
-0.0392218
0.273867
-0.00845187
0.0728408
0.00282543
-0.0338859
0.29266
-0.097293
0.683666
-0.155867
1.00914
-0.203122
1.29066
-0.245787
1.55717
-0.284016
1.82988
-0.319644
2.11591
-0.351539
2.4485
-0.376224
2.8289
-0.39086
3.26681
-0.387273
3.15566
-0.370127
2.56757
-0.350426
2.11177
-0.320468
1.73028
-0.269405
1.36471
-0.193768
0.967089
-0.106979
0.544697
-0.0415193
0.208408
-0.00939711
0.0407186
-0.00657168
-0.01278
0.30544
-0.0477467
0.718632
-0.0893148
1.05071
-0.128595
1.32994
-0.167559
1.59614
-0.202031
1.86435
-0.233959
2.14784
-0.261332
2.47587
-0.280123
2.84769
-0.282578
3.26926
-0.267799
3.14088
-0.24866
2.54843
-0.222759
2.08586
-0.19057
1.69809
-0.14958
1.32372
-0.0963338
0.913843
-0.0442891
0.492652
-0.0156072
0.179726
-0.00375656
0.0288679
-0.0103282
0.000109629
0.305331
-0.0248132
0.743555
-0.0544129
1.08031
-0.0844319
1.35996
-0.115799
1.6275
-0.146252
1.8948
-0.174434
2.17602
-0.197658
2.4991
-0.211783
2.86182
-0.211699
3.26918
-0.19867
3.12785
-0.17566
2.52542
-0.146775
2.05698
-0.114932
1.66625
-0.0758042
1.28459
-0.0354466
0.873485
-0.00877461
0.46598
-0.00117014
0.172121
-0.000553558
0.0282513
-0.0108818
0.000630231
0.3047
-0.012831
0.757016
-0.0342555
1.10174
-0.0588504
1.38455
-0.0847338
1.65339
-0.110401
1.92047
-0.134065
2.19969
-0.153034
2.51807
-0.163522
2.8723
-0.16108
3.26674
-0.143957
3.11073
-0.118264
2.49973
-0.0898831
2.0286
-0.0559719
1.63234
-0.0251207
1.25374
-0.00167717
0.850041
0.00883065
0.455473
0.00626224
0.17469
0.00156805
0.0329455
-0.00931375
0.00410961
0.300591
-0.00516304
0.766289
-0.0231507
1.11972
-0.0438017
1.4052
-0.065424
1.67501
-0.0869565
1.942
-0.107146
2.21988
-0.123353
2.53427
-0.131988
2.88094
-0.128352
3.2631
-0.109456
3.09184
-0.0832946
2.47357
-0.0535684
1.99887
-0.0269192
1.60569
0.000949329
1.22587
0.0198642
0.831127
0.0212712
0.454066
0.012005
0.183956
0.00326005
0.0416905
-0.0060537
0.0051461
0.295445
-0.000958274
0.772393
-0.0168207
1.13559
-0.0350465
1.42343
-0.0541331
1.6941
-0.073052
1.96092
-0.0908249
2.23765
-0.105294
2.54874
-0.112592
2.88824
-0.107752
3.25826
-0.0892468
3.07333
-0.0643059
2.44863
-0.0373243
1.97189
-0.00781604
1.57618
0.0134796
1.20457
0.024996
0.81961
0.0241831
0.454878
0.0136101
0.194529
0.00386644
0.0514342
-0.00218726
0.00418166
0.291263
-6.07336e-05
0.776636
-0.0133846
1.14891
-0.0299828
1.44003
-0.0472164
1.71133
-0.0644603
1.97816
-0.08073
2.25392
-0.0936925
2.5617
-0.0997464
2.89429
-0.0950415
3.25356
-0.077702
3.05599
-0.0540482
2.42497
-0.0278018
1.94564
-0.00527974
1.55366
0.0150904
1.1842
0.0264456
0.808255
0.0233752
0.457949
0.0132561
0.204648
0.0038419
0.0608483
0.00165464
0.00257441
0.288689
-0.00106862
0.780279
-0.0129486
1.16079
-0.0278179
1.4549
-0.043974
1.72749
-0.0599849
1.99417
-0.0750688
2.269
-0.08752
2.57416
-0.0945324
2.9013
-0.0910628
3.25009
-0.0749038
3.03983
-0.0533822
2.40345
-0.0301137
1.92238
-0.00492623
1.52847
0.0126926
1.16658
0.0210134
0.799934
0.0198107
0.459152
0.0112295
0.213229
0.00335807
0.0687197
0.00501271
0.000498796
0.28819
-0.00294495
0.783723
-0.0135813
1.17143
-0.0270347
1.46835
-0.0420604
1.74251
-0.0572871
2.0094
-0.0719907
2.28371
-0.0844747
2.58664
-0.0917299
2.90856
-0.0886618
3.24702
-0.0746776
3.02585
-0.0541044
2.38288
-0.031232
1.8995
-0.0130734
1.51031
0.00471199
1.1488
0.0155498
0.789096
0.0143374
0.460364
0.00838123
0.219185
0.00256529
0.0745357
0.007578
-0.000531629
0.288721
-0.00542085
0.788612
-0.0150501
1.18106
-0.0274496
1.48075
-0.041804
1.75687
-0.0564902
2.02409
-0.070933
2.29815
-0.0837721
2.59948
-0.0922102
2.917
-0.0914813
3.24629
-0.0784316
3.0128
-0.0590119
2.36346
-0.0405061
1.881
-0.0190074
1.48882
-0.003434
1.13323
0.00532205
0.78034
0.00783071
0.457855
0.00476425
0.222252
0.0017103
0.0775896
0.0092883
-0.001897
0.290618
-0.00701453
0.793729
-0.0164326
1.19047
-0.0282039
1.49252
-0.0417537
1.77042
-0.0560386
2.03837
-0.0706051
2.31272
-0.0839907
2.61286
-0.0935019
2.92651
-0.0948392
3.24763
-0.0841076
3.00207
-0.0661625
2.34551
-0.0456019
1.86044
-0.0295556
1.47277
-0.0136482
1.11732
-0.00165941
0.768351
0.00131126
0.454885
0.00149876
0.222064
0.000739772
0.0783486
0.0100281
-0.00337855
0.293997
-0.00895171
0.799303
-0.0179104
1.19943
-0.0292014
1.50381
-0.0423883
1.7836
-0.0564032
2.05239
-0.0709582
2.32727
-0.0849426
2.62685
-0.0959016
2.93747
-0.0994347
3.25116
-0.0894674
2.9921
-0.0734833
2.32953
-0.0574696
1.84442
-0.0373206
1.45262
-0.0214429
1.10144
-0.0104926
0.757401
-0.00361306
0.448005
-0.00133576
0.219787
-0.000102597
0.0771154
0.00992547
-0.00405572
0.298053
-0.00995431
0.805201
-0.019015
1.20849
-0.0300279
1.51482
-0.0426919
1.79627
-0.0563842
2.06608
-0.0710911
2.34198
-0.0857755
2.64153
-0.0982051
2.9499
-0.104413
3.25737
-0.0989451
2.98663
-0.0845156
2.3151
-0.063302
1.82321
-0.0462978
1.43562
-0.0288313
1.08397
-0.0146807
0.743251
-0.00786645
0.441191
-0.00286622
0.214787
-0.000500234
0.0747495
0.00942524
-0.00436042
0.302413
-0.0110746
0.811915
-0.0199768
1.2174
-0.0306258
1.52547
-0.0430566
1.8087
-0.0566139
2.07964
-0.071433
2.3568
-0.0867709
2.65687
-0.100647
2.96377
-0.109151
3.26587
-0.10575
2.98323
-0.0925644
2.30191
-0.0759675
1.80661
-0.0526289
1.41228
-0.0334167
1.06476
-0.0195342
0.729368
-0.00940742
0.431064
-0.00374342
0.209123
-0.000756652
0.0717627
0.00866859
-0.00438088
0.306794
-0.0113696
0.818904
-0.0204141
1.22644
-0.0309107
1.53597
-0.0429747
1.82076
-0.0562827
2.09295
-0.0712147
2.37173
-0.0870855
2.67274
-0.102348
2.97903
-0.11381
3.27733
-0.11487
2.98429
-0.103548
2.29059
-0.0809608
1.78402
-0.0592797
1.3906
-0.0368385
1.04232
-0.0190968
0.711626
-0.00965052
0.421618
-0.00332944
0.202802
-0.000745569
0.0691788
0.00792302
-0.00452797
0.311322
-0.0119144
0.82629
-0.0206951
1.23522
-0.0308638
1.54614
-0.0427285
1.83263
-0.055937
2.10615
-0.0709448
2.38674
-0.0873611
2.68916
-0.10406
2.99573
-0.117677
3.29095
-0.120737
2.98735
-0.111086
2.28094
-0.0934973
1.76644
-0.0645006
1.3616
-0.0375697
1.01539
-0.0183128
0.692369
-0.00515216
0.408457
-9.64494e-05
0.197746
0.000797067
0.0682853
0.00872008
-0.00452106
0.315843
-0.0118031
0.833572
-0.020543
1.24396
-0.0305679
1.55616
-0.0421063
1.84416
-0.0550448
2.11909
-0.070048
2.40174
-0.0868613
2.70597
-0.104625
3.0135
-0.120567
3.30689
-0.1284
2.99518
-0.121369
2.27391
-0.098473
1.74354
-0.0706192
1.33375
-0.0373947
0.982166
-0.0106518
0.665627
0.00319272
0.394613
0.00489802
0.196041
-0.00105229
0.0742356
0.00766779
-0.00459004
0.320433
-0.0119718
0.840954
-0.020344
1.25233
-0.0299819
1.5658
-0.0412527
1.85543
-0.0540438
2.13188
-0.0690503
2.41675
-0.0862598
2.72318
-0.105097
3.03233
-0.123169
3.32497
-0.133279
3.00529
-0.128572
2.2692
-0.111942
1.72691
-0.0770945
1.2989
-0.0364949
0.941566
0.000766986
0.628365
0.0300937
0.365286
0.0401664
0.185968
0.026487
0.087915
0.0341548
-0.00444883
0.324882
-0.0115636
0.848069
-0.0198093
1.26058
-0.0292434
1.57523
-0.0401506
1.86634
-0.0526218
2.14435
-0.0674966
2.43162
-0.0848681
2.74055
-0.104374
3.05184
-0.124271
3.34486
-0.1377
3.01872
-0.138019
2.26952
-0.118086
1.70698
-0.085478
1.26629
-0.037107
0.893195
0.0112982
0.57996
0.0520767
0.324508
0.0493457
0.188699
0.0217277
0.115533
0.0558825
-0.00434226
0.329224
-0.0114439
0.855171
-0.0192855
1.26842
-0.0282607
1.58421
-0.0388614
1.87694
-0.0511276
2.15662
-0.0659066
2.4464
-0.0834566
2.7581
-0.103696
3.07208
-0.125445
3.36661
-0.140876
3.03415
-0.144339
2.27298
-0.133271
1.69591
-0.0974752
1.23049
-0.0449304
0.84065
0.0271142
0.507915
0.125487
0.226135
0.196929
0.117257
0.183039
0.129423
0.238922
-0.00417724
0.333401
-0.0110416
0.862035
-0.0189407
1.27632
-0.0280337
1.5933
-0.0388132
1.88772
-0.0514791
2.16929
-0.0671225
2.46204
-0.0861934
2.77717
-0.109006
3.09489
-0.135033
3.39264
-0.156689
3.05581
-0.166693
2.28299
-0.154926
1.68414
-0.123498
1.19907
-0.0624359
0.779588
-0.0046453
0.450124
-0.0618237
0.283313
-0.356294
0.411727
-0.942893
0.716022
0.900809
-1.60478
-0.00403938
0.337441
-0.010885
0.868881
-0.0184777
1.28391
-0.0273024
1.60213
-0.0379934
1.89841
-0.0508505
2.18214
-0.0669952
2.47819
-0.0871059
2.79728
-0.111913
3.1197
-0.141693
3.42242
-0.168247
3.08236
-0.182815
2.29756
-0.188644
1.68997
-0.166211
1.17663
-0.136218
0.749595
-0.231129
0.545035
-0.693454
0.745639
-1.44594
1.16421
-2.05269
1.32277
1.21648
-2.36836
-0.00379786
0.341239
-0.0102497
0.875333
-0.0177212
1.29138
-0.0264854
1.61089
-0.0370762
1.909
-0.0499706
2.19504
-0.0664553
2.49467
-0.0873929
2.81822
-0.114002
3.14631
-0.147457
3.45587
-0.180571
3.11548
-0.204974
2.32196
-0.211708
1.69671
-0.19797
1.1629
-0.283623
0.835248
-0.753268
1.01468
-1.54896
1.54133
-2.11209
1.72734
-2.35077
1.56146
1.33052
-2.46481
-0.00366662
0.344905
-0.00992464
0.881591
-0.0170131
1.29847
-0.0254424
1.61932
-0.0358611
1.91942
-0.0488675
2.20804
-0.0657453
2.51155
-0.0876154
2.84009
-0.116125
3.17482
-0.153348
3.4931
-0.19239
3.15452
-0.222628
2.3522
-0.24806
1.72214
-0.324855
1.23969
-0.682156
1.19255
-1.43981
1.77233
-2.02838
2.1299
-2.26771
1.96668
-2.38068
1.67443
1.39451
-2.44467
-0.00334615
0.348251
-0.00911014
0.887355
-0.0159834
1.30534
-0.0242837
1.62762
-0.0346109
1.92975
-0.0475771
2.22101
-0.0646551
2.52863
-0.08718
2.86262
-0.117339
3.20498
-0.158361
3.53412
-0.205129
3.20129
-0.248142
2.39521
-0.288027
1.76202
-0.468691
1.42035
-1.09461
1.81847
-1.78963
2.46735
-2.10901
2.44928
-2.25686
2.11453
-2.3388
1.75637
1.46042
-2.40471
-0.0033349
0.351586
-0.00915306
0.893173
-0.0158957
1.31209
-0.0241106
1.63584
-0.0346427
1.94028
-0.0479861
2.23435
-0.0656753
2.54632
-0.089286
2.88623
-0.121381
3.23707
-0.165996
3.57873
-0.21872
3.25401
-0.264768
2.44126
-0.352762
1.85002
-0.74493
1.81252
-1.4911
2.56463
-1.96321
2.93947
-2.16296
2.64903
-2.26905
2.22061
-2.34614
1.83346
1.5238
-2.40952
-0.0033906
0.354977
-0.00929293
0.899075
-0.0165335
1.31933
-0.0253525
1.64466
-0.036455
1.95138
-0.0503974
2.2483
-0.0688937
2.56481
-0.0936561
2.91099
-0.127718
3.27113
-0.176529
3.62754
-0.23454
3.31202
-0.296182
2.5029
-0.483405
2.03724
-1.04607
2.37519
-1.67881
3.19737
-1.95338
3.21403
-2.10007
2.79572
-2.21381
2.33435
-2.30733
1.92698
1.58538
-2.36891
-0.00352105
0.358498
-0.00997792
0.905532
-0.0174864
1.32684
-0.0265954
1.65376
-0.038161
1.96295
-0.0528576
2.26299
-0.0723628
2.58432
-0.0985922
2.93722
-0.134813
3.30735
-0.187175
3.67991
-0.250064
3.37491
-0.335331
2.58817
-0.616907
2.31882
-1.26402
3.0223
-1.7524
3.68575
-1.95934
3.42097
-2.09896
2.93534
-2.2226
2.45799
-2.33286
2.03724
1.64393
-2.3914
-0.00343813
0.361936
-0.00989843
0.911992
-0.0180827
1.33502
-0.0279972
1.66368
-0.0402458
1.9752
-0.0555785
2.27833
-0.0759189
2.60466
-0.1033
2.9646
-0.141399
3.34545
-0.197242
3.73575
-0.265395
3.44306
-0.389338
2.71211
-0.775171
2.70465
-1.41035
3.65748
-1.76236
4.03777
-1.93505
3.59366
-2.03673
3.03702
-2.12511
2.54637
-2.1921
2.10422
1.63663
-2.1848
-0.00346237
0.365398
-0.0106039
0.919134
-0.019033
1.34345
-0.0291966
1.67384
-0.0419448
1.98795
-0.0581156
2.2945
-0.0795426
2.62609
-0.108455
2.99351
-0.148638
3.38564
-0.206053
3.79316
-0.284308
3.52132
-0.453938
2.88174
-0.906513
3.15722
-1.46249
4.21346
-1.72382
4.29909
-1.87516
3.745
-1.96829
3.13015
-1.96941
2.5475
-1.89995
2.03476
1.60043
-1.86375
-0.00319786
0.368596
-0.0100919
0.926028
-0.0192742
1.35263
-0.0303351
1.6849
-0.0437352
2.00135
-0.0602819
2.31104
-0.0820225
2.64783
-0.111148
3.02264
-0.15157
3.42606
-0.208825
3.85042
-0.294855
3.60735
-0.498891
3.08578
-0.988637
3.64697
-1.42936
4.65418
-1.59408
4.46381
-1.66098
3.8119
-1.66528
3.13445
-1.51749
2.39971
-1.01742
1.53469
0.58301
-0.00282082
0.371417
-0.0106643
0.933871
-0.0200201
1.36199
-0.0313334
1.69622
-0.0455354
2.01555
-0.0635455
2.32905
-0.0873585
2.67164
-0.119467
3.05475
-0.164082
3.47067
-0.227649
3.91399
-0.330108
3.70981
-0.5843
3.33997
-1.12414
4.18681
-1.4822
5.01224
-1.58123
4.56284
-1.5789
3.80957
-1.47494
3.03049
-1.23603
2.1608
-0.631826
0.930483
-0.0488158
-0.00244612
0.373863
-0.00931727
0.940743
-0.0195511
1.37222
-0.0322334
1.7089
-0.047712
2.03103
-0.0669471
2.34829
-0.0924519
2.69715
-0.126959
3.08925
-0.175684
3.5194
-0.245735
3.98404
-0.368711
3.83279
-0.682965
3.65422
-1.24264
4.74649
-1.50272
5.27232
-1.56093
4.62104
-1.53864
3.78729
-1.33678
2.82863
-0.782885
1.60691
-0.108771
0.256369
-0.157587
-0.00173761
0.375601
-0.00953795
0.948543
-0.0196131
1.3823
-0.0322408
1.72153
-0.0482882
2.04707
-0.0689633
2.36896
-0.0966468
2.72483
-0.134394
3.127
-0.187089
3.57209
-0.264856
4.0618
-0.4131
3.98103
-0.785537
4.02666
-1.32084
5.28179
-1.49692
5.4484
-1.52806
4.65218
-1.43986
3.69909
-1.10201
2.49078
-0.313098
0.817993
0.0248393
-0.0815677
-0.132748
-0.000576957
0.376178
-0.00662878
0.954595
-0.017546
1.39321
-0.0317886
1.73577
-0.0491971
2.06448
-0.0710274
2.39079
-0.100241
2.75404
-0.139991
3.16675
-0.195431
3.62753
-0.281759
4.14813
-0.45681
4.15608
-0.895127
4.46498
-1.3662
5.75287
-1.48223
5.56443
-1.48493
4.65488
-1.25964
3.4738
-0.686307
1.91745
-0.0625615
0.194247
0.0303442
-0.174473
-0.102403
0.00013381
0.376044
-0.00572691
0.960455
-0.0160209
1.40351
-0.029785
1.74953
-0.0472013
2.0819
-0.0703012
2.41389
-0.101543
2.78529
-0.144215
3.20942
-0.203035
3.68635
-0.298683
4.24378
-0.499913
4.35731
-0.988214
4.95328
-1.36171
6.12637
-1.42591
5.62862
-1.37913
4.6081
-1.09035
3.18502
-0.322442
1.14955
0.00514737
-0.133342
0.0152359
-0.184562
-0.0871674
0.00329024
0.372754
0.000347219
0.963399
-0.0109927
1.41485
-0.0265992
1.76514
-0.0452307
2.10053
-0.0693638
2.43803
-0.101617
2.81754
-0.145399
3.2532
-0.206581
3.74753
-0.309937
4.34714
-0.536938
4.58431
-1.04979
5.46613
-1.32559
6.40217
-1.36623
5.66926
-1.22589
4.46776
-0.771964
2.73109
-0.0687062
0.446287
0.0448505
-0.246899
0.0244993
-0.164211
-0.0626681
0.0045499
0.368204
0.00261177
0.965337
-0.00710207
1.42456
-0.0207812
1.77882
-0.0385053
2.11826
-0.063442
2.46296
-0.0971226
2.85122
-0.143287
3.29937
-0.207391
3.81164
-0.319337
4.45908
-0.577139
4.84211
-1.07273
5.96173
-1.2622
6.59164
-1.27105
5.67811
-1.05161
4.24832
-0.460227
2.13971
-0.0180668
0.00412641
-0.0062302
-0.258735
0.00516379
-0.175605
-0.0575043
0.00867154
0.359532
0.00993252
0.964076
0.0023307
1.43216
-0.0122494
1.7934
-0.0313689
2.13737
-0.0567856
2.48838
-0.0904384
2.88487
-0.135984
3.34491
-0.201219
3.87687
-0.318495
4.57636
-0.596676
5.12029
-1.04799
6.41304
-1.17211
6.71575
-1.15797
5.66397
-0.897092
3.98744
-0.263489
1.50611
-0.0709549
-0.188408
-0.0389337
-0.290756
-0.0141076
-0.200431
-0.0716119
0.0115586
0.347974
0.0162768
0.959358
0.0113693
1.43707
0.00111833
1.80365
-0.0172107
2.1557
-0.0417775
2.51295
-0.0754
2.91849
-0.122056
3.39157
-0.188408
3.94323
-0.31051
4.69846
-0.597749
5.40753
-0.985629
6.80092
-1.05049
6.78061
-0.97861
5.59209
-0.678437
3.68727
-0.0736063
0.901275
0.0137295
-0.275744
-0.00106168
-0.275965
-0.00207729
-0.199415
-0.0736892
0.0185062
0.329468
0.0300585
0.947805
0.0283504
1.43878
0.016685
1.81532
-0.00173273
2.17412
-0.0246076
2.53582
-0.0566176
2.9505
-0.100526
3.43548
-0.164501
4.0072
-0.284818
4.81878
-0.562613
5.68533
-0.870081
7.10839
-0.904625
6.81516
-0.80681
5.49427
-0.449
3.32946
0.0650903
0.387185
0.0749815
-0.285635
0.0554944
-0.256478
0.0213337
-0.165255
-0.0523555
0.0244225
0.305045
0.0426763
0.929551
0.0459135
1.43554
0.039415
1.82181
0.0270881
2.18645
0.00562469
2.55729
-0.0243123
2.98044
-0.0665749
3.47774
-0.128137
4.06876
-0.243574
4.93422
-0.492019
5.93377
-0.713413
7.32979
-0.745871
6.84762
-0.636089
5.38449
-0.307483
3.00085
-0.00444097
0.0841425
0.0159954
-0.306071
0.0312224
-0.271705
0.0164458
-0.150478
-0.0359097
0.0351586
0.269886
0.065202
0.899508
0.0757143
1.42503
0.0715678
1.82596
0.0600515
2.19796
0.0407687
2.57657
0.0141155
3.00709
-0.022835
3.51469
-0.0768123
4.12274
-0.174559
5.03196
-0.375244
6.13446
-0.530102
7.48464
-0.551832
6.86935
-0.460729
5.29339
-0.182159
2.72228
-0.0644698
-0.0335469
-0.0480188
-0.322522
-0.0190032
-0.300721
-0.00256012
-0.166921
-0.0384698
0.0446098
0.225277
0.0872392
0.856879
0.107574
1.40469
0.11238
1.82115
0.108477
2.20187
0.0946954
2.59035
0.0739702
3.02782
0.042248
3.54641
-0.00799793
4.17299
-0.0817715
5.10574
-0.217891
6.27058
-0.306242
7.573
-0.323646
6.88675
-0.265632
5.23537
-0.0533256
2.50998
-0.0794964
-0.0073761
-0.0759673
-0.326051
-0.0352023
-0.341486
0.0104361
-0.212559
-0.0280337
0.0577557
0.167521
0.120245
0.79439
0.156318
1.36862
0.167835
1.80964
0.167196
2.20251
0.157105
2.60044
0.142952
3.04197
0.122424
3.56694
0.0901858
4.20522
0.0464236
5.1495
-0.00149808
6.3185
-0.0387795
7.61028
-0.0417162
6.88969
-0.0410998
5.23476
-0.0272107
2.49609
-0.214969
0.180382
-0.201836
-0.339184
-0.105042
-0.43828
0.0100704
-0.327672
-0.0179632
0.0600975
0.107423
0.150296
0.704192
0.206848
1.31207
0.233939
1.78255
0.24576
2.19068
0.245312
2.60089
0.239957
3.04733
0.229024
3.57788
0.213802
4.22045
0.195871
5.16743
0.25746
6.25691
0.311499
7.55624
0.28244
6.91875
0.0991513
5.41804
-0.229349
2.82459
-0.556096
0.507129
-0.556071
-0.33921
-0.406851
-0.5875
-0.181618
-0.552905
-0.199581
0.0505162
0.0569073
0.183079
0.571628
0.277568
1.21758
0.321988
1.73813
0.341119
2.17155
0.348542
2.59347
0.349762
3.04611
0.354659
3.57298
0.363587
4.21152
0.388543
5.14247
0.544484
6.10097
0.713054
7.38767
0.724451
6.90735
0.609053
5.53344
0.128288
3.30535
-0.431348
1.06676
-0.699823
-0.0707351
-0.596125
-0.691198
-0.325053
-0.823977
-0.524634
0.0348416
0.0220656
0.217783
0.388687
0.343464
1.0919
0.420178
1.66141
0.460996
2.13074
0.484511
2.56995
0.494183
3.03643
0.511019
3.55614
0.54284
4.1797
0.611258
5.07405
0.895042
5.81719
1.31845
6.96426
1.62547
6.60033
1.82577
5.33314
1.47286
3.65827
0.749687
1.78993
0.16191
0.517042
-0.158627
-0.37066
-0.201859
-0.780745
-0.726493
0.0310661
-0.00900042
0.236379
0.183374
0.442403
0.885876
0.554371
1.54944
0.605109
2.08
0.638005
2.53706
0.659892
3.01455
0.689906
3.52613
0.748991
4.12061
0.87604
4.94701
1.26136
5.43187
1.9572
6.26842
2.33029
6.22724
2.54622
5.11722
2.39903
3.80545
1.81558
2.37338
1.24328
1.08935
0.620889
0.251728
0.204431
-0.364286
-0.522063
0.0268187
-0.0358191
0.166488
0.043704
0.489462
0.562902
0.680343
1.35856
0.778116
1.98222
0.828672
2.4865
0.864549
2.97867
0.892812
3.49787
0.968549
4.04487
1.11331
4.80225
1.49536
5.04982
2.28155
5.48223
2.65729
5.8515
2.84932
4.92519
2.74383
3.91094
2.25874
2.85847
1.60764
1.74045
1.00458
0.85479
0.442226
0.198064
-0.0798373
0.00632812
-0.0421472
0.0860147
-0.0359826
0.413375
0.235542
0.696269
1.07567
0.825349
1.85314
0.864198
2.44765
0.876522
2.96635
0.863936
3.51045
0.861848
4.04696
0.904873
4.75922
1.04724
4.90746
1.47153
5.05793
1.64649
5.67654
1.67356
4.89812
1.59423
3.99027
1.37444
3.07826
1.01106
2.10383
0.641434
1.22442
0.259595
0.579902
0.179758
0.00232983
-0.0444771
0.0429476
-0.0766003
0.226218
0.0522721
0.524492
0.777395
0.691604
1.68603
0.744428
2.39483
0.757558
2.95322
0.75287
3.51514
0.73706
4.06277
0.758185
4.7381
0.823436
4.8422
1.09446
4.78691
1.297
5.47401
1.30055
4.89456
1.23853
4.0523
1.08436
3.23243
0.807223
2.38097
0.50407
1.52757
0.211748
0.872225
0.391506
0.0024907
-0.0469678
0.0234506
-0.0975602
0.100425
-0.0247026
0.362035
0.515786
0.539363
1.5087
0.621385
2.31281
0.639579
2.93502
0.638075
3.51664
0.612127
4.08872
0.605058
4.74517
0.632899
4.81436
0.793712
4.6261
0.975197
5.29252
0.969207
4.90055
0.908076
4.11343
0.791168
3.34933
0.599134
2.57301
0.367826
1.75888
0.146157
1.09389
0.537663
-0.0109003
-0.0360675
-0.00842993
-0.100031
0.0299667
-0.0630992
0.241595
0.304158
0.407386
1.34291
0.484938
2.23525
0.507355
2.91261
0.511874
3.51212
0.493442
4.10715
0.476565
4.76204
0.478864
4.81206
0.575218
4.52974
0.706807
5.16093
0.702342
4.90501
0.639074
4.17669
0.543987
3.44442
0.408958
2.70803
0.241499
1.92634
0.085865
1.24953
0.623528
-0.00140691
-0.0346605
0.022877
-0.124315
0.060882
-0.101104
0.185986
0.179053
0.319462
1.20944
0.373339
2.18138
0.382728
2.90322
0.385846
3.50901
0.377463
4.11553
0.363934
4.77557
0.353357
4.82264
0.40412
4.47898
0.494669
5.07038
0.488995
4.91069
0.433006
4.23268
0.360675
3.51675
0.265347
2.80336