/*--------------------------------*- C++ -*----------------------------------*\
  =========                 |
  \\      /  F ield         | OpenFOAM: The Open Source CFD Toolbox
   \\    /   O peration     | Website:  https://openfoam.org
    \\  /    A nd           | Version:  10
     \\/     M anipulation  |
\*---------------------------------------------------------------------------*/
FoamFile
{
    format      ascii;
    class       volVectorField;
    location    "57";
    object      U;
}
// * * * * * * * * * * * * * * * * * * * * * * * * * * * * * * * * * * * * * //

dimensions      [0 1 -1 0 0 0 0];

internalField   nonuniform List<vector> 
2200
(
(0.878853 -0.0304119 0)
(1.0058 -0.0512823 0)
(1.0033 -0.0353878 0)
(1.00032 -0.0244439 0)
(0.999901 -0.0166724 0)
(0.999998 -0.0107397 0)
(1.00002 -0.00684681 0)
(1.00002 -0.00419661 0)
(1.00001 -0.0021827 0)
(1.00018 -0.000649104 0)
(0.999994 0.00109059 0)
(0.999924 0.00255237 0)
(1.00014 0.00446922 0)
(1.00013 0.00703685 0)
(1.00008 0.010817 0)
(1.00006 0.0166458 0)
(1.00039 0.024374 0)
(1.00349 0.0348783 0)
(1.00599 0.0513758 0)
(0.879052 0.0303012 0)
(0.711989 -0.0327663 0)
(0.996637 -0.0630163 0)
(1.03328 -0.0561881 0)
(1.0248 -0.0464315 0)
(1.01582 -0.0361372 0)
(1.00968 -0.0264044 0)
(1.00593 -0.0181627 0)
(1.00377 -0.0114513 0)
(1.00258 -0.00612062 0)
(1.00207 -0.00164762 0)
(1.00211 0.00254113 0)
(1.0025 0.00709655 0)
(1.00345 0.0123651 0)
(1.00563 0.0189769 0)
(1.00941 0.027214 0)
(1.01547 0.0369657 0)
(1.02457 0.0474439 0)
(1.03314 0.0579529 0)
(0.9967 0.0631443 0)
(0.711771 0.0330302 0)
(0.535577 -0.0238883 0)
(0.969913 -0.0569253 0)
(1.05646 -0.0546857 0)
(1.05233 -0.048738 0)
(1.0363 -0.0403872 0)
(1.02444 -0.0322211 0)
(1.0159 -0.0239444 0)
(1.01038 -0.0160846 0)
(1.00715 -0.00875426 0)
(1.00565 -0.00207213 0)
(1.00562 0.00429434 0)
(1.00707 0.01069 0)
(1.01035 0.0177615 0)
(1.01569 0.0254152 0)
(1.02419 0.0334221 0)
(1.03623 0.0413842 0)
(1.05228 0.0493831 0)
(1.05633 0.0532972 0)
(0.969221 0.0576318 0)
(0.534417 0.0239337 0)
(0.392281 -0.0136603 0)
(0.911744 -0.0464121 0)
(1.05748 -0.0469791 0)
(1.06945 -0.0443469 0)
(1.05483 -0.0382301 0)
(1.03934 -0.0315358 0)
(1.02759 -0.0247527 0)
(1.01912 -0.0174937 0)
(1.01376 -0.0100489 0)
(1.01109 -0.00253342 0)
(1.01077 0.00498477 0)
(1.01308 0.0125333 0)
(1.01817 0.0198014 0)
(1.02662 0.0266566 0)
(1.03839 0.0330678 0)
(1.05388 0.0395212 0)
(1.0681 0.0456171 0)
(1.0555 0.0483088 0)
(0.909898 0.0469874 0)
(0.389954 0.0137773 0)
(0.307673 -0.00451156 0)
(0.846764 -0.0323764 0)
(1.04948 -0.039912 0)
(1.07954 -0.0381502 0)
(1.06827 -0.0335046 0)
(1.0517 -0.0279274 0)
(1.0383 -0.0225351 0)
(1.02806 -0.0165175 0)
(1.02095 -0.00956787 0)
(1.01718 -0.00186212 0)
(1.01718 0.00601799 0)
(1.02076 0.0132407 0)
(1.02751 0.0197108 0)
(1.03733 0.0254048 0)
(1.05037 0.0303602 0)
(1.06679 0.0356577 0)
(1.07784 0.0399719 0)
(1.04743 0.0416956 0)
(0.843092 0.0329416 0)
(0.303832 0.00472946 0)
(0.26423 0.000104163 0)
(0.788921 -0.0200662 0)
(1.0333 -0.0314662 0)
(1.08347 -0.032043 0)
(1.07724 -0.0287809 0)
(1.06081 -0.0238578 0)
(1.04722 -0.0193918 0)
(1.03638 -0.0142833 0)
(1.0286 -0.00826731 0)
(1.02411 -0.00133284 0)
(1.02342 0.00592127 0)
(1.02706 0.0127548 0)
(1.03442 0.0183924 0)
(1.04503 0.0229775 0)
(1.05852 0.02701 0)
(1.0748 0.0314614 0)
(1.08029 0.0342363 0)
(1.02911 0.0332905 0)
(0.782675 0.0207293 0)
(0.258844 0.000116122 0)
(0.240308 0.00106356 0)
(0.73834 -0.0123036 0)
(1.0137 -0.0250208 0)
(1.0841 -0.026816 0)
(1.08306 -0.024529 0)
(1.06782 -0.0203911 0)
(1.05424 -0.0163459 0)
(1.04336 -0.0118488 0)
(1.03517 -0.00646252 0)
(1.03024 -4.93146e-05 0)
(1.03008 0.00675135 0)
(1.03429 0.0125402 0)
(1.04166 0.017252 0)
(1.05193 0.0211914 0)
(1.065 0.0245349 0)
(1.07964 0.027986 0)
(1.08012 0.0295639 0)
(1.00784 0.0271795 0)
(0.72918 0.0131204 0)
(0.233275 -0.000843178 0)
(0.225929 0.000957632 0)
(0.695358 -0.00805066 0)
(0.992965 -0.0207679 0)
(1.08215 -0.023153 0)
(1.08683 -0.0212985 0)
(1.07339 -0.0177446 0)
(1.05992 -0.0139671 0)
(1.04931 -0.00964095 0)
(1.04137 -0.00465985 0)
(1.03649 0.000958031 0)
(1.03537 0.00672508 0)
(1.03879 0.0121286 0)
(1.04587 0.0164698 0)
(1.05591 0.0199442 0)
(1.06922 0.0230207 0)
(1.08198 0.0257926 0)
(1.07561 0.0267338 0)
(0.983334 0.0233953 0)
(0.682047 0.00910341 0)
(0.216842 -0.000715237 0)
(0.216355 0.000622571 0)
(0.659966 -0.0056834 0)
(0.97249 -0.0176418 0)
(1.0795 -0.0202545 0)
(1.09022 -0.0187038 0)
(1.07819 -0.0155917 0)
(1.06485 -0.0119358 0)
(1.05435 -0.00777257 0)
(1.04638 -0.00298682 0)
(1.04122 0.00243722 0)
(1.04065 0.00801354 0)
(1.04426 0.0126192 0)
(1.05086 0.0163814 0)
(1.06026 0.0195948 0)
(1.07276 0.0222266 0)
(1.08359 0.0243662 0)
(1.07122 0.0248793 0)
(0.959708 0.0209276 0)
(0.642246 0.00704222 0)
(0.204843 -0.000340574 0)
(0.209112 0.000291889 0)
(0.631276 -0.0042434 0)
(0.953473 -0.0150757 0)
(1.07623 -0.0180173 0)
(1.09324 -0.0166747 0)
(1.08283 -0.0137287 0)
(1.06939 -0.010157 0)
(1.05896 -0.00606022 0)
(1.05123 -0.00135891 0)
(1.04636 0.00364755 0)
(1.04475 0.00851528 0)
(1.04719 0.0130931 0)
(1.05331 0.0167952 0)
(1.06266 0.0195769 0)
(1.07556 0.0219862 0)
(1.08451 0.0237572 0)
(1.06408 0.0237064 0)
(0.93478 0.0190267 0)
(0.607299 0.00588473 0)
(0.19442 3.10579e-05 0)
(0.203251 8.05522e-05 0)
(0.607952 -0.00316961 0)
(0.935573 -0.0126118 0)
(1.07328 -0.0156547 0)
(1.09668 -0.0145078 0)
(1.08757 -0.0117661 0)
(1.07409 -0.00823272 0)
(1.06338 -0.00426183 0)
(1.05527 0.000337379 0)
(1.04978 0.00544353 0)
(1.04848 0.0104005 0)
(1.05139 0.0144647 0)
(1.05722 0.0174938 0)
(1.0661 0.020157 0)
(1.07815 0.0222292 0)
(1.085 0.0234481 0)
(1.05754 0.0228805 0)
(0.91135 0.0174821 0)
(0.577336 0.0052321 0)
(0.184926 0.000316011 0)
(0.198622 8.58914e-07 0)
(0.589606 -0.00231875 0)
(0.919969 -0.0103117 0)
(1.07009 -0.0135798 0)
(1.09991 -0.0125517 0)
(1.09241 -0.00980694 0)
(1.07875 -0.00623842 0)
(1.06783 -0.00231636 0)
(1.05962 0.00216541 0)
(1.05422 0.00695003 0)
(1.05189 0.0116672 0)
(1.05326 0.0155057 0)
(1.05871 0.0186959 0)
(1.06786 0.0207799 0)
(1.08041 0.0225795 0)
(1.08476 0.0234753 0)
(1.04848 0.0222093 0)
(0.886765 0.0162089 0)
(0.549829 0.00482084 0)
(0.175555 0.000479231 0)
(0.195027 2.6364e-05 0)
(0.574878 -0.00156943 0)
(0.905378 -0.00814333 0)
(1.06734 -0.0110815 0)
(1.10348 -0.010036 0)
(1.09732 -0.00739804 0)
(1.08357 -0.00387519 0)
(1.07213 0.000106168 0)
(1.06319 0.00468898 0)
(1.05672 0.00969796 0)
(1.05428 0.0142383 0)
(1.05662 0.0179531 0)
(1.06215 0.0201188 0)
(1.07089 0.0220781 0)
(1.08197 0.0234411 0)
(1.08403 0.0238124 0)
(1.03962 0.0220813 0)
(0.863276 0.015334 0)
(0.525133 0.00464139 0)
(0.166587 0.000568406 0)
(0.192863 6.09908e-05 0)
(0.56423 -0.000809629 0)
(0.894006 -0.00598094 0)
(1.06482 -0.00887727 0)
(1.10694 -0.00769336 0)
(1.10246 -0.00485003 0)
(1.08877 -0.00116073 0)
(1.07716 0.00273983 0)
(1.06806 0.00716688 0)
(1.06157 0.011856 0)
(1.05815 0.0163976 0)
(1.05833 0.0195595 0)
(1.06296 0.0221655 0)
(1.07188 0.0234218 0)
(1.08304 0.0243093 0)
(1.08231 0.0243498 0)
(1.02774 0.0220321 0)
(0.838067 0.01472 0)
(0.501019 0.00456034 0)
(0.157465 0.000606947 0)
(0.191929 9.82966e-05 0)
(0.556674 -0.000243018 0)
(0.883583 -0.00402266 0)
(1.06316 -0.00615511 0)
(1.11096 -0.0047419 0)
(1.10775 -0.00178983 0)
(1.09398 0.00195034 0)
(1.08171 0.00616118 0)
(1.07156 0.0108845 0)
(1.06362 0.015866 0)
(1.05971 0.0199945 0)
(1.06101 0.0230273 0)
(1.0661 0.0243065 0)
(1.07439 0.0254942 0)
(1.08311 0.026005 0)
(1.07961 0.0254825 0)
(1.0163 0.0224562 0)
(0.813899 0.0144855 0)
(0.478548 0.0045754 0)
(0.148638 0.000623932 0)
(0.192467 8.92002e-05 0)
(0.552248 0.000805806 0)
(0.87726 -0.00159822 0)
(1.06235 -0.0034978 0)
(1.11513 -0.00168915 0)
(1.1134 0.00163076 0)
(1.09969 0.0058041 0)
(1.0873 0.0100609 0)
(1.07701 0.0146717 0)
(1.06883 0.019189 0)
(1.06367 0.0232216 0)
(1.06248 0.0257214 0)
(1.06569 0.027311 0)
(1.07399 0.0278296 0)
(1.08292 0.0279437 0)
(1.07529 0.0270359 0)
(1.00114 0.0232488 0)
(0.787088 0.0145835 0)
(0.455236 0.00471133 0)
(0.139351 0.000650834 0)
(0.19447 0.000217181 0)
(0.552428 0.00149929 0)
(0.87229 0.000422875 0)
(1.06305 -0.000174434 0)
(1.12028 0.00201651 0)
(1.11957 0.00562031 0)
(1.10555 0.00997474 0)
(1.09218 0.0147548 0)
(1.08051 0.0198333 0)
(1.07075 0.0248715 0)
(1.06488 0.0285371 0)
(1.06429 0.030389 0)
(1.06852 0.0313328 0)
(1.07583 0.0315524 0)
(1.08146 0.0308786 0)
(1.07021 0.0292408 0)
(0.986387 0.0245575 0)
(0.761042 0.0150141 0)
(0.432678 0.00496118 0)
(0.130075 0.000679142 0)
(0.19854 0.000656505 0)
(0.554979 0.00228255 0)
(0.872476 0.0032619 0)
(1.06543 0.00310906 0)
(1.12616 0.0059025 0)
(1.12659 0.00990504 0)
(1.11236 0.0148932 0)
(1.09876 0.0199598 0)
(1.08698 0.025179 0)
(1.07666 0.0299193 0)
(1.06891 0.0334289 0)
(1.0654 0.0353218 0)
(1.06635 0.0355638 0)
(1.07346 0.0349909 0)
(1.07978 0.0344066 0)
(1.06288 0.0320534 0)
(0.966814 0.0262492 0)
(0.731215 0.0158365 0)
(0.407906 0.00532088 0)
(0.119854 0.000715429 0)
(0.204815 0.000866086 0)
(0.561484 0.00339203 0)
(0.876067 0.0057248 0)
(1.06995 0.00730447 0)
(1.13295 0.0107249 0)
(1.13423 0.0153461 0)
(1.11942 0.0207527 0)
(1.10439 0.0265437 0)
(1.09048 0.0324947 0)
(1.07777 0.0378665 0)
(1.06891 0.0413646 0)
(1.06606 0.0421287 0)
(1.06848 0.0418435 0)
(1.07452 0.0410868 0)
(1.0759 0.0389841 0)
(1.05434 0.0355007 0)
(0.947393 0.0286071 0)
(0.701442 0.0169852 0)
(0.382924 0.00577573 0)
(0.10933 0.000753606 0)
(0.213174 0.00104878 0)
(0.572697 0.00471432 0)
(0.884145 0.00884643 0)
(1.07726 0.011902 0)
(1.14105 0.0164022 0)
(1.14289 0.0215021 0)
(1.1273 0.0277484 0)
(1.11157 0.0340516 0)
(1.0971 0.0403258 0)
(1.08361 0.0456528 0)
(1.07233 0.0484361 0)
(1.06569 0.0493422 0)
(1.0645 0.0484655 0)
(1.06943 0.0463313 0)
(1.07218 0.0443683 0)
(1.04279 0.0399357 0)
(0.921883 0.0313584 0)
(0.66636 0.0184901 0)
(0.354449 0.0062967 0)
(0.0974784 0.000785741 0)
(0.225359 0.00138775 0)
(0.590605 0.0066626 0)
(0.898608 0.0131583 0)
(1.0878 0.0181272 0)
(1.1508 0.0235574 0)
(1.15279 0.0297613 0)
(1.13632 0.0369231 0)
(1.11884 0.0441814 0)
(1.10154 0.0512287 0)
(1.0843 0.0567963 0)
(1.07101 0.0595333 0)
(1.0651 0.0588522 0)
(1.06528 0.0571763 0)
(1.06912 0.0547376 0)
(1.06488 0.0509236 0)
(1.0291 0.0450191 0)
(0.895703 0.0349187 0)
(0.630326 0.020292 0)
(0.324909 0.00686776 0)
(0.0851524 0.000815974 0)
(0.241013 0.00193192 0)
(0.613994 0.00847579 0)
(0.919384 0.0178083 0)
(1.10297 0.0250843 0)
(1.16308 0.0322688 0)
(1.16462 0.0394947 0)
(1.14633 0.0479148 0)
(1.12687 0.0558077 0)
(1.1076 0.0629989 0)
(1.08888 0.0683089 0)
(1.07306 0.0703483 0)
(1.06333 0.0694277 0)
(1.05935 0.0665048 0)
(1.06085 0.0623819 0)
(1.05802 0.0583914 0)
(1.01173 0.0511024 0)
(0.861549 0.0386702 0)
(0.587173 0.0222669 0)
(0.290842 0.00739826 0)
(0.0713506 0.000821559 0)
(0.262747 0.00279075 0)
(0.646627 0.0122082 0)
(0.948155 0.0245349 0)
(1.1225 0.0345929 0)
(1.17799 0.0430278 0)
(1.17829 0.0525213 0)
(1.1577 0.0621817 0)
(1.13557 0.0713385 0)
(1.11298 0.0793297 0)
(1.09004 0.0846281 0)
(1.07083 0.0850908 0)
(1.06057 0.0820397 0)
(1.05808 0.0779004 0)
(1.05897 0.0736407 0)
(1.04675 0.0673604 0)
(0.99079 0.057991 0)
(0.825935 0.0435046 0)
(0.542287 0.0244639 0)
(0.255471 0.00790759 0)
(0.0572834 0.0008041 0)
(0.293808 0.00367635 0)
(0.691399 0.0154146 0)
(0.986496 0.0327643 0)
(1.14859 0.0464475 0)
(1.19653 0.0577831 0)
(1.19418 0.0691945 0)
(1.16979 0.0805458 0)
(1.14402 0.0901337 0)
(1.11779 0.0973736 0)
(1.09161 0.100779 0)
(1.06984 0.100358 0)
(1.05643 0.0966593 0)
(1.04951 0.091152 0)
(1.04708 0.0839838 0)
(1.03482 0.0771904 0)
(0.964952 0.0659612 0)
(0.779258 0.0478519 0)
(0.487378 0.0264399 0)
(0.214579 0.00817206 0)
(0.0418022 0.000711118 0)
(0.330131 0.00707661 0)
(0.749582 0.024649 0)
(1.03621 0.046598 0)
(1.18084 0.0644612 0)
(1.21902 0.0772172 0)
(1.21247 0.0916587 0)
(1.18345 0.103695 0)
(1.15368 0.113417 0)
(1.12359 0.120439 0)
(1.09388 0.123591 0)
(1.0681 0.120745 0)
(1.05198 0.113514 0)
(1.04527 0.105651 0)
(1.04221 0.0986989 0)
(1.01784 0.0886561 0)
(0.933141 0.0740435 0)
(0.730439 0.0533502 0)
(0.432286 0.0286235 0)
(0.17396 0.00822535 0)
(0.0275353 0.000610565 0)
(0.409905 0.0106088 0)
(0.836805 0.0356859 0)
(1.10151 0.0671173 0)
(1.22068 0.0897149 0)
(1.24556 0.105739 6.29381e-34)
(1.23187 0.121859 -2.83727e-34)
(1.19635 0.13401 0)
(1.16143 0.142618 0)
(1.12629 0.147377 0)
(1.09102 0.146423 0)
(1.0614 0.139831 0)
(1.04388 0.131859 0)
(1.03479 0.12289 0)
(1.02584 0.111916 0)
(0.998021 0.100709 0)
(0.894971 0.0832957 0)
(0.666782 0.0574301 0)
(0.361196 0.02917 0)
(0.124573 0.00778566 0)
(0.011437 0.000745175 0)
(0.480728 0.0258608 4.64264e-20)
(0.939035 0.0595262 -3.5153e-20)
(1.17272 0.101843 0)
(1.26169 0.12864 2.72093e-20)
(1.27311 0.143888 -2.20656e-20)
(1.25013 0.162017 2.99358e-34)
(1.20764 0.172246 0)
(1.1674 0.178638 1.59542e-20)
(1.12696 0.180869 -5.24057e-20)
(1.08794 0.178029 1.06973e-20)
(1.05681 0.170552 0)
(1.03573 0.157878 -2.71609e-20)
(1.02315 0.144839 -3.25959e-20)
(1.01374 0.133868 5.70431e-20)
(0.965417 0.117862 -4.50583e-20)
(0.833753 0.0931436 0)
(0.580518 0.0616405 -1.62309e-20)
(0.279681 0.0286929 0)
(0.0743245 0.00743954 -8.95501e-20)
(-0.0055902 0.00052436 1.05538e-19)
(0.517048 0.0534966 -6.09027e-21)
(1.00351 0.10251 1.04907e-19)
(1.22281 0.151855 -5.79266e-21)
(1.2953 0.176228 -6.69949e-20)
(1.2977 0.193544 -4.67379e-20)
(1.26558 0.209821 7.60459e-20)
(1.21669 0.21721 0)
(1.1709 0.2209 0)
(1.12528 0.220567 8.3386e-20)
(1.08081 0.214065 0)
(1.04111 0.199582 9.80572e-20)
(1.01626 0.184536 2.9144e-20)
(1.00402 0.171825 4.52994e-22)
(0.980723 0.156499 -6.21087e-20)
(0.92553 0.137286 0)
(0.776097 0.108902 0)
(0.509285 0.0672642 -2.64755e-19)
(0.221729 0.0283506 6.65613e-19)
(0.0439401 0.00603885 -3.93362e-19)
(-0.0165734 -0.00111966 -4.63663e-19)
(0.524751 0.075999 -5.89382e-20)
(1.04076 0.159393 2.26286e-20)
(1.25938 0.212398 1.24231e-20)
(1.32148 0.235584 1.16789e-19)
(1.3166 0.251263 1.44919e-20)
(1.27719 0.263102 -1.98174e-19)
(1.22274 0.266555 6.76233e-20)
(1.17151 0.266994 0)
(1.11975 0.262893 -1.76254e-19)
(1.06878 0.252271 1.56585e-19)
(1.02813 0.236579 -2.6461e-19)
(1.00209 0.220813 1.2403e-19)
(0.982055 0.20432 -8.04465e-20)
(0.963494 0.187018 1.81286e-19)
(0.893537 0.164637 0)
(0.732579 0.124777 -6.61892e-20)
(0.468247 0.0756923 0)
(0.205885 0.0305502 3.64249e-19)
(0.0386594 0.00611096 -8.63068e-19)
(-0.0190327 -0.00279365 5.40924e-19)
(0.520726 0.107836 1.60774e-19)
(1.06186 0.216149 -7.07354e-20)
(1.28142 0.277476 -1.51639e-20)
(1.33863 0.300077 0)
(1.32886 0.313709 -8.65393e-20)
(1.2842 0.320467 1.06818e-19)
(1.22513 0.319122 -7.23248e-20)
(1.16923 0.315122 0)
(1.11354 0.306966 1.25211e-19)
(1.05973 0.292355 -1.10007e-19)
(1.01395 0.273272 2.29243e-19)
(0.981037 0.253094 0)
(0.960548 0.234473 -1.70951e-19)
(0.927823 0.214381 9.62904e-20)
(0.861154 0.186389 2.42765e-19)
(0.70334 0.145281 -2.13602e-19)
(0.451449 0.0883717 3.38255e-19)
(0.203659 0.0376119 -7.481e-19)
(0.0422155 0.00749951 4.73453e-19)
(-0.0177303 -0.00366219 -5.92275e-19)
(0.508968 0.131955 -5.32342e-20)
(1.06876 0.269595 3.79611e-20)
(1.29202 0.342997 -5.04833e-20)
(1.34764 0.365663 1.01731e-19)
(1.33445 0.377097 -9.67382e-20)
(1.28617 0.378793 3.36623e-20)
(1.22366 0.372729 3.66604e-21)
(1.16387 0.364462 -1.41527e-19)
(1.10321 0.35181 -1.31263e-19)
(1.04279 0.33293 -2.36392e-19)
(0.991565 0.309666 -4.93004e-19)
(0.958653 0.286717 -1.52027e-19)
(0.935069 0.265548 2.25008e-21)
(0.910284 0.245019 -3.30184e-19)
(0.836628 0.216555 -5.55026e-21)
(0.680847 0.165655 3.11047e-19)
(0.442724 0.102261 -9.36567e-20)
(0.209131 0.0465101 -5.42075e-20)
(0.0516983 0.0105009 0)
(-0.0133551 -0.00360047 1.25982e-18)
(0.492919 0.152874 0)
(1.06481 0.319862 -2.45749e-21)
(1.29473 0.406508 -8.04984e-21)
(1.3499 0.429709 -1.28497e-20)
(1.33428 0.440027 9.31355e-20)
(1.28351 0.437317 -7.86668e-20)
(1.21805 0.42685 7.88726e-20)
(1.15465 0.414225 2.3247e-19)
(1.09035 0.397477 -7.3137e-20)
(1.02781 0.374621 1.1681e-19)
(0.975351 0.3478 2.65052e-19)
(0.938003 0.321272 3.31472e-19)
(0.911323 0.299027 -1.99736e-19)
(0.875399 0.273784 3.57615e-19)
(0.807338 0.239876 -2.83459e-19)
(0.661427 0.189977 0)
(0.438884 0.120468 -7.11081e-19)
(0.220279 0.0586609 9.57053e-19)
(0.0655266 0.0165714 7.14408e-20)
(-0.00674357 -0.00237401 -1.33296e-18)
(0.477775 0.172742 -5.08157e-21)
(1.05557 0.367132 -5.64034e-21)
(1.29147 0.466843 5.84744e-20)
(1.34724 0.491515 -8.09977e-20)
(1.32951 0.500777 7.77826e-20)
(1.27673 0.494112 -7.6025e-20)
(1.20914 0.479816 1.56194e-19)
(1.14345 0.463327 -6.96329e-20)
(1.07644 0.442097 -2.94841e-19)
(1.01039 0.414641 -1.53509e-22)
(0.952925 0.383388 -2.88318e-19)
(0.912045 0.354402 -3.56869e-19)
(0.884588 0.32952 2.20722e-19)
(0.857119 0.305019 -1.28712e-19)
(0.78568 0.271707 3.08409e-19)
(0.644419 0.211544 0)
(0.434709 0.139283 -4.41977e-19)
(0.228848 0.0714128 6.52796e-19)
(0.0774603 0.0236938 1.23504e-18)
(-0.000365509 -0.000486576 -1.45247e-18)
(0.463984 0.190568 -7.26066e-20)
(1.04435 0.412397 3.06355e-20)
(1.2848 0.52479 -3.7359e-20)
(1.3405 0.550678 8.36713e-20)
(1.3211 0.559499 1.20702e-20)
(1.26704 0.549378 -1.48914e-19)
(1.19787 0.531457 -9.07556e-20)
(1.13013 0.511092 -8.92871e-20)
(1.06072 0.486298 -1.66531e-19)
(0.991734 0.455652 2.67961e-19)
(0.931411 0.420364 2.91278e-19)
(0.890353 0.389265 5.66269e-19)
(0.860712 0.361534 0)
(0.822154 0.333466 6.50669e-21)
(0.758489 0.293691 -8.48022e-19)
(0.626856 0.237125 1.98635e-19)
(0.431009 0.158315 9.58186e-19)
(0.236451 0.0854012 -2.82777e-19)
(0.088358 0.0317261 5.87272e-19)
(0.00569828 0.00188953 -4.89489e-20)
(0.453525 0.208358 5.83505e-21)
(1.03167 0.454366 5.08822e-20)
(1.27509 0.57931 -1.38876e-20)
(1.33123 0.607186 8.8331e-20)
(1.31044 0.615157 -1.51718e-19)
(1.25523 0.601824 1.4763e-19)
(1.1848 0.58088 9.39223e-20)
(1.11562 0.557364 2.66585e-19)
(1.04406 0.52904 3.3411e-19)
(0.972216 0.494197 -3.09898e-19)
(0.910531 0.455225 0)
(0.865297 0.420825 -2.14409e-19)
(0.833309 0.390198 2.46166e-19)
(0.805166 0.362584 3.11025e-19)
(0.737515 0.325381 -1.79915e-19)
(0.609874 0.257758 -4.3843e-19)
(0.424881 0.17706 -1.30747e-19)
(0.240906 0.0990278 -1.88371e-21)
(0.0962614 0.0395902 0)
(0.0103892 0.00423273 0)
(0.445495 0.224529 -7.65587e-20)
(1.02032 0.495184 0)
(1.26423 0.631389 9.50572e-22)
(1.31976 0.6608 -1.33321e-20)
(1.29777 0.668303 1.73131e-19)
(1.24179 0.652238 -4.38175e-20)
(1.17035 0.628439 9.54293e-20)
(1.09962 0.601769 -1.80313e-19)
(1.02615 0.57052 2.53441e-19)
(0.952231 0.532597 -1.02065e-19)
(0.887363 0.490185 1.66986e-19)
(0.841576 0.451852 6.80281e-19)
(0.810472 0.420534 1.43435e-20)
(0.771576 0.38844 -3.24431e-19)
(0.710967 0.344417 6.01311e-19)
(0.590779 0.282022 3.89358e-21)
(0.417182 0.19438 1.3988e-19)
(0.241312 0.111959 -6.66988e-19)
(0.100359 0.0462924 6.87505e-19)
(0.0135835 0.00625394 -8.0998e-19)
(0.438394 0.24211 2.69147e-23)
(1.00779 0.532487 0)
(1.25179 0.679818 0)
(1.30707 0.711705 -1.07908e-21)
(1.28413 0.718352 -5.08986e-20)
(1.22735 0.69962 6.88768e-20)
(1.15501 0.673442 -1.77313e-19)
(1.0833 0.644347 0)
(1.00833 0.610338 -3.73835e-19)
(0.932025 0.569065 4.49034e-19)
(0.865201 0.523633 4.76666e-19)
(0.81667 0.482326 -2.49768e-19)
(0.783185 0.447127 -3.02519e-19)
(0.754492 0.414418 7.09531e-19)
(0.68975 0.37344 -2.13728e-19)
(0.57188 0.298643 -2.55032e-19)
(0.40526 0.210115 -1.52586e-19)
(0.237686 0.121929 -7.2025e-19)
(0.100509 0.0516483 1.05606e-19)
(0.0152064 0.00753435 8.76181e-19)
(0.434065 0.260125 -3.77492e-20)
(0.99761 0.569469 -5.00606e-20)
(1.23914 0.726014 2.36333e-20)
(1.29329 0.75957 -1.97292e-22)
(1.26944 0.765777 -5.35838e-20)
(1.21204 0.744896 1.10585e-19)
(1.13906 0.716476 0)
(1.0664 0.684859 1.09121e-19)
(0.990028 0.648607 -8.60427e-20)
(0.912048 0.604819 7.49266e-19)
(0.842031 0.555776 -1.08144e-19)
(0.793426 0.510056 1.23741e-19)
(0.760494 0.474782 0)
(0.720741 0.43827 -3.84282e-19)
(0.662572 0.387221 4.65801e-19)
(0.550993 0.318846 0)
(0.393558 0.223228 -3.28675e-19)
(0.231736 0.130873 9.67102e-19)
(0.0980617 0.0550543 1.14622e-19)
(0.0153315 0.00834536 -1.07877e-18)
(0.431254 0.277129 -9.52006e-20)
(0.986756 0.603049 1.21849e-19)
(1.22568 0.768772 0)
(1.27913 0.804753 1.72169e-20)
(1.25456 0.810309 0)
(1.19664 0.78727 -1.43903e-19)
(1.12319 0.756915 0)
(1.04994 0.723461 0)
(0.972223 0.685111 -1.14137e-19)
(0.891648 0.63884 -7.12294e-19)
(0.819376 0.587303 -8.81085e-19)
(0.76751 0.539827 1.4488e-19)
(0.73172 0.498928 5.23056e-19)
(0.703211 0.459379 4.23488e-19)
(0.640668 0.412617 -1.49459e-18)
(0.530792 0.329171 -5.9878e-19)
(0.378386 0.23404 3.50853e-19)
(0.222977 0.136709 0)
(0.0940825 0.0567556 9.81812e-19)
(0.014456 0.00868624 -1.16197e-18)
(0.429643 0.292757 1.13775e-19)
(0.977904 0.636417 -1.41618e-19)
(1.2127 0.809623 0)
(1.26468 0.847001 -1.11836e-20)
(1.23938 0.852216 -1.18119e-21)
(1.18105 0.827555 0)
(1.10723 0.795499 5.46375e-20)
(1.03319 0.760074 7.58132e-20)
(0.954098 0.720087 -2.14511e-19)
(0.872166 0.67208 9.43238e-20)
(0.797338 0.617417 0)
(0.743905 0.565976 6.0009e-19)
(0.708717 0.524085 5.51113e-21)
(0.668429 0.480144 2.28495e-19)
(0.613036 0.41981 2.71338e-19)
(0.509199 0.344259 0)
(0.36447 0.241149 -5.72256e-19)
(0.21324 0.140205 1.12159e-18)
(0.0889502 0.0573011 -1.18762e-18)
(0.0131723 0.00854235 2.5022e-18)
(0.428285 0.307727 0)
(0.96816 0.666511 0)
(1.1995 0.847137 -6.93132e-20)
(1.25041 0.886776 0)
(1.2245 0.891544 0)
(1.1658 0.865185 -1.17747e-19)
(1.09173 0.831599 5.58924e-20)
(1.01725 0.794821 1.77204e-20)
(0.937078 0.753286 -4.89656e-20)
(0.852655 0.703458 0)
(0.774728 0.647038 -1.34307e-19)
(0.71752 0.594116 -4.89527e-19)
(0.678597 0.545259 -5.89874e-19)
(0.649172 0.495741 -2.37365e-19)
(0.590067 0.440046 2.93836e-19)
(0.488059 0.347356 -6.92428e-19)
(0.348183 0.245624 1.23154e-18)
(0.203516 0.140941 1.86097e-21)
(0.0839092 0.0569747 -1.13609e-18)
(0.011971 0.00831555 -1.68734e-19)
(0.427287 0.322191 0)
(0.960389 0.696943 -1.15422e-19)
(1.18715 0.883158 8.47066e-20)
(1.23629 0.923878 0)
(1.20973 0.928349 0)
(1.15072 0.900781 2.35342e-19)
(1.07644 0.86597 0)
(1.00136 0.827715 0)
(0.919947 0.785095 -4.70519e-19)
(0.833896 0.734316 1.3064e-19)
(0.753339 0.6757 -1.19072e-18)
(0.694158 0.618695 0)
(0.654241 0.567958 -6.41105e-19)
(0.612485 0.513296 1.05237e-20)
(0.560234 0.438948 -9.45067e-19)
(0.46577 0.355092 3.72473e-19)
(0.335084 0.244909 1.36972e-21)
(0.195661 0.138421 -1.28972e-18)
(0.0804165 0.0551565 6.11305e-19)
(0.00984492 0.00658466 1.80489e-19)
(0.426232 0.336391 0)
(0.951824 0.724181 -1.59123e-19)
(1.17475 0.916085 8.94054e-20)
(1.2226 0.958791 1.19064e-19)
(1.19547 0.962927 -9.87911e-21)
(1.13619 0.93401 2.34584e-20)
(1.06182 0.898013 -3.27729e-20)
(0.986477 0.858816 4.48839e-19)
(0.904035 0.815102 5.03321e-19)
(0.815456 0.762968 9.94705e-19)
(0.731853 0.703363 9.89332e-19)
(0.667789 0.645405 1.74053e-19)
(0.622543 0.587374 9.22339e-19)
(0.590372 0.523927 5.70269e-19)
(0.534382 0.453753 6.78354e-19)
(0.443931 0.347354 -4.07607e-19)
(0.319191 0.238164 -4.71797e-19)
(0.192302 0.132505 5.53387e-19)
(0.0840769 0.0596891 -3.28624e-19)
(0.0154434 0.0142535 5.84495e-19)
(0.425456 0.350104 2.23666e-19)
(0.945134 0.751917 2.4926e-19)
(1.16326 0.947942 5.18175e-20)
(1.20923 0.991315 1.58567e-20)
(1.18153 0.99512 -1.94716e-21)
(1.12206 0.965298 -6.51444e-20)
(1.04763 0.928469 3.14539e-20)
(0.971785 0.888219 -1.96986e-20)
(0.88816 0.843838 -5.85889e-19)
(0.798175 0.791539 -1.07963e-18)
(0.711883 0.731457 6.86793e-20)
(0.644692 0.669603 0)
(0.597246 0.609247 0)
(0.549875 0.540381 -2.97386e-19)
(0.499179 0.444111 -1.11096e-18)
(0.419055 0.344166 8.78175e-19)
(0.313866 0.219083 5.16048e-19)
(0.201233 0.113252 0)
(0.0993725 0.0323096 1.05195e-18)
(0.00932149 -0.0115143 -6.23619e-19)
(0.424574 0.363335 -1.18638e-19)
(0.93752 0.776262 1.04906e-19)
(1.1517 0.976836 -1.2445e-19)
(1.1964 1.0219 -1.02142e-19)
(1.16823 1.02543 -1.65672e-20)
(1.10859 0.994522 -2.08215e-20)
(1.03421 0.956793 0)
(0.958209 0.915936 -5.6412e-19)
(0.87375 0.870851 7.13976e-20)
(0.781512 0.817744 0)
(0.691929 0.757195 0)
(0.619085 0.695072 1.11295e-19)
(0.563407 0.628608 1.49773e-19)
(0.523338 0.547949 -3.21391e-19)
(0.466721 0.456253 7.97461e-19)
(0.388592 0.321131 -9.57e-19)
(0.291547 0.194925 -1.10555e-18)
(0.216146 0.0977389 9.79498e-19)
(0.161651 0.0793249 -3.74123e-19)
(0.112331 0.0778953 2.17671e-19)
(0.423866 0.375722 1.48486e-19)
(0.931568 0.801217 0)
(1.14104 1.00497 0)
(1.18396 1.05033 -2.82914e-20)
(1.15534 1.05348 2.29042e-20)
(1.09564 1.0219 -2.03094e-20)
(1.02133 0.983657 1.41437e-19)
(0.944946 0.942112 5.77276e-19)
(0.859481 0.896705 1.06305e-18)
(0.766053 0.843962 -8.13809e-20)
(0.673766 0.784246 1.684e-19)
(0.597333 0.72012 -9.95613e-19)
(0.538351 0.651795 -9.93826e-19)
(0.477591 0.567382 -1.72652e-19)
(0.417571 0.441056 0)
(0.349675 0.315427 -5.80885e-21)
(0.269568 0.123977 6.09757e-19)
(0.252318 -0.00461925 -1.02489e-18)
(0.217298 -0.0989707 7.78978e-19)
(0.086808 -0.0975519 6.45134e-19)
(0.422842 0.387788 -3.2793e-19)
(0.924487 0.822697 -1.47863e-19)
(1.13022 1.03032 6.94255e-21)
(1.172 1.07725 5.83556e-20)
(1.14298 1.08027 0)
(1.08317 1.04788 -6.12268e-20)
(1.00894 1.00904 -2.04271e-19)
(0.932486 0.967266 -2.0091e-21)
(0.846382 0.921626 -5.5696e-19)
(0.75083 0.868632 -7.98827e-20)
(0.655123 0.809101 7.41978e-20)
(0.572606 0.746188 8.74712e-19)
(0.501454 0.673718 9.69639e-19)
(0.445362 0.575471 1.6836e-19)
(0.377067 0.461876 8.601e-19)
(0.283377 0.282302 0)
(0.159369 0.108669 0)
(-0.0038009 0.190526 7.03025e-19)
(-0.0783978 0.630101 -2.84537e-20)
(0.00836237 1.54043 -8.69037e-19)
(0.422085 0.399097 1.81134e-19)
(0.919088 0.845314 4.15672e-19)
(1.12028 1.05552 -5.72032e-19)
(1.16033 1.10262 2.88549e-19)
(1.13086 1.10541 -8.74815e-21)
(1.07096 1.07274 -1.29303e-20)
(0.996823 1.03389 0)
(0.919998 0.992011 -4.80845e-19)
(0.83295 0.946706 0)
(0.736327 0.894879 1.12388e-18)
(0.637877 0.83745 -9.05777e-20)
(0.551 0.774869 1.01564e-19)
(0.477135 0.703469 1.11293e-18)
(0.39113 0.609955 -3.6557e-19)
(0.285273 0.451087 -4.3714e-19)
(0.190256 0.33514 0)
(0.0812059 0.482287 0)
(0.0252282 1.34526 0)
(0.0717709 2.46795 -3.99175e-19)
(0.0987561 2.91298 -2.46135e-19)
(0.420709 0.409897 0)
(0.912433 0.864218 0)
(1.11012 1.07795 2.08556e-19)
(1.14917 1.12672 -2.34551e-19)
(1.11927 1.12969 1.0597e-19)
(1.05927 1.09659 2.07856e-20)
(0.985184 1.05756 2.65274e-20)
(0.908343 1.01598 -2.06535e-20)
(0.820855 0.971155 7.87542e-20)
(0.722189 0.91998 -1.28983e-18)
(0.619964 0.86363 1.6405e-19)
(0.526999 0.804368 8.76113e-19)
(0.436873 0.732631 -1.10845e-18)
(0.355043 0.620752 -1.22112e-18)
(0.266002 0.510035 4.10598e-19)
(0.185354 0.649623 0)
(0.117776 1.57219 5.64069e-19)
(0.12072 2.69713 6.13927e-19)
(0.12855 3.08923 -6.86148e-19)
(0.120732 3.22281 7.3391e-19)
(0.419691 0.420428 0)
(0.907538 0.884575 3.66491e-19)
(1.10092 1.10051 -5.22792e-20)
(1.13835 1.14936 3.27556e-19)
(1.10802 1.15224 -1.11233e-19)
(1.04794 1.11919 0)
(0.973979 1.08056 0)
(0.896849 1.03938 0)
(0.808543 0.9955 4.42191e-19)
(0.709094 0.946271 5.94005e-20)
(0.604803 0.893036 0)
(0.507426 0.835713 -8.70967e-19)
(0.420666 0.767805 0)
(0.302162 0.667943 8.73649e-19)
(0.202627 0.724218 -5.90529e-19)
(0.149882 1.46393 -4.7425e-19)
(0.152966 2.68431 -1.10061e-18)
(0.175592 3.12648 -5.79421e-19)
(0.166351 3.26635 -7.83203e-19)
(0.152919 3.30657 5.80605e-19)
(0.418156 0.429913 -1.27948e-19)
(0.901251 0.900937 1.51711e-20)
(1.09145 1.12022 -5.81339e-20)
(1.12807 1.17088 -2.53454e-19)
(1.09732 1.17422 0)
(1.03715 1.14105 0)
(0.963245 1.10253 0)
(0.886168 1.06203 3.37167e-20)
(0.797653 1.01916 -5.5911e-19)
(0.696492 0.971409 0)
(0.588753 0.920317 0)
(0.487802 0.867914 0)
(0.377415 0.797221 0)
(0.307878 0.759868 6.39675e-19)
(0.268605 1.15233 1.57185e-18)
(0.243438 2.39255 4.63573e-19)
(0.258828 3.08247 9.31222e-19)
(0.253451 3.28093 -7.13638e-19)
(0.204946 3.34645 2.62528e-19)
(0.172858 3.35937 0)
(0.416973 0.439237 1.31657e-19)
(0.896674 0.919741 -8.13335e-19)
(1.08278 1.14104 -2.18855e-19)
(1.11789 1.19167 -4.8285e-20)
(1.08674 1.19501 2.58589e-20)
(1.02654 1.16211 -9.5391e-20)
(0.952816 1.12431 -1.97722e-21)
(0.875546 1.08454 -3.72774e-19)
(0.786365 1.04305 0)
(0.684896 0.997883 -7.56187e-20)
(0.576526 0.950684 6.87901e-20)
(0.471575 0.899574 0)
(0.379425 0.844144 0)
(0.320578 0.949268 -8.00974e-19)
(0.269557 1.85406 9.94418e-20)
(0.266021 2.94435 -3.48336e-19)
(0.289775 3.28462 7.28052e-19)
(0.261607 3.38289 5.25104e-19)
(0.196616 3.40735 -7.1224e-19)
(0.172055 3.41721 3.52343e-19)
(0.414941 0.448805 2.58481e-19)
(0.889796 0.93536 7.92582e-19)
(1.07287 1.16031 2.62997e-19)
(1.10741 1.21301 0)
(1.07591 1.21698 0)
(1.01573 1.18401 7.4197e-20)
(0.942156 1.14631 6.18276e-20)
(0.86513 1.1073 3.3218e-19)
(0.77615 1.06704 2.17672e-20)
(0.673581 1.02381 9.65284e-19)
(0.562655 0.979301 -1.14472e-18)
(0.451279 0.930417 0)
(0.37474 0.916405 0)
(0.333792 1.32053 -5.45853e-19)
(0.331989 2.49259 -6.56306e-19)
(0.375751 3.19635 0)
(0.400415 3.36589 -7.36329e-19)
(0.330107 3.4286 4.95763e-20)
(0.261344 3.47373 3.4336e-19)
(0.239072 3.49908 -1.12738e-19)
(0.413116 0.458692 -4.91555e-19)
(0.884498 0.956141 -3.80519e-19)
(1.06304 1.18303 0)
(1.09602 1.2352 0)
(1.06424 1.23893 0)
(1.0042 1.20611 0)
(0.931063 1.16912 -7.35569e-20)
(0.854132 1.13083 2.90326e-19)
(0.764829 1.092 0)
(0.662736 1.05153 -8.78785e-19)
(0.553142 1.01097 2.0533e-18)
(0.444202 0.972425 8.39843e-20)
(0.395153 1.04341 1.12602e-19)
(0.385705 1.74695 8.89559e-19)
(0.397776 2.90178 -4.78677e-19)
(0.436754 3.31699 0)
(0.420034 3.43915 2.06632e-19)
(0.334458 3.52783 9.13671e-20)
(0.259926 3.59161 1.48836e-19)
(0.18454 3.57107 -1.33704e-20)
(0.410119 0.469128 2.33726e-19)
(0.87576 0.972749 -3.88555e-19)
(1.05122 1.2039 0)
(1.0839 1.25845 -7.07399e-20)
(1.05187 1.26285 2.43436e-19)
(0.992049 1.22972 0)
(0.919299 1.1925 0)
(0.842971 1.15476 -5.03416e-19)
(0.754494 1.11705 -5.61623e-20)
(0.65224 1.07852 8.61227e-19)
(0.537676 1.04009 -9.75638e-19)
(0.446964 1.01914 5.71107e-19)
(0.408456 1.2238 0)
(0.420409 2.18711 -4.71627e-19)
(0.463523 3.14454 3.09405e-19)
(0.527687 3.41969 1.94197e-19)
(0.51912 3.51543 0)
(0.456571 3.5968 -3.71329e-20)
(0.387207 3.63711 -4.10337e-19)
(0.306757 3.60893 -9.63587e-20)
(0.407362 0.479711 -4.65522e-19)
(0.869189 0.996515 5.56381e-19)