/*--------------------------------*- C++ -*----------------------------------*\
  =========                 |
  \\      /  F ield         | OpenFOAM: The Open Source CFD Toolbox
   \\    /   O peration     | Website:  https://openfoam.org
    \\  /    A nd           | Version:  10
     \\/     M anipulation  |
\*---------------------------------------------------------------------------*/
FoamFile
{
    format      ascii;
    class       volScalarField;
    location    "71";
    object      p;
}
// * * * * * * * * * * * * * * * * * * * * * * * * * * * * * * * * * * * * * //

dimensions      [0 2 -2 0 0 0 0];

internalField   nonuniform List<scalar> 
8800
(
0.82889
0.781105
0.742419
0.713428
0.692571
0.677751
0.667171
0.659714
0.654928
0.652916
0.654233
0.658465
0.66514
0.674479
0.687275
0.70502
0.729804
0.76375
0.806304
0.865006
0.660132
0.667811
0.675292
0.678603
0.677105
0.672037
0.665563
0.659507
0.654813
0.65201
0.651781
0.654335
0.658861
0.664834
0.671622
0.677916
0.681565
0.680833
0.675421
0.666735
0.638524
0.644685
0.648815
0.651766
0.653823
0.65444
0.653351
0.651272
0.649293
0.648436
0.649453
0.65188
0.654714
0.65692
0.657545
0.656359
0.654027
0.650641
0.646085
0.642325
0.632695
0.635347
0.638103
0.640513
0.642157
0.643332
0.644093
0.644239
0.643985
0.643991
0.644804
0.646025
0.646903
0.646996
0.646408
0.645332
0.643527
0.640964
0.638566
0.637062
0.627289
0.628715
0.630499
0.632538
0.634333
0.63569
0.636701
0.637531
0.638193
0.63882
0.639541
0.640095
0.640239
0.639984
0.639312
0.638081
0.636399
0.634561
0.633259
0.632427
0.62218
0.623101
0.624348
0.625923
0.627568
0.62911
0.630421
0.631526
0.632544
0.633511
0.634281
0.634676
0.634686
0.634286
0.633435
0.632257
0.630947
0.629699
0.628882
0.62833
0.617233
0.617903
0.618871
0.620183
0.621606
0.623084
0.624553
0.625919
0.627179
0.628372
0.629288
0.629737
0.629715
0.629253
0.628483
0.627563
0.626572
0.625663
0.625083
0.624677
0.612399
0.612916
0.613705
0.614847
0.61614
0.617537
0.619017
0.620538
0.622038
0.623474
0.624592
0.625159
0.625208
0.624881
0.624322
0.623631
0.622884
0.622217
0.62179
0.621472
0.607606
0.608017
0.608679
0.609698
0.610922
0.612276
0.61376
0.615372
0.617076
0.618789
0.620167
0.620939
0.621193
0.621095
0.620765
0.620291
0.619753
0.619282
0.618966
0.618707
0.602766
0.6031
0.603674
0.604615
0.605793
0.607136
0.608661
0.61038
0.612282
0.614298
0.616011
0.617093
0.617638
0.617803
0.617713
0.61747
0.617132
0.616824
0.616593
0.616375
0.597789
0.598066
0.598579
0.599476
0.600639
0.602011
0.603615
0.605482
0.607625
0.609993
0.612128
0.613609
0.614502
0.61497
0.615143
0.615134
0.614997
0.614833
0.61467
0.614481
0.592583
0.592816
0.59329
0.594173
0.595361
0.596805
0.598533
0.600603
0.603053
0.605859
0.608509
0.610469
0.611769
0.612586
0.613055
0.613287
0.613356
0.613326
0.61322
0.613051
0.587055
0.587252
0.587708
0.588606
0.589861
0.591422
0.593328
0.595671
0.598511
0.601862
0.605136
0.607666
0.609446
0.610661
0.611463
0.611961
0.61225
0.612346
0.612287
0.612131
0.5811
0.581268
0.581722
0.582665
0.584028
0.585758
0.587909
0.590603
0.593937
0.597961
0.601992
0.605203
0.607548
0.609225
0.610408
0.611222
0.611733
0.611953
0.611935
0.611786
0.574595
0.57474
0.575206
0.576224
0.577741
0.579699
0.582173
0.585316
0.589269
0.594117
0.599062
0.603087
0.606103
0.608324
0.609944
0.611108
0.611872
0.612219
0.612239
0.612093
0.567399
0.567519
0.568014
0.569136
0.570859
0.573115
0.576002
0.579712
0.584433
0.590288
0.596336
0.601331
0.605139
0.608004
0.610139
0.611703
0.612754
0.613235
0.613288
0.613142
0.55932
0.559428
0.559963
0.561223
0.56321
0.565843
0.569256
0.573679
0.579348
0.58643
0.593804
0.599954
0.604698
0.608317
0.611073
0.613109
0.614478
0.615098
0.615183
0.615031
0.550131
0.55023
0.550824
0.552248
0.554569
0.557692
0.56177
0.567084
0.573924
0.582501
0.591464
0.598983
0.604831
0.609338
0.612826
0.615414
0.617143
0.61791
0.618023
0.617863
0.53951
0.539589
0.540272
0.541922
0.544681
0.54843
0.553346
0.559776
0.568067
0.578461
0.589322
0.598451
0.605596
0.611149
0.615472
0.618716
0.620849
0.621767
0.621903
0.62173
0.527073
0.527139
0.527922
0.529884
0.533201
0.537751
0.543738
0.55158
0.561674
0.574275
0.587389
0.598401
0.607045
0.613816
0.619116
0.62311
0.625679
0.626747
0.626898
0.62671
0.512251
0.512306
0.513233
0.515612
0.51967
0.525273
0.532654
0.542303
0.554649
0.569927
0.585694
0.598884
0.609238
0.6174
0.623828
0.62866
0.631687
0.632891
0.633046
0.632839
0.494261
0.494304
0.495446
0.498413
0.503485
0.510513
0.51975
0.531748
0.546922
0.565432
0.584287
0.599952
0.61224
0.621963
0.629627
0.635393
0.638871
0.640179
0.640322
0.640094
0.471921
0.471962
0.473454
0.477309
0.483844
0.492877
0.504657
0.519753
0.538484
0.560863
0.583261
0.601679
0.616093
0.627536
0.636542
0.643273
0.647149
0.648507
0.648618
0.64837
0.443449
0.443512
0.445601
0.450888
0.459704
0.471683
0.487052
0.506263
0.529435
0.556376
0.582751
0.604155
0.620834
0.634099
0.644541
0.652184
0.65634
0.657664
0.657722
0.657457
0.40576
0.405928
0.409245
0.417178
0.429842
0.446336
0.466822
0.491436
0.520038
0.552225
0.582937
0.607479
0.626503
0.641624
0.653507
0.661904
0.666143
0.667327
0.667311
0.667037
0.352934
0.353943
0.36055
0.373933
0.393292
0.416777
0.444324
0.475769
0.510765
0.548763
0.584026
0.611744
0.633106
0.650035
0.663222
0.672089
0.676144
0.677087
0.676993
0.676719
0.275899
0.283346
0.298645
0.322255
0.351584
0.384431
0.420607
0.459905
0.501975
0.546242
0.586342
0.61742
0.641269
0.66012
0.674492
0.683577
0.687278
0.687969
0.687827
0.68759
0.193144
0.21074
0.235524
0.269976
0.30968
0.352013
0.396855
0.444159
0.493638
0.544768
0.590492
0.62559
0.652346
0.673369
0.688976
0.697763
0.700696
0.701097
0.700981
0.700818
0.124129
0.144863
0.17747
0.22113
0.269974
0.321236
0.374476
0.42962
0.486349
0.544112
0.595138
0.633911
0.663201
0.685914
0.701894
0.709992
0.712395
0.712734
0.712674
0.712548
0.0675988
0.090008
0.128197
0.178363
0.234424
0.293197
0.353867
0.416206
0.479741
0.543805
0.599831
0.642025
0.673572
0.697542
0.713804
0.721575
0.723741
0.72406
0.724039
0.723943
0.0205711
0.0441666
0.0861812
0.141506
0.203367
0.268346
0.33539
0.404123
0.473896
0.543869
0.604652
0.650076
0.683769
0.709067
0.725782
0.733328
0.73541
0.735755
0.735767
0.735695
-0.0192293
0.0050153
0.0499253
0.109325
0.176066
0.246327
0.31892
0.393354
0.468832
0.544339
0.609674
0.658257
0.694095
0.72072
0.737948
0.745658
0.747794
0.748097
0.748135
0.748081
-0.0538539
-0.0291996
0.0179817
0.0807521
0.151622
0.226486
0.304009
0.383601
0.464351
0.545089
0.614812
0.666497
0.704467
0.732464
0.750419
0.758538
0.760702
0.761012
0.761045
0.761006
-0.0848223
-0.059819
-0.0107894
0.0548554
0.129295
0.208203
0.290159
0.37448
0.46016
0.545885
0.619867
0.674603
0.71472
0.744119
0.762928
0.771416
0.773739
0.774043
0.774069
0.774046
-0.11313
-0.0878216
-0.0372168
0.0309167
0.108494
0.190999
0.27696
0.365634
0.455951
0.546468
0.624624
0.682387
0.724616
0.755428
0.775004
0.78392
0.786422
0.786755
0.786763
0.786749
-0.139602
-0.113949
-0.0619364
0.00838113
0.0887662
0.174492
0.264084
0.35678
0.451474
0.546631
0.628908
0.689665
0.73396
0.766134
0.786468
0.795764
0.798427
0.798783
0.79876
0.798742
-0.164634
-0.138636
-0.0852962
-0.0131299
0.0697771
0.158398
0.251292
0.347713
0.44655
0.546212
0.632586
0.696336
0.742667
0.776109
0.797096
0.806683
0.809458
0.809811
0.809762
0.80973
-0.188692
-0.162271
-0.107925
-0.033859
0.0512877
0.142515
0.238421
0.338283
0.441026
0.545068
0.635557
0.702353
0.7507
0.785325
0.806799
0.816556
0.819381
0.819717
0.81964
0.819585
-0.211918
-0.185031
-0.129737
-0.0539956
0.0331474
0.12672
0.225356
0.328388
0.434804
0.543109
0.637758
0.707701
0.758096
0.793787
0.815596
0.825405
0.828162
0.828479
0.828367
0.828297
-0.234469
-0.207179
-0.15085
-0.0736605
0.0152763
0.110944
0.212037
0.317966
0.427823
0.54025
0.639115
0.71238
0.764938
0.801658
0.823629
0.833265
0.835935
0.836181
0.83605
0.835966
-0.256479
-0.228705
-0.171403
-0.0929105
-0.00237737
0.0951591
0.198455
0.307011
0.420048
0.536427
0.639563
0.716392
0.771349
0.809114
0.831051
0.840327
0.842762
0.842932
0.842776
0.842681
-0.278021
-0.249656
-0.191471
-0.11176
-0.0198048
0.0793721
0.184627
0.295533
0.411474
0.531589
0.63903
0.719717
0.777425
0.81638
0.838118
0.846746
0.848778
0.848826
0.848648
0.848546
-0.298954
-0.270031
-0.210995
-0.130201
-0.0369935
0.0636277
0.170592
0.283582
0.402137
0.525733
0.637429
0.722297
0.78322
0.823706
0.845177
0.852783
0.854109
0.853953
0.853788
0.853684
-0.319266
-0.289806
-0.229973
-0.148201
-0.053904
0.0479686
0.156424
0.271221
0.392091
0.51886
0.634693
0.724015
0.788715
0.831307
0.852732
0.858999
0.85907
0.858425
0.858257
0.858232
-0.33903
-0.30896
-0.248398
-0.165742
-0.0704847
0.0324657
0.142195
0.258535
0.381411
0.51101
0.630748
0.72471
0.793773
0.839242
0.861324
0.866384
0.864519
0.862662
0.862378
0.8627
-0.358093
-0.327481
-0.266221
-0.182777
-0.0866859
0.0171928
0.127991
0.245624
0.370197
0.502259
0.625556
0.724181
0.798133
0.847275
0.871181
0.876183
0.87257
0.868367
0.866652
0.866781
-0.376547
-0.345368
-0.283467
-0.199342
-0.102544
0.00210605
0.113757
0.232435
0.358387
0.492538
0.61898
0.72215
0.801515
0.854993
0.881932
0.888938
0.885613
0.878271
0.870916
0.857652
-0.394329
-0.362607
-0.30025
-0.215636
-0.118336
-0.0131136
0.0990944
0.218509
0.345477
0.481253
0.610431
0.717917
0.803483
0.861894
0.892242
0.903118
0.900461
0.886546
0.865444
0.855555
-0.411275
-0.379361
-0.316387
-0.231471
-0.133708
-0.0281297
0.0842189
0.204157
0.33175
0.468626
0.599901
0.710903
0.80304
0.866719
0.898084
0.909093
0.907809
0.88205
0.81504
0.785259
-0.426729
-0.39691
-0.331581
-0.246374
-0.147856
-0.0424401
0.0694503
0.189605
0.317419
0.454766
0.58728
0.700704
0.798534
0.8686
0.89395
0.899912
0.88386
0.826871
0.757432
0.714988
-0.481213
-0.412366
-0.345297
-0.261476
-0.16246
-0.0575495
0.0547129
0.174557
0.302091
0.439176
0.571893
0.686516
0.785821
0.862985
0.862829
0.860521
0.804481
0.73055
0.652658
0.60933
-0.442883
-0.426956
-0.365749
-0.280818
-0.184073
-0.0791874
0.0320539
0.151304
0.277957
0.413851
0.545037
0.658647
0.751292
0.834455
0.815233
0.69463
0.585033
0.508829
0.433803
0.462192
-0.472981
-0.444
-0.38193
-0.29785
-0.201156
-0.0963867
0.0151482
0.133786
0.259416
0.393602
0.522149
0.63163
0.714425
0.758387
0.705257
0.549631
0.41761
0.323393
0.223248
0.271251
-0.49614
-0.464248
-0.401086
-0.316889
-0.220078
-0.11542
-0.0039621
0.113852
0.238103
0.369927
0.4948
0.597997
0.671623
0.680537
0.568481
0.391047
0.234871
0.113421
-0.0192075
0.0125026
-0.518734
-0.485378
-0.421113
-0.336024
-0.239149
-0.134655
-0.0237328
0.0931148
0.215775
0.344819
0.464987
0.560021
0.617834
0.594943
0.43097
0.230903
0.0380238
-0.131735
-0.321207
-0.341253
-0.540724
-0.506965
-0.441863
-0.356034
-0.259047
-0.154798
-0.0445481
0.0711952
0.191983
0.317807
0.432474
0.519123
0.556973
0.496609
0.299857
0.0861358
-0.133097
-0.323593
-0.566014
-0.861591
-0.563001
-0.529265
-0.463673
-0.377402
-0.280264
-0.176216
-0.066576
0.0480127
0.166796
0.289087
0.39784
0.47591
0.491586
0.379385
0.185551
-0.0273248
-0.233589
-0.407115
-0.477643
-0.555782
-0.586506
-0.552739
-0.486888
-0.400439
-0.30329
-0.199544
-0.0906157
0.0226313
0.139069
0.257254
0.359632
0.426331
0.416363
0.270289
0.0837127
-0.110094
-0.275147
-0.369425
-0.393794
-0.409582
-0.611543
-0.577681
-0.511678
-0.42522
-0.328253
-0.22499
-0.117025
-0.00543621
0.108216
0.221608
0.317115
0.368997
0.340988
0.168783
-0.00874131
-0.17734
-0.305945
-0.345709
-0.358501
-0.3598
-0.638313
-0.604262
-0.538108
-0.45174
-0.355104
-0.252561
-0.145824
-0.0362415
0.0741686
0.182168
0.269822
0.306936
0.258129
0.0749925
-0.0934268
-0.244404
-0.321894
-0.338986
-0.340387
-0.340209
-0.666872
-0.632544
-0.566207
-0.480001
-0.383862
-0.282247
-0.177018
-0.0698003
0.0369387
0.13901
0.217874
0.242805
0.157279
-0.0106577
-0.170638
-0.295022
-0.332163
-0.33057
-0.329696
-0.329122
-0.696939
-0.66236
-0.595875
-0.509921
-0.414443
-0.313998
-0.21058
-0.106087
-0.00343316
0.0922526
0.162211
0.169845
0.0658056
-0.0899886
-0.231816
-0.309402
-0.319622
-0.322201
-0.322853
-0.322583
-0.727968
-0.693249
-0.626859
-0.541277
-0.446667
-0.347661
-0.24636
-0.144971
-0.046759
0.0422607
0.103313
0.0957343
-0.0160524
-0.157203
-0.276734
-0.308688
-0.317132
-0.318457
-0.318153
-0.317836
-0.759501
-0.724681
-0.658705
-0.573682
-0.480195
-0.382922
-0.284083
-0.186164
-0.0927485
-0.0102641
0.0403044
0.0256658
-0.0907052
-0.211781
-0.307083
-0.325044
-0.315779
-0.31457
-0.314431
-0.314168
-0.790641
-0.755954
-0.690576
-0.606538
-0.514494
-0.419315
-0.323306
-0.229192
-0.140927
-0.0646651
-0.0239932
-0.0382359
-0.155327
-0.252831
-0.309539
-0.3182
-0.314597
-0.31297
-0.312256
-0.311968
-0.81987
-0.785898
-0.7215
-0.638937
-0.54881
-0.456153
-0.363385
-0.273379
-0.19049
-0.120343
-0.083172
-0.108181
-0.205867
-0.288678
-0.295844
-0.311716
-0.314074
-0.311786
-0.310959
-0.310463
-0.845575
-0.812664
-0.750363
-0.669727
-0.582122
-0.492516
-0.403468
-0.317881
-0.240322
-0.176438
-0.139137
-0.175354
-0.247567
-0.301489
-0.32628
-0.318632
-0.316309
-0.315682
-0.315232
-0.314719
-0.865651
-0.834472
-0.775046
-0.697515
-0.613162
-0.52729
-0.442491
-0.361684
-0.289318
-0.231618
-0.196454
-0.229872
-0.279451
-0.320539
-0.351941
-0.333
-0.326101
-0.325784
-0.32509
-0.324615
-0.877896
-0.849417
-0.793792
-0.720398
-0.640458
-0.559175
-0.479275
-0.403611
-0.336434
-0.284309
-0.251808
-0.276454
-0.302071
-0.324624
-0.318893
-0.326462
-0.330736
-0.331505
-0.331451
-0.331756
-0.879723
-0.855271
-0.804605
-0.736622
-0.662339
-0.586773
-0.512516
-0.442421
-0.380518
-0.333243
-0.29807
-0.318092
-0.333995
-0.351539
-0.344283
-0.339186
-0.335121
-0.333297
-0.332919
-0.33278
-0.868888
-0.84922
-0.805332
-0.744622
-0.677364
-0.608637
-0.5409
-0.476825
-0.42032
-0.377154
-0.337153
-0.34946
-0.358678
-0.413016
-0.388814
-0.353909
-0.339289
-0.335021
-0.333198
-0.332306
-0.843531
-0.828791
-0.794202
-0.743166
-0.684552
-0.623801
-0.563281
-0.505528
-0.454412
-0.414996
-0.369075
-0.348264
-0.31572
-0.315405
-0.308138
-0.311351
-0.318203
-0.321595
-0.322429
-0.322294
-0.806232
-0.796746
-0.772079
-0.732412
-0.683905
-0.63201
-0.579045
-0.527506
-0.481398
-0.445601
-0.410683
-0.35128
-0.249823
-0.156579
-0.199715
-0.263721
-0.304436
-0.322479
-0.32925
-0.33126
-0.763683
-0.758288
-0.743789
-0.715183
-0.677361
-0.634061
-0.588338
-0.54243
-0.500086
-0.466621
-0.437287
-0.396087
-0.359223
-0.3486
-0.403628
-0.429057
-0.418943
-0.414264
-0.416241
-0.418508
-0.725605
-0.72233
-0.715462
-0.696863
-0.667795
-0.631825
-0.592201
-0.550611
-0.509992
-0.477619
-0.45434
-0.468638
-0.553332
-0.649879
-0.623372
-0.55936
-0.542994
-0.545429
-0.54101
-0.542414
-0.698423
-0.696404
-0.69291
-0.681631
-0.659008
-0.628222
-0.592512
-0.552819
-0.511901
-0.473449
-0.450774
-0.448815
-0.530501
-0.66463
-0.859499
-0.959022
-0.983251
-0.929843
-0.812648
-0.77512
-0.677873
-0.677129
-0.675979
-0.670414
-0.653511
-0.625973
-0.591091
-0.551186
-0.506502
-0.45831
-0.424431
-0.391473
-0.398756
-0.452003
-0.537587
-0.591848
-0.58232
-0.546837
-0.443906
-0.406063
-0.665965
-0.665669
-0.665031
-0.662504
-0.650831
-0.625061
-0.589324
-0.547216
-0.497984
-0.443117
-0.393606
-0.351785
-0.253427
-0.0851117
0.0783467
0.23919
0.337864
0.385591
0.412039
0.423071
-0.658125
-0.657983
-0.657533
-0.656799
-0.649779
-0.625869
-0.588643
-0.542509
-0.488497
-0.423132
-0.354088
-0.283167
-0.101552
0.19792
0.507326
0.77591
0.902523
0.945391
0.94901
0.945038
-0.652804
-0.652873
-0.652986
-0.653605
-0.649098
-0.628211
-0.589437
-0.539147
-0.478188
-0.403829
-0.316326
-0.222807
-0.0210706
0.260518
0.531802
0.759319
0.905242
0.986058
1.0362
1.05678
-0.647806
-0.647804
-0.64762
-0.647056
-0.645804
-0.630711
-0.592044
-0.537684
-0.470728
-0.390019
-0.290324
-0.193086
0.00996597
0.292553
0.566617
0.802242
0.971861
1.08376
1.15441
1.1822
-0.644869
-0.644985
-0.644984
-0.644091
-0.643312
-0.6351
-0.59656
-0.538989
-0.469297
-0.38256
-0.28201
-0.182335
-0.0111108
0.265701
0.556498
0.817078
1.02887
1.16412
1.23211
1.25242
-0.644136
-0.645335
-0.648785
-0.655813
-0.662774
-0.647712
-0.603094
-0.545435
-0.475276
-0.386202
-0.288454
-0.192152
-0.0641293
0.200371
0.470785
0.706924
0.904706
1.02822
1.08347
1.09732
-0.649726
-0.651213
-0.652948
-0.652531
-0.653007
-0.637651
-0.604819
-0.557608
-0.487735
-0.396984
-0.303909
-0.211936
-0.108698
0.0973162
0.327063
0.520824
0.675972
0.768108
0.807266
0.815816
-0.684113
-0.683801
-0.67241
-0.629598
-0.572785
-0.569156
-0.598876
-0.577225
-0.506487
-0.41368
-0.321585
-0.237299
-0.157751
-0.00572641
0.174851
0.322091
0.437608
0.502614
0.528576
0.532264
-0.740123
-0.737136
-0.729493
-0.699303
-0.670008
-0.660439
-0.673298
-0.621445
-0.532396
-0.430836
-0.340829
-0.267176
-0.207024
-0.09366
0.040098
0.148843
0.231685
0.275336
0.292481
0.293631
-0.858587
-0.871697
-0.917075
-0.972688
-0.987803
-0.950332
-0.85524
-0.702819
-0.564752
-0.446126
-0.35589
-0.290578
-0.243822
-0.161422
-0.0664817
0.0127916
0.0663207
0.0953238
0.105048
0.105256
-1.00992
-1.03891
-1.09692
-1.14816
-1.16288
-1.11614
-0.971597
-0.759634
-0.58288
-0.450711
-0.36162
-0.305011
-0.266385
-0.206098
-0.144825
-0.0963144
-0.0638869
-0.0485398
-0.043394
-0.0442687
-1.02334
-1.04467
-1.08491
-1.12171
-1.13233
-1.0852
-0.931543
-0.727606
-0.558391
-0.433065
-0.352442
-0.302937
-0.268181
-0.230633
-0.196712
-0.174485
-0.163389
-0.160078
-0.159348
-0.159677
-0.82805
-0.849382
-0.88652
-0.925612
-0.940901
-0.89713
-0.759753
-0.610507
-0.483717
-0.38939
-0.327477
-0.288366
-0.259195
-0.23684
-0.224395
-0.2207
-0.2237
-0.227767
-0.228378
-0.228214
-0.486217
-0.501956
-0.532244
-0.56872
-0.593374
-0.579958
-0.521812
-0.448962
-0.382485
-0.329013
-0.292488
-0.269068
-0.250744
-0.239337
-0.233636
-0.236493
-0.24246
-0.246024
-0.245956
-0.245721
-0.148274
-0.157027
-0.177216
-0.210046
-0.247033
-0.274979
-0.288081
-0.287663
-0.277938
-0.262842
-0.252952
-0.249568
-0.247191
-0.236162
-0.228919
-0.22577
-0.227049
-0.226864
-0.226029
-0.226151
0.0677928
0.0630392
0.0486851
0.0199168
-0.0245302
-0.0771373
-0.125
-0.161995
-0.186107
-0.200228
-0.212479
-0.229234
-0.240323
-0.22564
-0.210203
-0.199697
-0.19382
-0.190514
-0.189755
-0.190484
0.155925
0.152892
0.142035
0.117629
0.0767244
0.0235665
-0.0315975
-0.0802347
-0.117797
-0.145725
-0.168781
-0.194165
-0.208292
-0.19344
-0.176822
-0.166223
-0.158774
-0.155579
-0.15547
-0.156449
0.168978
0.166858
0.158913
0.140458
0.108664
0.0659963
0.0183677
-0.0280124
-0.0679224
-0.0992892
-0.122496
-0.141715
-0.149109
-0.142388
-0.136537
-0.132357
-0.128962
-0.127783
-0.128194
-0.129149
0.150727
0.14937
0.143989
0.131173
0.10863
0.0773349
0.040113
0.00219378
-0.0322217
-0.0597742
-0.0766583
-0.0839222
-0.0845386
-0.088691
-0.0955435
-0.101423
-0.104735
-0.106858
-0.108043
-0.10885
0.12337
0.122612
0.119204
0.11079
0.0955647
0.0737376
0.0465961
0.0177959
-0.00903344
-0.0290159
-0.0362974
-0.0321123
-0.0272372
-0.0424079
-0.0606732
-0.0749184
-0.0844058
-0.0897801
-0.0918899
-0.0924478
0.0951631
0.0949061
0.0929138
0.0876839
0.0778503
0.0632471
0.0444657
0.0241825
0.00507692
-0.00778178
-0.00881093
0.000349222
0.00598058
-0.0128026
-0.0347377
-0.0521627
-0.064572
-0.0718577
-0.0744171
-0.0747198
0.0692343
0.0690908
0.0680291
0.0649512
0.0588832
0.0495964
0.0373224
0.0239522
0.0116328
0.00478456
0.00809044
0.0177506
0.0204635
0.00344532
-0.0160824
-0.0319499
-0.0432388
-0.05016
-0.0524166
-0.0525646
0.0455645
0.0455728
0.045086
0.043497
0.0401067
0.0346668
0.0273141
0.0192685
0.0122557
0.00976427
0.0157244
0.0258108
0.0278423
0.012652
-0.00272417
-0.0139921
-0.0214843
-0.0260056
-0.0276435
-0.0278508
0.0240116
0.0240997
0.0239781
0.0233793
0.0218934
0.0193622
0.015739
0.0117593
0.00847801
0.00826414
0.0150017
0.0259428
0.0282631
0.0150446
0.00492958
-0.00140816
-0.00514218
-0.00670054
-0.00766456
-0.00805567
0.00389421
0.00397694
0.00401661
0.00433983
0.00459237
0.00436295
0.00361377
0.00269162
0.00201461
0.00199478
0.00325082
0.00786281
0.0148895
0.0095166
0.00667132
0.00407895
0.00163794
-0.00013082
-0.000361848
-0.000400463
-0.0967703
0.0685269
0.261072
0.429035
0.562588
0.666944
0.752764
0.825907
0.859497
0.8363
0.201154
0.320519
0.448767
0.559302
0.652111
0.728601
0.790476
0.834468
0.856492
0.868726
0.416752
0.498481
0.586089
0.663242
0.729459
0.78482
0.828873
0.861116
0.884527
0.902617
0.575435
0.634028
0.694572
0.750936
0.799833
0.841386
0.875566
0.902891
0.925499
0.943863
0.699386
0.741925
0.787371
0.830635
0.86889
0.902329
0.93099
0.954891
0.975161
0.993035
0.802778
0.835318
0.873084
0.908293
0.940645
0.969675
0.995069
1.01644
1.03422
1.05159
0.894751
0.923251
0.956992
0.988931
1.01871
1.04575
1.06939
1.08904
1.1045
1.12158
0.982994
1.01208
1.04595
1.07787
1.10738
1.13388
1.15668
1.17512
1.18846
1.20549
1.0781
1.11123
1.1478
1.1813
1.21129
1.23742
1.25933
1.27658
1.28843
1.30582
1.19297
1.23075
1.26935
1.30355
1.33286
1.35758
1.37792
1.39379
1.40524
1.42331
1.33784
1.37636
1.41247
1.44313
1.46878
1.49086
1.5099
1.52541
1.53783
1.55582
1.51287
1.54448
1.57064
1.59307
1.61303
1.63174
1.64945
1.66592
1.68126
1.69933
1.70145
1.71865
1.73368
1.7499
1.76579
1.78032
1.79352
1.80744
1.82498
1.84513
1.88316
1.89269
1.90423
1.91503
1.92432
1.93389
1.94467
1.95603
1.96739
1.98275
2.09038
2.09404
2.07909
2.06429
2.05801
2.06368
2.08215
2.11246
2.14464
2.17129
2.3967
2.26184
2.1852
2.14281
2.12538
2.12935
2.15674
2.21316
2.31577
2.54014
0.719486
0.717359
0.712876
0.704255
0.692037
0.679916
0.669699
0.661821
0.656228
0.653007
0.652694
0.655471
0.660605
0.66785
0.677252
0.688802
0.70146
0.712499
0.718614
0.72167
0.643929
0.649776
0.656112
0.660609
0.663085
0.662769
0.660044
0.656252
0.652768
0.650544
0.65044
0.652678
0.656373
0.660684
0.664507
0.666402
0.665473
0.661998
0.656838
0.650217
0.635486
0.637782
0.641189
0.644189
0.646271
0.647778
0.648547
0.64825
0.647253
0.646409
0.646631
0.648102
0.649951
0.651282
0.65148
0.650603
0.649064
0.646734
0.643476
0.640557
0.629949
0.631035
0.632871
0.635255
0.637286
0.638725
0.639762
0.640536
0.64097
0.641236
0.64178
0.642637
0.643273
0.643368
0.642976
0.642143
0.640685
0.63861
0.636529
0.635148
0.624711
0.625373
0.626484
0.628196
0.629987
0.631632
0.632946
0.633988
0.634907
0.635748
0.636538
0.637147
0.637385
0.637252
0.63671
0.635674
0.63426
0.632727
0.631416
0.630638
0.619691
0.620151
0.62094
0.622245
0.623743
0.625275
0.626762
0.62809
0.629268
0.630382
0.631369
0.632004
0.632202
0.631968
0.631301
0.630335
0.629228
0.628108
0.627202
0.626686
0.614808
0.615151
0.615765
0.616842
0.618148
0.61954
0.621003
0.622483
0.623905
0.625253
0.626448
0.627219
0.62746
0.627233
0.626672
0.625924
0.625096
0.624246
0.623584
0.623207
0.610005
0.610272
0.610768
0.611686
0.61287
0.614187
0.615609
0.617138
0.618735
0.620334
0.621781
0.622746
0.623125
0.623065
0.622718
0.622195
0.621575
0.620958
0.620477
0.620191
0.6052
0.605412
0.605825
0.606633
0.607739
0.609011
0.610428
0.61201
0.613747
0.615595
0.617344
0.618587
0.619219
0.619412
0.619305
0.619011
0.618604
0.618182
0.617843
0.617619
0.600303
0.600473
0.600828
0.601564
0.602626
0.60388
0.60533
0.607002
0.608906
0.611022
0.613132
0.614751
0.615722
0.616216
0.616373
0.616318
0.616131
0.615887
0.615666
0.615488
0.595223
0.59536
0.595673
0.596366
0.597414
0.598696
0.600218
0.602024
0.60415
0.606592
0.609144
0.611229
0.612608
0.613451
0.613909
0.614112
0.614142
0.614074
0.613954
0.613811
0.589869
0.589979
0.590265
0.590939
0.592008
0.593363
0.595002
0.596997
0.599412
0.602267
0.605361
0.608008
0.609868
0.611117
0.611917
0.612401
0.612665
0.612771
0.612739
0.612623
0.584141
0.584228
0.584497
0.585178
0.586304
0.587775
0.589585
0.591838
0.594622
0.597998
0.601756
0.605076
0.607508
0.609228
0.610415
0.61123
0.611753
0.612027
0.612074
0.611978
0.577928
0.577993
0.578257
0.578966
0.580186
0.581821
0.583867
0.586457
0.589711
0.593733
0.5983
0.60243
0.605541
0.607817
0.609452
0.610637
0.611448
0.611905
0.612027
0.611948
0.571096
0.571142
0.571406
0.572166
0.573522
0.575375
0.577731
0.580751
0.584598
0.589417
0.594967
0.600069
0.603988
0.606921
0.609083
0.610689
0.611831
0.612486
0.612682
0.612616
0.563492
0.563514
0.56378
0.564616
0.56615
0.568288
0.571039
0.574605
0.579192
0.584989
0.591731
0.597998
0.602873
0.60658
0.609369
0.611474
0.612993
0.613862
0.614132
0.614076
0.554884
0.554897
0.555178
0.556113
0.557882
0.560366
0.563626
0.567881
0.573388
0.580385
0.588569
0.596223
0.602231
0.606849
0.610377
0.613085
0.615034
0.616137
0.616481
0.61643
0.544995
0.544978
0.54531
0.546389
0.548449
0.551394
0.555298
0.560416
0.567067
0.575538
0.58546
0.594764
0.602107
0.607799
0.612193
0.615602
0.61805
0.619409
0.619825
0.619777
0.533507
0.533466
0.533847
0.53512
0.537549
0.541088
0.545807
0.552018
0.5601
0.57038
0.582393
0.593646
0.602547
0.609495
0.614905
0.619119
0.62214
0.623769
0.624253
0.624203
0.519927
0.519858
0.52032
0.521846
0.524763
0.529071
0.534847
0.542459
0.552343
0.564851
0.579366
0.592903
0.603604
0.611991
0.618589
0.623729
0.627379
0.629285
0.629826
0.629766
0.503584
0.503487
0.504076
0.505958
0.509527
0.514866
0.522043
0.531481
0.543657
0.558908
0.576401
0.59258
0.605334
0.615355
0.623289
0.629476
0.633806
0.635975
0.636552
0.636477
0.48352
0.483396
0.484191
0.486592
0.491082
0.497853
0.506942
0.518812
0.533934
0.552559
0.57356
0.592747
0.6078
0.619639
0.629031
0.636377
0.641398
0.643788
0.64437
0.644271
0.458285
0.458146
0.45928
0.462487
0.468373
0.477241
0.489045
0.504223
0.523144
0.54589
0.570961
0.593504
0.611057
0.624863
0.635839
0.644399
0.65005
0.652576
0.65312
0.65299
0.425519
0.425404
0.427159
0.431767
0.439976
0.452123
0.467909
0.487629
0.51141
0.539102
0.568791
0.594978
0.615172
0.631042
0.643656
0.653416
0.659547
0.662073
0.662528
0.662364
0.380991
0.381047
0.384173
0.391704
0.404226
0.421721
0.443415
0.469257
0.499089
0.532541
0.567309
0.597311
0.620209
0.638155
0.652396
0.663214
0.669542
0.671884
0.672204
0.672007
0.316769
0.318016
0.325667
0.33973
0.360155
0.386166
0.416181
0.449824
0.486814
0.526674
0.566786
0.600639
0.626182
0.646125
0.661807
0.673333
0.679531
0.68145
0.681596
0.681384
0.240688
0.242523
0.257176
0.281347
0.312835
0.348888
0.387961
0.429884
0.474493
0.52134
0.567537
0.606011
0.634822
0.657183
0.674449
0.686558
0.692351
0.693905
0.693998
0.693865
0.162253
0.168591
0.19023
0.22478
0.266769
0.312578
0.360662
0.410902
0.463187
0.51709
0.569475
0.612623
0.644656
0.669353
0.688322
0.7004
0.705288
0.706319
0.706357
0.706294
0.098053
0.106765
0.13301
0.174667
0.224881
0.27899
0.335187
0.393202
0.452804
0.513482
0.571751
0.619245
0.654196
0.680818
0.700574
0.712408
0.716873
0.717798
0.717878
0.717873
0.0458455
0.0551599
0.0849959
0.131942
0.188359
0.249156
0.312212
0.377089
0.443363
0.510377
0.574219
0.62581
0.663459
0.691803
0.712377
0.724229
0.728436
0.729263
0.729388
0.729436
0.00220379
0.0118005
0.0441067
0.0950825
0.156591
0.222938
0.291811
0.362691
0.43498
0.507858
0.576967
0.632491
0.672753
0.702856
0.724369
0.736283
0.74032
0.741311
0.741479
0.741569
-0.0352486
-0.0255503
0.00859746
0.0627947
0.128522
0.199607
0.273561
0.349771
0.427522
0.505847
0.579967
0.639309
0.682162
0.714003
0.736446
0.74876
0.753035
0.754063
0.754241
0.754354
-0.0682066
-0.0584896
-0.0229369
0.0339768
0.103244
0.178424
0.25688
0.337901
0.420683
0.504128
0.583053
0.646116
0.691528
0.725132
0.748688
0.761594
0.766116
0.767216
0.76738
0.767476
-0.0979773
-0.0882428
-0.051545
0.00771263
0.0800173
0.158788
0.241262
0.326667
0.41412
0.502418
0.585984
0.652705
0.700664
0.736065
0.760722
0.774253
0.77907
0.780209
0.780348
0.780423
-0.125475
-0.115715
-0.0780395
-0.0167113
0.0582737
0.140233
0.226315
0.315723
0.407529
0.500453
0.588552
0.658888
0.709352
0.746468
0.772203
0.786325
0.791494
0.792676
0.79278
0.792825
-0.151287
-0.141477
-0.10291
-0.0398301
0.0375805
0.122396
0.211734
0.304809
0.400682
0.498039
0.590587
0.664516
0.717463
0.756249
0.782983
0.797623
0.803061
0.804267
0.804334
0.804346
-0.175911
-0.165995
-0.126542
-0.0619754
0.0176407
0.105011
0.197299
0.293738
0.393418
0.495015
0.591947
0.669502
0.724926
0.765321
0.792968
0.80797
0.81354
0.814767
0.814807
0.814785
-0.199654
-0.189546
-0.149355
-0.0833237
-0.0017491
0.0879027
0.182863
0.282383
0.385603
0.491259
0.592538
0.673787
0.731742
0.773692
0.802082
0.817305
0.82293
0.824107
0.824112
0.824056
-0.222632
-0.212336
-0.171478
-0.10402
-0.0207269
0.0709777
0.168336
0.270658
0.377161
0.486683
0.592272
0.677335
0.737929
0.781438
0.810429
0.825717
0.831233
0.832352
0.832322
0.832248
-0.245046
-0.234491
-0.19291
-0.124193
-0.0393613
0.0541729
0.153675
0.258532
0.368056
0.481231
0.59107
0.680108
0.743553
0.788714
0.81818
0.833308
0.838597
0.839598
0.839524
0.83943
-0.266863
-0.256056
-0.213798
-0.143901
-0.057679
0.0374772
0.138889
0.246014
0.35828
0.474863
0.588867
0.682054
0.74867
0.795675
0.825549
0.840287
0.84515
0.845959
0.845833
0.845723
-0.288147
-0.27707
-0.234097
-0.163145
-0.0756778
0.0209036
0.123997
0.233136
0.347861
0.467575
0.585602
0.683103
0.753288
0.802493
0.832826
0.846889
0.85102
0.851515
0.851322
0.851209
-0.308774
-0.297487
-0.253804
-0.181894
-0.0933284
0.00450652
0.109049
0.219952
0.336851
0.459401
0.581227
0.683165
0.757362
0.809292
0.840368
0.853556
0.856504
0.856392
0.856115
0.856035
-0.328878
-0.317276
-0.272923
-0.200141
-0.110613
-0.0116877
0.0941232
0.206529
0.325321
0.4504
0.575729
0.682119
0.760762
0.816082
0.848527
0.860996
0.86229
0.860907
0.860293
0.860301
-0.348307
-0.336415
-0.291436
-0.217856
-0.127461
-0.0276029
0.0792915
0.192977
0.313368
0.440619
0.569125
0.679836
0.763287
0.822703
0.857436
0.870042
0.869754
0.86629
0.864282
0.863797
-0.367131
-0.354962
-0.309297
-0.234997
-0.143846
-0.0431764
0.0646301
0.179367
0.301094
0.430182
0.561461
0.676185
0.764672
0.828789
0.86673
0.881013
0.880695
0.875284
0.86913
0.861535
-0.385272
-0.372874
-0.326602
-0.251718
-0.159972
-0.0586713
0.0498198
0.165321
0.28808
0.418627
0.552257
0.670679
0.764518
0.834152
0.875991
0.893623
0.895848
0.889582
0.878224
0.873952
-0.402687
-0.390075
-0.343339
-0.267998
-0.175854
-0.0740854
0.0348673
0.150816
0.274271
0.40582
0.541288
0.662884
0.761974
0.837991
0.883326
0.904035
0.908193
0.904148
0.865777
0.814299
-0.419105
-0.405784
-0.359359
-0.283767
-0.191597
-0.0895871
0.0197096
0.135958