/*--------------------------------*- C++ -*----------------------------------*\
  =========                 |
  \\      /  F ield         | OpenFOAM: The Open Source CFD Toolbox
   \\    /   O peration     | Website:  https://openfoam.org
    \\  /    A nd           | Version:  10
     \\/     M anipulation  |
\*---------------------------------------------------------------------------*/
FoamFile
{
    format      ascii;
    class       surfaceScalarField;
    location    "71";
    object      phi;
}
// * * * * * * * * * * * * * * * * * * * * * * * * * * * * * * * * * * * * * //

dimensions      [0 3 -1 0 0 0 0];

internalField   nonuniform List<scalar> 
17370
(
-0.091606
0.0960093
0.284608
-0.0775945
0.0594198
0.36495
-0.0430416
0.0316214
0.427588
-0.0223171
0.0162641
0.505305
-0.0116707
0.0087966
0.602276
-0.00658515
0.00509996
0.720543
-0.00386288
0.00298254
0.863787
-0.0022096
0.00163134
1.03603
-0.00109961
0.000678328
1.24292
-0.000266408
-0.000128959
1.49159
0.000518143
-0.000932543
1.49161
0.0013385
-0.00184354
1.2432
0.00239234
-0.00313205
1.03638
0.00398672
-0.00520417
0.864124
0.00667792
-0.00887949
0.721259
0.0117427
-0.01632
0.603792
0.0223559
-0.0316414
0.508725
0.0430415
-0.0594076
0.432534
0.0775868
-0.0960025
0.365191
0.0916214
0.197389
-0.127093
0.0880261
0.0390672
-0.364358
0.354034
-0.071472
0.0817968
-0.446654
0.454258
-0.079166
0.0715617
-0.521012
0.529114
-0.063706
0.0556042
-0.612992
0.620764
-0.048215
0.0404434
-0.727165
0.733689
-0.0338295
0.0273064
-0.867583
0.872437
-0.0221002
0.0172455
-1.03857
1.04191
-0.0135448
0.0102031
-1.24472
1.24713
-0.00764978
0.0052408
-1.49284
1.49486
-0.00327357
0.00125598
-1.49269
1.49452
0.000566032
-0.00238827
-1.2441
1.24602
0.00436446
-0.00627818
-1.03761
1.04008
0.00861359
-0.0110891
-0.866186
0.869808
0.0143409
-0.0179636
-0.724591
0.729743
0.0227459
-0.0278976
-0.609062
0.615629
0.0343686
-0.0409359
-0.515121
0.522454
0.0486534
-0.0559863
-0.43988
0.447654
0.0640042
-0.0717779
-0.374704
0.377355
0.0792654
-0.0819164
-0.256893
0.224429
0.0715658
-0.0391017
-0.0688167
0.0592077
0.00960902
-0.0520919
0.0589134
-0.374843
0.368022
-0.0580618
0.0542166
-0.453951
0.457797
-0.0487269
0.0441647
-0.527624
0.532186
-0.0396111
0.0357112
-0.620809
0.624708
-0.0314932
0.0274931
-0.734668
0.738668
-0.0231306
0.0192381
-0.873965
0.877857
-0.0151871
0.0117248
-1.04337
1.04683
-0.0081994
0.00516152
-1.24866
1.2517
-0.00194866
-0.00103653
-1.49695
1.49993
0.00399924
-0.00715034
-1.49741
1.50057
0.0100972
-0.0134966
-1.25006
1.25346
0.0168273
-0.020725
-1.04564
1.04954
0.024483
-0.0287138
-0.877125
0.881356
0.0326079
-0.0367209
-0.738971
0.743084
0.0405336
-0.0450013
-0.625959
0.630427
0.0494918
-0.0549113
-0.535007
0.540427
0.0586748
-0.05943
-0.458066
0.458821
0.0524739
-0.0320759
-0.336748
0.31635
0.00967701
-0.0686522
0.0589752
-0.0534215
0.0493135
0.00410808
-0.0332204
0.0436336
-0.358583
0.34817
-0.0473008
0.0467079
-0.459594
0.460187
-0.0437738
0.0405561
-0.536147
0.539365
-0.0368729
0.0335121
-0.628413
0.631774
-0.029871
0.0266227
-0.742054
0.745303
-0.0231616
0.0199562
-0.881359
0.884564
-0.0163544
0.0129946
-1.05027
1.05363
-0.00928679
0.00587474
-1.25496
1.25837
-0.00207702
-0.00154391
-1.50329
1.50691
0.00513232
-0.00883578
-1.50406
1.50776
0.012119
-0.0156482
-1.25701
1.26054
0.0188216
-0.0222056
-1.05324
1.05663
0.0252191
-0.0284918
-0.884956
0.888228
0.0315878
-0.0350779
-0.746757
0.750248
0.0383103
-0.0418598
-0.634539
0.638089
0.0449616
-0.047766
-0.544563
0.547367
0.0482243
-0.0443703
-0.456928
0.453074
0.0337279
-0.0163959
-0.297018
0.279686
0.00418352
-0.0531208
0.0489373
-0.0461478
0.0435966
0.0025512
-0.0230168
0.0333505
-0.337591
0.327258
-0.0390698
0.0400086
-0.459945
0.459006
-0.038748
0.0364123
-0.542027
0.544363
-0.033761
0.0312056
-0.634749
0.637304
-0.028218
0.02536
-0.748397
0.751255
-0.022111
0.0190867
-0.88763
0.890654
-0.0157242
0.0125797
-1.05681
1.05996
-0.00901149
0.00560195
-1.26178
1.26519
-0.00168314
-0.0021192
-1.51064
1.51445
0.00587924
-0.00967026
-1.51154
1.51533
0.0129085
-0.0162423
-1.26399
1.26732
0.0191427
-0.0222211
-1.05983
1.06291
0.0249917
-0.0279861
-0.891412
0.894406
0.0306348
-0.0334136
-0.753414
0.756193
0.0357929
-0.0382657
-0.641031
0.643504
0.040449
-0.0415094
-0.549191
0.550251
0.040362
-0.0343382
-0.447933
0.441909
0.0236696
-0.0103964
-0.264476
0.251203
0.00264485
-0.0456871
0.0430422
-0.041483
0.039688
0.00179498
-0.016906
0.0261695
-0.317408
0.308144
-0.0327438
0.0348481
-0.457458
0.455354
-0.0343993
0.0326886
-0.546401
0.548112
-0.0304473
0.0283062
-0.639626
0.641767
-0.0258532
0.0234603
-0.753867
0.75626
-0.0206294
0.0178683
-0.893525
0.896287
-0.014668
0.011619
-1.06302
1.06606
-0.00813905
0.00481123
-1.26852
1.27185
-0.000961112
-0.00279195
-1.51822
1.52197
0.00649025
-0.0101783
-1.51906
1.52275
0.0132877
-0.0164695
-1.27058
1.27376
0.019208
-0.0220443
-1.06593
1.06877
0.0244779
-0.026979
-0.897175
0.899676
0.029102
-0.0312873
-0.758618
0.760803
0.0332042
-0.0352154
-0.645717
0.647728
0.0367045
-0.03688
-0.550817
0.550992
0.0344551
-0.0274348
-0.435291
0.428271
0.0177217
-0.00750199
-0.239598
0.229378
0.00190965
-0.0408249
0.0389153
-0.038144
0.0367989
0.00134514
-0.0128987
0.0208698
-0.299529
0.291558
-0.0276076
0.0305069
-0.452818
0.449918
-0.0306938
0.0295521
-0.549563
0.550704
-0.0275357
0.0255919
-0.643837
0.645781
-0.0233599
0.0211998
-0.758519
0.760679
-0.0186712
0.0161839
-0.898855
0.901342
-0.0132433
0.0103694
-1.06898
1.07185
-0.00702094
0.0037894
-1.2751
1.27833
-4.31678e-05
-0.00359403
-1.52565
1.52928
0.00716377
-0.0107063
-1.52635
1.5299
0.0136646
-0.01664
-1.27686
1.27984
0.0191243
-0.0216075
-1.07148
1.07396
0.0236849
-0.0258003
-0.901968
0.904084
0.0276191
-0.0295103
-0.762825
0.764716
0.03117
-0.0329099
-0.649581
0.651321
0.0337286
-0.0331604
-0.550797
0.550229
0.0298026
-0.0224534
-0.421028
0.413679
0.0139046
-0.00580696
-0.22032
0.212222
0.001485
-0.0372447
0.0357597
-0.0356248
0.0345912
0.00103355
-0.0100652
0.0168052
-0.284225
0.277485
-0.0232856
0.0266411
-0.446768
0.443413
-0.0273996
0.0266871
-0.551621
0.552334
-0.0249008
0.0230981
-0.647691
0.649493
-0.0210133
0.018986
-0.762772
0.764799
-0.0166015
0.014262
-0.903694
0.906033
-0.0115107
0.00881386
-1.07458
1.07727
-0.00564288
0.0025507
-1.28145
1.28454
0.00105536
-0.00455787
-1.53283
1.53633
0.00797577
-0.011331
-1.53333
1.53669
0.0140845
-0.0167944
-1.28269
1.2854
0.0190116
-0.0211989
-1.07635
1.07854
0.0230319
-0.0249041
-0.906085
0.907957
0.0265083
-0.0281703
-0.766482
0.768144
0.0296208
-0.0310265
-0.652913
0.654319
0.0313366
-0.0300369
-0.54931
0.54801
0.0260495
-0.018764
-0.406335
0.399049
0.0112982
-0.00468657
-0.204937
0.198326
0.00120369
-0.0344316
0.0332279
-0.0336841
0.0328813
0.000802788
-0.007963
0.0136235
-0.271312
0.265652
-0.0196201
0.0231742
-0.439945
0.436391
-0.0244097
0.0239421
-0.552951
0.553418
-0.0224257
0.020731
-0.651288
0.652983
-0.018741
0.0168018
-0.766781
0.76872
-0.0145163
0.0122701
-0.908265
0.910511
-0.00962474
0.00703943
-1.07984
1.08243
-0.00401195
0.00105803
-1.28752
1.29047
0.00238504
-0.00572326
-1.53973
1.54306
0.0089587
-0.0120947
-1.53991
1.54305
0.0146319
-0.0170979
-1.28799
1.29045
0.0190965
-0.0210496
-1.08068
1.08263
0.0226739
-0.0243307
-0.909731
0.911388
0.0257507
-0.0272202
-0.769701
0.771171
0.0284754
-0.0294989
-0.655516
0.65654
0.0294355
-0.0274615
-0.546377
0.544403
0.0230628
-0.0160328
-0.391887
0.384857
0.00947051
-0.00391374
-0.192292
0.186735
0.00100962
-0.0321335
0.0311238
-0.0321762
0.0315519
0.000624362
-0.00634189
0.0110787
-0.260479
0.255742
-0.0164832
0.0200376
-0.432832
0.429278
-0.0215957
0.0213517
-0.553805
0.554049
-0.0200659
0.0184325
-0.654692
0.656325
-0.0164976
0.0146067
-0.770632
0.772523
-0.0123794
0.0101922
-0.912658
0.914845
-0.00761815
0.0051056
-1.0849
1.08741
-0.00217078
-0.000670537
-1.29331
1.29615
0.00396984
-0.00714286
-1.54629
1.54946
0.0101887
-0.0131091
-1.54605
1.54897
0.0154489
-0.0177008
-1.29281
1.29506
0.0194999
-0.02123
-1.08457
1.0863
0.0226579
-0.0241169
-0.912954
0.914413
0.0253713
-0.0266658
-0.772545
0.77384
0.0277728
-0.0283736
-0.657348
0.657949
0.0279366
-0.0253927
-0.542158
0.539614
0.0207383
-0.0140306
-0.377997
0.371289
0.00818109
-0.00337638
-0.181593
0.176788
0.000875497
-0.0301913
0.0293158
-0.031007
0.0305271
0.000479842
-0.0050369
0.00897617
-0.251428
0.247489
-0.0137423
0.0171468
-0.425802
0.422397
-0.0188863
0.0188305
-0.554234
0.55429
-0.0177399
0.0161401
-0.658004
0.659604
-0.0142277
0.0123513
-0.7744
0.776277
-0.0101411
0.00797596
-0.916939
0.919104
-0.00543715
0.00296997
-1.08982
1.09229
-0.000104982
-0.00266448
-1.2989
1.30167
0.00584583
-0.00887212
-1.55252
1.55555
0.0117441
-0.0144645
-1.55176
1.55448
0.0166167
-0.0186589
-1.29721
1.29925
0.0202616
-0.0217749
-1.08803
1.08954
0.0230177
-0.0242963
-0.915786
0.917064
0.0254017
-0.0265353
-0.775045
0.776179
0.0274489
-0.0276693
-0.658356
0.658576
0.0268262
-0.0237982
-0.536841
0.533813
0.0189851
-0.0125906
-0.364756
0.358361
0.00728186
-0.0030085
-0.172281
0.168007
0.000785275
-0.0284946
0.0277093
-0.0301146
0.0297571
0.000357529
-0.00394301
0.00718096
-0.243922
0.240684
-0.0112958
0.0144396
-0.419133
0.415989
-0.0162335
0.0163276
-0.554314
0.55422
-0.0153192
0.0137899
-0.661243
0.662772
-0.0118719
0.00997731
-0.778152
0.780047
-0.0077461
0.00556781
-0.921182
0.923361
-0.00302692
0.000572692
-1.09466
1.09711
0.00226628
-0.00498061
-1.30434
1.30706
0.00807162
-0.0109763
-1.55847
1.56138
0.0136946
-0.0162286
-1.55707
1.55961
0.0182004
-0.0200387
-1.30119
1.30303
0.0214483
-0.0227474
-1.09109
1.09239
0.0238096
-0.0249148
-0.918256
0.919361
0.0258768
-0.026843
-0.77722
0.778186
0.0274947
-0.0274241
-0.658666
0.658595
0.0261337
-0.0226698
-0.530578
0.527115
0.0177397
-0.0116017
-0.35212
0.345982
0.00668149
-0.00276958
-0.163944
0.160032
0.000728755
-0.0269614
0.0262326
-0.0294596
0.0292112
0.000248373
-0.00298362
0.00558804
-0.237781
0.235177
-0.0090513
0.0118508
-0.413032
0.410232
-0.0135845
0.0137572
-0.554134
0.553961
-0.0127884
0.0113016
-0.664363
0.66585
-0.0093553
0.00741313
-0.781949
0.783891
-0.00512484
0.00289866
-0.925455
0.927681
-0.000318664
-0.00216494
-1.09948
1.10196
0.00500952
-0.00770392
-1.30969
1.31238
0.0107361
-0.0135437
-1.56419
1.56699
0.0161259
-0.0184848
-1.56201
1.56437
0.0202835
-0.0219238
-1.30475
1.30639
0.0231417
-0.0242226
-1.09375
1.09483
0.0250996
-0.0260286
-0.920373
0.921302
0.0268463
-0.027642
-0.779042
0.779838
0.0280026
-0.0276372
-0.658379
0.658013
0.0258895
-0.0220005
-0.52346
0.519571
0.0169525
-0.0109865
-0.339964
0.333998
0.0063198
-0.00263282
-0.156261
0.152574
0.000699024
-0.0255281
0.024829
-0.0290195
0.0288748
0.000144726
-0.00209491
0.00410435
-0.232887
0.230877
-0.00691098
0.00929545
-0.407658
0.405274
-0.01086
0.0110314
-0.553846
0.553675
-0.0100679
0.00858451
-0.667435
0.668919
-0.00658211
0.00456174
-0.785847
0.787868
-0.00218016
-0.000125095
-0.929825
0.932131
0.00279367
-0.00533728
-1.10436
1.1069
0.00822672
-0.010934
-1.31501
1.31771
0.0139389
-0.0166717
-1.56972
1.57245
0.0191325
-0.021325
-1.5666
1.56879
0.0229537
-0.0243955
-1.30791
1.30935
0.0254148
-0.026263
-1.09601
1.09686
0.0269408
-0.027677
-0.922123
0.922859
0.0283413
-0.0289944
-0.780505
0.781158
0.0290372
-0.0282865
-0.657442
0.656691
0.0260768
-0.0217659
-0.515517
0.511206
0.0165735
-0.0106839
-0.328111
0.322222
0.00615214
-0.00257828
-0.148972
0.145398
0.000690768
-0.0241439
0.0234531
-0.0287867
0.0287466
4.01163e-05
-0.00122869
0.00265786
-0.229172
0.227743
-0.00479414
0.00669994
-0.403149
0.401243
-0.00799109
0.00807824
-0.553615
0.553528
-0.00707283
0.00555513
-0.670542
0.67206
-0.00345823
0.0013259
-0.789907
0.792039
0.0011902
-0.00362035
-0.934361
0.936791
0.00641018
-0.00905273
-1.10937
1.11201
0.0120285
-0.0147844
-1.32036
1.32311
0.0177959
-0.0204787
-1.5751
1.57778
0.0228336
-0.0248654
-1.57085
1.57289
0.0263237
-0.0275617
-1.31066
1.31189
0.0283745
-0.0289877
-1.09785
1.09846
0.0294609
-0.0299915
-0.923482
0.924012
0.0304858
-0.0309264
-0.781599
0.78204
0.0306778
-0.0294507
-0.655733
0.654506
0.026748
-0.021983
-0.506737
0.501972
0.0165875
-0.0106637
-0.316364
0.31044
0.00615484
-0.00259541
-0.141862
0.138302
0.000701322
-0.0227675
0.0220662
-0.0287641
0.0288321
-6.80035e-05
-0.000345767
0.0011873
-0.226617
0.225775
-0.00262423
0.00398496
-0.399629
0.398269
-0.00489778
0.00481435
-0.553612
0.553695
-0.0037084
0.00210316
-0.67377
0.675376
0.000124477
-0.00240857
-0.794195
0.796479
0.00510602
-0.00770156
-0.939142
0.941737
0.0106646
-0.0134503
-1.11458
1.11737
0.016557
-0.0193973
-1.32581
1.32865
0.0224478
-0.0251014
-1.58039
1.58304
0.0273614
-0.0292349
-1.57478
1.57665
0.0305196
-0.031547
-1.31298
1.314
0.0321488
-0.0325186
-1.09924
1.09961
0.0327778
-0.0330901
-0.924421
0.924734
0.0333915
-0.0335366
-0.782165
0.78231
0.0329791
-0.0312018
-0.653087
0.65131
0.0279506
-0.0226718
-0.497043
0.491765
0.0169902
-0.0109104
-0.304495
0.298415
0.00631472
-0.00267783
-0.134736
0.1311
0.000728827
-0.0213622
0.0206334
-0.0289671
0.0291528
-0.000185744
0.000579346
-0.000358831
-0.225244
0.225024
-0.00032499
0.00106256
-0.397226
0.396488
-0.0014888
0.00114959
-0.554016
0.554355
0.000108804
-0.00187824
-0.677235
0.679004
0.00430014
-0.00678822
-0.798798
0.801287
0.00972023
-0.01253
-0.944256
0.947066
0.01572
-0.0186968
-1.12009
1.12307
0.0219831
-0.0249465
-1.33144
1.33441
0.028069
-0.0307125
-1.58562
1.58827
0.0328832
-0.0345924
-1.57838
1.58009
0.0356976
-0.0365016
-1.31484
1.31564
0.0368817
-0.0369927
-1.10014
1.10026
0.0370202
-0.0370976
-0.924905
0.924982
0.0372015
-0.0369655
-0.78209
0.781854
0.0360176
-0.0336143
-0.649366
0.646963
0.0297387
-0.0238541
-0.486298
0.480414
0.0177795
-0.0114106
-0.292254
0.285885
0.00661968
-0.00281901
-0.127414
0.123614
0.000771195
-0.0198949
0.0191237
-0.0294232
0.0297582
-0.000334924
0.00162127
-0.00204125
-0.225146
0.225566
0.00220826
-0.00220235
-0.396074
0.396068
0.00239545
-0.00310236
-0.555049
0.555756
0.00460168
-0.00657042
-0.681081
0.68305
0.00923445
-0.0119776
-0.803805
0.806548
0.0152065
-0.0182888
-0.949803
0.952885
0.0217683
-0.0249897
-1.126
1.12922
0.028508
-0.0316347
-1.33733
1.34046
0.0348628
-0.0375145
-1.59084
1.59349
0.0395992
-0.0411299
-1.58163
1.58317
0.0420316
-0.0425992
-1.31621
1.31678
0.0427448
-0.0425742
-1.10051
1.10034
0.0423458
-0.0421714
-0.924878
0.924704
0.0420685
-0.0413487
-0.78121
0.78049
0.0399223
-0.0367848
-0.644412
0.641275
0.0321745
-0.0255551
-0.474304
0.467684
0.0189563
-0.0121541
-0.279371
0.272569
0.00705914
-0.00301283
-0.119726
0.115679
0.00082634
-0.0183371
0.0175108
-0.0301629
0.0306779
-0.000515024
0.00292215
-0.00411363
-0.226389
0.22758
0.00515544
-0.00595784
-0.396389
0.397191
0.00687657
-0.00805157
-0.556942
0.558117
0.0098785
-0.0121277
-0.685414
0.687663
0.0151235
-0.0181977
-0.809329
0.812403
0.0218018
-0.025224
-0.955901
0.959323
0.0290616
-0.0325842
-1.1324
1.13592
0.0363872
-0.0397132
-1.34355
1.34687
0.0430693
-0.045732
-1.59607
1.59873
0.0477176
-0.0490525
-1.58452
1.58585
0.0497194
-0.0500368
-1.31705
1.31737
0.0499275
-0.0494516
-1.1003
1.09982
0.048949
-0.0485078
-0.924284
0.923843
0.0480742
-0.046888
-0.779391
0.778205
0.0448254
-0.0408119
-0.637993
0.63398
0.0353225
-0.0278009
-0.460788
0.453266
0.0205214
-0.013129
-0.265554
0.258161
0.00762032
-0.00325129
-0.11151
0.107141
0.000891344
-0.0166646
0.0157733
-0.031261
0.032001
-0.000740008
0.00444232
-0.00652809
-0.229179
0.231264
0.00864234
-0.0103635
-0.398383
0.400104
0.0121149
-0.0138779
-0.559947
0.56171
0.0161678
-0.0187997
-0.690398
0.69303
0.0222374
-0.0257278
-0.815524
0.819014
0.0297971
-0.0336372
-0.962689
0.966529
0.0379113
-0.0417964
-1.13941
1.1433
0.0459354
-0.0494898
-1.35016
1.35372
0.0529837
-0.0556451
-1.60131
1.60397
0.0575025
-0.0586004
-1.58698
1.58808
0.0589951
-0.0590182
-1.3173
1.31732
0.0586308
-0.0578282
-1.09943
1.09863
0.0570262
-0.0562835
-0.923078
0.922335
0.0554419
-0.0537238
-0.776679
0.77496
0.0508818
-0.0457957
-0.629813
0.624727
0.0392319
-0.0305958
-0.445399
0.436763
0.0224549
-0.0143072
-0.250483
0.242335
0.00827938
-0.00352104
-0.102616
0.0978579
0.000961667
-0.0148596
0.013898
-0.0328019
0.033833
-0.00103113
0.00634072
-0.00949022
-0.233758
0.236908
0.0128871
-0.0156759
-0.402324
0.405113
0.0184061
-0.0208827
-0.564345
0.566822
0.0237793
-0.0269153
-0.696253
0.699389
0.0309264
-0.0349445
-0.822559
0.826577
0.0395871
-0.0439329
-0.970325
0.974671
0.0487251
-0.0530288
-1.14716
1.15146
0.0575414
-0.0613342
-1.35723
1.36102
0.0649491
-0.067569
-1.60651
1.60913
0.069244
-0.070042
-1.58894
1.58974
0.0701047
-0.0697748
-1.31681
1.31649
0.0690834
-0.0679119
-1.09785
1.09668
0.0667716
-0.0657363
-0.921209
0.920173
0.0643631
-0.0620172
-0.772912
0.770566
0.0582123
-0.0517989
-0.619471
0.613057
0.0439135
-0.033906
-0.427701
0.417694
0.0247026
-0.0156342
-0.23383
0.224761
0.00899513
-0.00380062
-0.0929214
0.0877269
0.0010304
-0.0129148
0.0118844
-0.0349105
0.0363443
-0.00143379
0.00882257
-0.0133337
-0.240454
0.244965
0.0182309
-0.022264
-0.40858
0.412613
0.0261414
-0.0294853
-0.570465
0.573809
0.0331665
-0.0369683
-0.703244
0.707045
0.0417197
-0.0463977
-0.830652
0.83533
0.0517341
-0.0566741
-0.978988
0.983928
0.0620539
-0.0668095
-1.15573
1.16049
0.0716954
-0.0756925
-1.36473
1.36873
0.079356
-0.0818426
-1.61158
1.61407
0.0832359
-0.0836343
-1.59024
1.59064
0.0833044
-0.0825375
-1.31551
1.31475
0.0814849
-0.0799273
-1.09545
1.09389
0.0784649
-0.0770091
-0.918645
0.917189
0.07512
-0.0719123
-0.767846
0.764638
0.066899
-0.0588291
-0.606438
0.598369
0.0493102
-0.0376287
-0.407174
0.395493
0.0271514
-0.0170141
-0.215275
0.205138
0.00970128
-0.00405794
-0.0823477
0.0767044
0.0010878
-0.0108378
0.00974997
-0.03779
0.0397907
-0.00200067
0.012269
-0.0185122
-0.249786
0.256029
0.0252134
-0.0307011
-0.417649
0.423137
0.0359368
-0.0403458
-0.5787
0.583109
0.0450184
-0.0496871
-0.711715
0.716383
0.055388
-0.060875
-0.84006
0.845547
0.0670226
-0.0726234
-0.988847
0.994448
0.0786169
-0.0838025
-1.16519
1.17037
0.0889888
-0.0930841
-1.37258
1.37668
0.0966454
-0.0988386
-1.61629
1.61849
0.0997925
-0.0996437
-1.59066
1.59051
0.0988264
-0.097508
-1.31325
1.31193
0.0960418
-0.0940802
-1.09217
1.09021
0.0922531
-0.090258
-0.915084
0.913089
0.08783
-0.0834995
-0.760963
0.756632
0.0769506
-0.0667938
-0.590026
0.579869
0.0552578
-0.0415631
-0.383219
0.369524
0.0296101
-0.0183001
-0.194549
0.183239
0.0103034
-0.00425017
-0.0708951
0.0648419
0.00112166
-0.00865681
0.00753515
-0.0417621
0.0446427
-0.00288059
0.0172682
-0.0257761
-0.262498
0.271005
0.0347204
-0.0419694
-0.430195
0.437444
0.0488477
-0.0545259
-0.589539
0.595218
0.0605088
-0.0663304
-0.722086
0.727907
0.0731721
-0.0795755
-0.851057
0.857461
0.0865882
-0.0928344
-1.00001
1.00625
0.0993552
-0.104834
-1.17542
1.1809
0.110116
-0.114087
-1.38051
1.38448
0.117273
-0.118913
-1.62028
1.62192
0.11919
-0.118288
-1.58987
1.58897
0.116824
-0.114869
-1.30981
1.30785
0.112931
-0.110531
-1.08793
1.08553
0.10832
-0.105667
-0.91026
0.907607
0.102527
-0.0967048
-0.75168
0.745858
0.0881828
-0.0754087
-0.569334
0.55656
0.0614144
-0.045364
-0.355197
0.339147
0.031783
-0.0192856
-0.171502
0.159005
0.0106773
-0.00432477
-0.0586793
0.0523268
0.00111777
-0.00642516
0.00530739
-0.0474111
0.0517812
-0.00437006
0.025014
-0.0366068
-0.279747
0.291339
0.0484738
-0.0580606
-0.447261
0.456848
0.0669742
-0.0741259
-0.603584
0.610735
0.0816603
-0.0890128
-0.734722
0.742075
0.0970658
-0.104309
-0.863846
0.87109
0.112023
-0.118695
-1.01236
1.01903
0.125425
-0.130857
-1.18607
1.1915
0.135822
-0.139274
-1.38798
1.39143
0.141649
-0.142347
-1.62296
1.62366
0.141618
-0.139716
-1.58745
1.58554
0.137439
-0.134728
-1.30501
1.3023
0.132232
-0.129362
-1.08259
1.07972
0.126642
-0.123332
-0.904011
0.900701
0.119125
-0.111266
-0.739182
0.731324
0.100155
-0.0841265
-0.543234
0.527205
0.0672214
-0.0485437
-0.322515
0.303837
0.0332931
-0.0197339
-0.146214
0.132655
0.0106923
-0.00423056
-0.0459732
0.0395115
0.0010626
-0.00422275
0.00316016
-0.055822
0.0633214
-0.00749939
0.0386356
-0.0547204
-0.303702
0.319787
0.0706693
-0.083475
-0.470484
0.483289
0.0945694
-0.103107
-0.621275
0.629812
0.112155
-0.120792
-0.750027
0.758663
0.129784
-0.137453
-0.878123
0.885792
0.145279
-0.151768
-1.02528
1.03177
0.158021
-0.162758
-1.1963
1.20104
0.166723
-0.169033
-1.39408
1.3964
0.170016
-0.169322
-1.62349
1.62279
0.167231
-0.164023
-1.58287
1.57966
0.16071
-0.157074
-1.2986
1.29496
0.153941
-0.1506
-1.07602
1.07268
0.14731
-0.143094
-0.896058
0.891841
0.137262
-0.126552
-0.722218
0.711509
0.112022
-0.0920061
-0.510319
0.490302
0.0719028
-0.0505642
-0.284794
0.263455
0.0338206
-0.0195149
-0.119133
0.104828
0.0103087
-0.00396792
-0.0332321
0.0268914
0.000958424
-0.00215509
0.00119666
-0.0703031
0.0745033
-0.0042002
0.0296025
-0.0435387
-0.338391
0.352328
0.0576781
-0.0693888
-0.501312
0.513023
0.0799036
-0.0897255
-0.64222
0.652042
0.10073
-0.110804
-0.766874
0.776949
0.122016
-0.132046
-0.892587
0.902617
0.142774
-0.152355
-1.03732
1.0469
0.1624
-0.171056
-1.2047
1.21335
0.179717
-0.186707
-1.39756
1.40455
0.193052
-0.197367
-1.62092
1.62524
0.199633
-0.200454
-1.57547
1.5763
0.20012
-0.199221
-1.29023
1.28933
0.198563
-0.197445
-1.06799
1.06688
0.195839
-0.191564
-0.885618
0.881344
0.183262
-0.16682
-0.698959
0.682517
0.144385
-0.114794
-0.469155
0.439564
0.0867916
-0.0586508
-0.242137
0.213996
0.0379062
-0.0211323
-0.0912337
0.0744599
0.0108102
-0.00401273
-0.0210714
0.0142739
0.000928986
-0.000323852
-0.000605135
-0.0817704
0.0799135
0.00185684
0.00764714
-0.0168672
-0.369114
0.378334
0.0276285
-0.0359482
-0.529469
0.537789
0.0444114
-0.0527544
-0.664443
0.672786
0.0628782
-0.0723156
-0.786689
0.796127
0.0823859
-0.0916126
-0.912101
0.921327
0.101445
-0.109885
-1.0562
1.06464
0.118921
-0.126342
-1.22183
1.22925
0.133718
-0.139393
-1.41126
1.41693
0.14401
-0.146806
-1.62879
1.63159
0.147597
-0.146966
-1.57649
1.57586
0.145177
-0.142714
-1.28756
1.28509
0.140568
-0.138244
-1.06313
1.06081
0.135485
-0.129982
-0.872597
0.867094
0.120928
-0.105824
-0.661913
0.64681
0.0878821
-0.0664129
-0.408312
0.386843
0.0480542
-0.0313955
-0.186585
0.169926
0.0199414
-0.0110869
-0.058845
0.0499905
0.00572533
-0.00214956
-0.00782847
0.0042527
0.000433354
0.00160842
-0.00204177
-0.0832437
0.0802942
0.00294947
-0.00172079
-0.00364871
-0.389888
0.395258
0.0110086
-0.0170395
-0.55034
0.556371
0.0233156
-0.0306191
-0.683275
0.690579
0.0393799
-0.0475737
-0.804675
0.812868
0.0565412
-0.0645882
-0.9298
0.937847
0.0729087
-0.0804063
-1.07288
1.08038
0.0882098
-0.0946894
-1.2362
1.24268
0.100648
-0.104996
-1.4219
1.42625
0.108456
-0.109956
-1.63365
1.63515
0.109486
-0.107623
-1.57461
1.57275
0.10486
-0.101522
-1.2822
1.27887
0.0981049
-0.0945387
-1.05594
1.05238
0.0907341
-0.0849214
-0.857595
0.851783
0.076574
-0.0639617
-0.628631
0.616018
0.050758
-0.0365897
-0.363803
0.349635
0.0259153
-0.0170394
-0.153168
0.144292
0.0111424
-0.00655231
-0.0413643
0.0367742
0.00357801
-0.00133491
-0.000809766
-0.00143333
0.000304928
0.00269944
-0.00300436
-0.0819257
0.0791199
0.00280575
-0.00549741
0.0029293
-0.403741
0.406309
0.00183882
-0.00640536
-0.565764
0.570331
0.0116854
-0.0177917
-0.698813
0.70492
0.0252478
-0.0322457
-0.820424
0.827422
0.0398933
-0.0467758
-0.945349
0.952231
0.0542654
-0.0605893
-1.08742
1.09374
0.0673426
-0.0724574
-1.2487
1.25382
0.0774234
-0.0808735
-1.43032
1.43377
0.0831766
-0.0834112
-1.63612
1.63636
0.082113
-0.0794515
-1.57025
1.56759
0.0759796
-0.0714958
-1.27505
1.27057
0.0672931
-0.0627193
-1.04686
1.04229
0.0579404
-0.0521875
-0.841638
0.835885
0.0448193
-0.0352872
-0.600803
0.591271
0.0264219
-0.0182204
-0.334394
0.326192
0.0128267
-0.00878062
-0.134692
0.130646
0.0061527
-0.00399016
-0.0317554
0.0295928
0.00231673
-0.000967754
0.00373563
-0.00508461
0.000250062
0.00356449
-0.00381455
-0.0803156
0.077801
0.00251464
-0.00677059
0.00587661
-0.412914
0.413808
-0.00238385
-0.000885307
-0.578102
0.581371
0.00515355
-0.0106696
-0.711803
0.717319
0.0168997
-0.0230054
-0.833709
0.839815
0.0295862
-0.0355149
-0.958634
0.964563
0.0418777
-0.0474263
-1.09989
1.10544
0.0530541
-0.0576051
-1.25874
1.26329
0.061684
-0.0643451
-1.43677
1.43943
0.0658005
-0.0652554
-1.63631
1.63576
0.0632221
-0.0596269
-1.5641
1.5605
0.0555188
-0.0504767
-1.2658
1.26075
0.0455811
-0.0400375
-1.03619
1.03065
0.0347824
-0.0290094
-0.826052
0.820279
0.022931
-0.0158457
-0.579494
0.572409
0.0103595
-0.00631685
-0.316658
0.312615
0.00429579
-0.00321394
-0.12545
0.124369
0.00261801
-0.00200542
-0.0268026
0.02619
0.00127662
-0.000606906
0.00669348
-0.00736319
0.000182085
0.00430745
-0.00448954
-0.0787655
0.0765837
0.00218181
-0.0067748
0.00645478
-0.419093
0.419413
-0.00440441
0.00178742
-0.58751
0.590127
0.00227822
-0.00696645
-0.722749
0.727437
0.0122788
-0.0175447
-0.845117
0.850383
0.0233458
-0.0285845
-0.970112
0.975351
0.0343182
-0.0390915
-1.11066
1.11544
0.0440264
-0.0479722
-1.26749
1.27143
0.0513569
-0.0534055
-1.44174
1.44379
0.0541858
-0.0534076
-1.635
1.63422
0.0507744
-0.0467779
-1.55631
1.55232
0.0421797
-0.0365987
-1.25531
1.24973
0.0314366
-0.0252081
-1.02412
1.01789
0.0195094
-0.0137913
-0.811117
0.805399
0.00852389
-0.00321504
-0.563383
0.558074
-2.243e-05
0.00156639
-0.306555
0.305011
-0.00146563
0.000862081
-0.121864
0.122468
-0.000301747
-0.000179337
-0.0251342
0.0256153
0.000248468
-0.000207997
0.00819157
-0.00823204
8.9595e-05
0.00484051
-0.00493011
-0.0775139
0.0757837
0.00173021
-0.00599453
0.00606747
-0.423536
0.423463
-0.00447255
0.00255492
-0.595627
0.597545
0.0011864
-0.00539811
-0.732135
0.736346
0.0103859
-0.0148777
-0.855232
0.859723
0.0199193
-0.0245025
-0.980528
0.985112
0.02985
-0.0340911
-1.1202
1.12444
0.038349
-0.0419276
-1.27513
1.2787
0.0452372
-0.0468769
-1.44577
1.44741
0.0473691
-0.0461517
-1.63293
1.63171
0.0434964
-0.0389347
-1.54796
1.5434
0.0342397
-0.0285296
-1.24381
1.2381
0.0229515
-0.0166208
-1.0111
1.00477
0.0106757
-0.00463554
-0.796752
0.790712
0.000155208
0.00397531
-0.550494
0.546363
-0.00621125
0.00639523
-0.300962
0.300778
-0.00543423
0.00405117
-0.121843
0.123226
-0.00271927
0.00144495
-0.0257521
0.0270264
-0.000702604
0.000194724
0.00834854
-0.00784066
-1.18101e-05
0.00509795
-0.00508614
-0.0767417
0.075359
0.00138273
-0.00498666
0.00523199
-0.426907
0.426661
-0.00388534
0.00209133
-0.602584
0.604378
0.00144616
-0.00516068
-0.740482
0.744197
0.00938482
-0.0136661
-0.864136
0.868417
0.0182602
-0.0229075
-0.989468
0.994115
0.0274246
-0.0313789
-1.12873
1.13268
0.0356341
-0.0388217
-1.2821
1.28529
0.0414591
-0.0433074
-1.44888
1.45072
0.0436997
-0.0424531
-1.63045
1.6292
0.0396086
-0.0352282
-1.53892
1.53454
0.0304763
-0.0246742
-1.23194
1.22614
0.0191041
-0.0126912
-0.997915
0.991502
0.00673686
-0.000780539
-0.782879
0.776923
-0.00349694
0.00697169
-0.539607
0.536132
-0.00878244
0.00875441
-0.297839
0.297868
-0.00751839
0.00573868
-0.12336
0.12514
-0.00414065
0.00248995
-0.0278793
0.02953
-0.00135161
0.000501848
0.00738529
-0.00653553
-9.9833e-05
0.00507694
-0.00497711
-0.0764871
0.0753204
0.00116679
-0.00375058
0.00379327
-0.429811
0.429768
-0.00277082
0.00103414
-0.608869
0.610606
0.00231603
-0.00585789
-0.748138
0.75168
0.00986258
-0.0136864
-0.872452
0.876276
0.018335
-0.0221212
-0.998147
1.00193
0.0265242
-0.0302085
-1.13675
1.14044
0.0342368
-0.0375024
-1.2884
1.29167
0.0402724
-0.0417296
-1.45226
1.45372
0.042243
-0.0411544
-1.62779
1.6267
0.0386816
-0.0343127
-1.52995
1.52558
0.0297365
-0.0240628
-1.22036
1.21469
0.0186434
-0.0122992
-0.984636
0.978292
0.00657385
-0.00058008
-0.769483
0.76349
-0.00370553
0.00700066
-0.529928
0.526633
-0.00884137
0.0089938
-0.295437
0.295284
-0.00806159
0.00643891
-0.125479
0.127102
-0.00486741
0.00310407
-0.0306919
0.0324552
-0.00178236
0.000732774
0.00575052
-0.00470094
-0.000180925
0.00485186
-0.00467093
-0.0765058
0.0756747
0.000831107
-0.00261214
0.00220891
-0.432729
0.433132
-0.00135063
-0.000432894
-0.614342
0.616125
0.0034447
-0.00681213
-0.755206
0.758573
0.0106069
-0.0145189
-0.879929
0.883841
0.0184926
-0.0223868
-1.0059
1.00979
0.0266853
-0.0300905
-1.14451
1.14792
0.034121
-0.0372456
-1.29468
1.29781
0.0399547
-0.041818
-1.45553
1.45739
0.042657
-0.0416713
-1.62559
1.6246
0.0392506
-0.035406
-1.52132
1.51748
0.0312156
-0.02576
-1.20886
1.2034
0.0204796
-0.014597
-0.971751
0.965869
0.0087221
-0.00305197
-0.756312
0.750641
-0.00147341
0.00491842
-0.520732
0.517287
-0.00670747
0.00742596
-0.292772
0.292054
-0.00703553
0.00596593
-0.127302
0.128372
-0.00466615
0.00311769
-0.0335666
0.0351151
-0.00186925
0.000825263
0.00377949
-0.00273551
-0.000222984
0.00446548
-0.0042425
-0.0769431
0.0762818
0.000661354
-0.00164354
0.00131981
-0.435823
0.436147
-3.41561e-05
-0.00179665
-0.619767
0.621598
0.00491617
-0.00811511
-0.761697
0.764896
0.011725
-0.0151983
-0.887387
0.890861
0.0192568
-0.0227921
-1.01366
1.01719
0.0269895
-0.0307819
-1.15174
1.15553
0.0343825
-0.0377707
-1.30093
1.30432
0.0408158
-0.042676
-1.4591
1.46096
0.0437683
-0.0434421
-1.62379
1.62346
0.0413373
-0.038003
-1.51347
1.51013
0.0339465
-0.028906
-1.19799
1.19295
0.0240329
-0.0183162
-0.95952
0.953803
0.0128253
-0.00719823
-0.743712
0.738085
0.00252141
0.00137249
-0.511349
0.507455
-0.00354872
0.00473196
-0.28932
0.288137
-0.00502586
0.00455571
-0.128122
0.128592
-0.0037495
0.00263972
-0.0359239
0.0370337
-0.00164757
0.000782335
0.00187678
-0.00101154
-0.000229421
0.0040198
-0.00379037
-0.0776709
0.0771919
0.00047903
-0.000580939
0.000146263
-0.439079
0.439513
0.00123201
-0.00328937
-0.624936
0.626993
0.00629024
-0.00930905
-0.767892
0.770911
0.0129855
-0.0162804
-0.894285
0.89758
0.0201496
-0.0237796
-1.02119
1.02482
0.0278427
-0.031563
-1.15914
1.16286
0.0353409
-0.0387059
-1.30758
1.31095
0.0418754
-0.0444215
-1.46306
1.46561
0.0458706
-0.0457461
-1.62302
1.62289
0.0442456
-0.0411567
-1.50666
1.50357
0.0376182
-0.0331194
-1.18787
1.18337
0.0283406
-0.0229189
-0.9478
0.942378
0.0176654
-0.0120048
-0.731486
0.725826
0.00733017
-0.00292669
-0.501769
0.497366
0.000282096
0.00160355
-0.284913
0.283027
-0.00246411
0.0026522
-0.127711
0.127523
-0.002415
0.00183383
-0.0373721
0.0379532
-0.00120708
0.000625051
0.000355017
0.000227009
-0.000194033
0.00359356
-0.00339952
-0.0786395