/*--------------------------------*- C++ -*----------------------------------*\
  =========                 |
  \\      /  F ield         | OpenFOAM: The Open Source CFD Toolbox
   \\    /   O peration     | Website:  https://openfoam.org
    \\  /    A nd           | Version:  10
     \\/     M anipulation  |
\*---------------------------------------------------------------------------*/
FoamFile
{
    format      ascii;
    class       volVectorField;
    location    "71";
    object      U;
}
// * * * * * * * * * * * * * * * * * * * * * * * * * * * * * * * * * * * * * //

dimensions      [0 1 -1 0 0 0 0];

internalField   nonuniform List<vector> 
8800
(
(0.980135 -0.09152 0)
(1.00234 -0.0587303 0)
(0.999585 -0.0321282 0)
(0.999988 -0.0165205 0)
(1.0001 -0.00883912 0)
(1.00012 -0.00509337 0)
(1.00007 -0.00298892 0)
(1.00003 -0.00167781 0)
(0.999998 -0.000775866 0)
(1.00007 -7.63636e-05 0)
(0.999975 0.00063348 0)
(0.999985 0.00139188 0)
(1.00003 0.00241342 0)
(1.00006 0.00400994 0)
(1.00004 0.00675332 0)
(1 0.0120536 0)
(0.999811 0.0230954 0)
(0.999035 0.0431551 0)
(1.00724 0.0790246 0)
(0.775026 0.0478395 0)
(0.359 -0.0147478 0)
(1.04651 -0.0724758 0)
(1.08848 -0.0660115 0)
(1.04945 -0.0509022 0)
(1.02556 -0.0376778 0)
(1.01278 -0.0258684 0)
(1.00661 -0.0166678 0)
(1.00365 -0.0101735 0)
(1.00219 -0.00553788 0)
(1.00151 -0.00193922 0)
(1.00137 0.00127547 0)
(1.00171 0.00458808 0)
(1.0027 0.00847553 0)
(1.00476 0.013775 0)
(1.00898 0.0214439 0)
(1.01794 0.0319298 0)
(1.0358 0.0446969 0)
(1.06743 0.0581341 0)
(1.09468 0.0699483 0)
(0.845605 0.0555092 0)
(0.217824 -0.00137939 0)
(1.0757 -0.050628 0)
(1.09943 -0.0489055 0)
(1.06442 -0.0399827 0)
(1.03995 -0.0325158 0)
(1.02386 -0.0252922 0)
(1.01406 -0.0180617 0)
(1.00854 -0.0114296 0)
(1.00566 -0.00566316 0)
(1.00447 -0.000364812 0)
(1.00477 0.00474962 0)
(1.00661 0.0100384 0)
(1.01057 0.0159932 0)
(1.01789 0.0227286 0)
(1.03048 0.0298205 0)
(1.05046 0.0368971 0)
(1.08003 0.0446636 0)
(1.10563 0.0519762 0)
(0.943205 0.0410271 0)
(0.21714 0.00140709 0)
(0.176706 -0.000627469 0)
(1.01949 -0.0354321 0)
(1.10576 -0.0413613 0)
(1.07803 -0.036334 0)
(1.05253 -0.0302765 0)
(1.03531 -0.0243851 0)
(1.02343 -0.0185732 0)
(1.01559 -0.0125585 0)
(1.01096 -0.00644732 0)
(1.0089 -0.000198185 0)
(1.0094 0.00596337 0)
(1.01247 0.0118772 0)
(1.01846 0.0176241 0)
(1.02804 0.0231706 0)
(1.04221 0.0287034 0)
(1.06303 0.0344678 0)
(1.09382 0.0403378 0)
(1.09436 0.0418425 0)
(0.830032 0.0228038 0)
(0.175538 0.000649741 0)
(0.154829 -0.000461131 0)
(0.958361 -0.0256507 0)
(1.1045 -0.0350471 0)
(1.08817 -0.0325811 0)
(1.06137 -0.0280577 0)
(1.04333 -0.0230756 0)
(1.03092 -0.0177517 0)
(1.02229 -0.0121874 0)
(1.01671 -0.00625591 0)
(1.01402 0.000213137 0)
(1.01462 0.00667689 0)
(1.01839 0.0125466 0)
(1.0252 0.0178364 0)
(1.03532 0.0228058 0)
(1.05002 0.0276081 0)
(1.07195 0.032026 0)
(1.10092 0.0358818 0)
(1.06953 0.0340599 0)
(0.742228 0.0144883 0)
(0.153077 0.000486143 0)
(0.140183 -0.00033284 0)
(0.901472 -0.0192774 0)
(1.09698 -0.0301339 0)
(1.09635 -0.0292322 0)
(1.06912 -0.0254287 0)
(1.05029 -0.0213191 0)
(1.0373 -0.0165925 0)
(1.02828 -0.011315 0)
(1.02229 -0.00556543 0)
(1.01925 0.000809997 0)
(1.01981 0.00718792 0)
(1.02378 0.0128328 0)
(1.03083 0.0177805 0)
(1.04131 0.0222041 0)
(1.05663 0.0261246 0)
(1.07942 0.029612 0)
(1.10317 0.0322989 0)
(1.03762 0.0282487 0)
(0.675233 0.0103512 0)
(0.137712 0.000362542 0)
(0.12949 -0.000251163 0)
(0.85175 -0.0148719 0)
(1.08472 -0.0260148 0)
(1.10209 -0.0263287 0)
(1.076 -0.0229821 0)
(1.05665 -0.0192984 0)
(1.04323 -0.0150694 0)
(1.03383 -0.0101725 0)
(1.02756 -0.0046404 0)
(1.02429 0.0015527 0)
(1.02472 0.00771504 0)
(1.02868 0.0130757 0)
(1.03588 0.0175956 0)
(1.04664 0.0214082 0)
(1.06232 0.0247262 0)
(1.08555 0.0277294 0)
(1.10231 0.0295082 0)
(1.00275 0.0237383 0)
(0.622963 0.00795917 0)
(0.126141 0.000287265 0)
(0.121356 -0.000192092 0)
(0.809433 -0.0116776 0)
(1.06953 -0.0224006 0)
(1.10569 -0.0236707 0)
(1.0823 -0.0207716 0)
(1.0625 -0.0173108 0)
(1.0488 -0.0133593 0)
(1.03914 -0.00877882 0)
(1.03259 -0.00351612 0)
(1.02906 0.00244767 0)
(1.02931 0.00834213 0)
(1.03321 0.0133478 0)
(1.04046 0.0174047 0)
(1.05131 0.0207373 0)
(1.06723 0.0236569 0)
(1.09084 0.0263375 0)
(1.09857 0.0272002 0)
(0.967415 0.020201 0)
(0.580922 0.00640401 0)
(0.116939 0.000235944 0)
(0.115068 -0.000147188 0)
(0.773807 -0.00928413 0)
(1.05282 -0.0192142 0)
(1.10811 -0.0212088 0)
(1.08822 -0.0186866 0)
(1.06801 -0.0153822 0)
(1.05405 -0.0115939 0)
(1.0442 -0.0072094 0)
(1.03741 -0.00218002 0)
(1.03361 0.00352708 0)
(1.03362 0.00911194 0)
(1.03738 0.0137382 0)
(1.04456 0.0173873 0)
(1.05541 0.020337 0)
(1.07155 0.0229238 0)
(1.09485 0.0252503 0)
(1.09197 0.0252993 0)
(0.932948 0.0174731 0)
(0.546093 0.00534154 0)
(0.109351 0.000200393 0)
(0.110177 -0.000111632 0)
(0.743947 -0.00742678 0)
(1.03568 -0.0163838 0)
(1.10959 -0.0188884 0)
(1.09386 -0.0166734 0)
(1.07335 -0.0134642 0)
(1.0591 -0.00976898 0)
(1.04905 -0.00550285 0)
(1.04203 -0.00063768 0)
(1.03794 0.00482671 0)
(1.03765 0.0100926 0)
(1.04117 0.0143574 0)
(1.04821 0.0176413 0)
(1.05903 0.020239 0)
(1.07539 0.0225324 0)
(1.09756 0.0244786 0)
(1.08289 0.0237534 0)
(0.899929 0.0154065 0)
(0.516402 0.00460382 0)
(0.102882 0.000176056 0)
(0.106393 -8.21875e-05 0)
(0.719035 -0.00592873 0)
(1.01892 -0.0138382 0)
(1.11025 -0.0166409 0)
(1.09939 -0.014702 0)
(1.07861 -0.0115066 0)
(1.06406 -0.00784144 0)
(1.05377 -0.00363395 0)
(1.0465 0.00112548 0)
(1.04207 0.00638827 0)
(1.0414 0.0113578 0)
(1.04461 0.0152817 0)
(1.05145 0.0182136 0)
(1.06222 0.0204717 0)
(1.07877 0.0225002 0)
(1.0989 0.0240361 0)
(1.0717 0.0225598 0)
(0.868474 0.0138885 0)
(0.49037 0.00409932 0)
(0.0971804 0.000160394 0)
(0.103525 -5.66583e-05 0)
(0.69843 -0.00467159 0)
(1.00318 -0.0115112 0)
(1.11024 -0.014429 0)
(1.10478 -0.0126861 0)
(1.08387 -0.00945512 0)
(1.06899 -0.00576078 0)
(1.05844 -0.00154929 0)
(1.05085 0.00315553 0)
(1.046 0.00826651 0)
(1.04487 0.0129712 0)
(1.0477 0.0165723 0)
(1.05432 0.0191584 0)
(1.06501 0.0210818 0)
(1.08169 0.0228503 0)
(1.09919 0.0239874 0)
(1.05869 0.0217343 0)
(0.838419 0.0128316 0)
(0.466891 0.00377133 0)
(0.0919831 0.000151522 0)
(0.101452 -3.31071e-05 0)
(0.68166 -0.00356699 0)
(0.988906 -0.00933256 0)
(1.10979 -0.0121682 0)
(1.10999 -0.0105381 0)
(1.08922 -0.0072506 0)
(1.07399 -0.00346669 0)
(1.06311 0.000814746 0)
(1.05513 0.00552213 0)
(1.04979 0.0105338 0)
(1.0481 0.0150027 0)
(1.05047 0.0182912 0)
(1.05681 0.0205335 0)
(1.06738 0.0221187 0)
(1.08412 0.0236153 0)
(1.09847 0.0243238 0)
(1.04399 0.0212862 0)
(0.809424 0.0121623 0)
(0.445093 0.00358122 0)
(0.0870829 0.000148011 0)
(0.100112 -9.84176e-06 0)
(0.668421 -0.0025455 0)
(0.976475 -0.0072282 0)
(1.1092 -0.00979814 0)
(1.11516 -0.00819609 0)
(1.09474 -0.00481523 0)
(1.07912 -0.000876518 0)
(1.06785 0.00353737 0)
(1.05941 0.0083147 0)
(1.05345 0.0132793 0)
(1.05108 0.0175394 0)
(1.05291 0.0205204 0)
(1.0589 0.0224065 0)
(1.06933 0.0236355 0)
(1.08609 0.0248641 0)
(1.09649 0.025113 0)
(1.02764 0.0212098 0)
(0.781048 0.0118294 0)
(0.424266 0.00350408 0)
(0.0823142 0.000148814 0)
(0.0994877 1.52682e-05 0)
(0.658554 -0.00155327 0)
(0.966201 -0.00512715 0)
(1.1088 -0.00725598 0)
(1.12044 -0.00558855 0)
(1.10051 -0.00206427 0)
(1.08446 0.00209757 0)
(1.07274 0.00671245 0)
(1.06373 0.0116308 0)
(1.05702 0.0166027 0)
(1.05384 0.0206811 0)
(1.05501 0.0233551 0)
(1.06059 0.0248671 0)
(1.07085 0.0257318 0)
(1.08751 0.0266462 0)
(1.09325 0.0263543 0)
(1.0096 0.0215416 0)
(0.752799 0.0118038 0)
(0.403808 0.00352495 0)
(0.0775395 0.000153426 0)
(0.0995972 3.54666e-05 0)
(0.652029 -0.000546664 0)
(0.958387 -0.00295907 0)
(1.10894 -0.00446908 0)
(1.12597 -0.0026285 0)
(1.10663 0.0011016 0)
(1.09013 0.00556218 0)
(1.07786 0.0104608 0)
(1.06814 0.0155927 0)
(1.06053 0.0206246 0)
(1.05638 0.0245396 0)
(1.05676 0.0269037 0)
(1.06186 0.0280375 0)
(1.0719 0.0285103 0)
(1.08817 0.0290529 0)
(1.08841 0.0281137 0)
(0.989689 0.0223175 0)
(0.724121 0.0120717 0)
(0.383176 0.0036349 0)
(0.0726354 0.000161378 0)
(0.1005 7.1522e-05 0)
(0.648948 0.000494657 0)
(0.953356 -0.000644863 0)
(1.10998 -0.00135296 0)
(1.13197 0.000781569 0)
(1.11323 0.00480123 0)
(1.09621 0.00965346 0)
(1.08328 0.0149245 0)
(1.07272 0.0203495 0)
(1.06401 0.0254953 0)
(1.05869 0.0292606 0)
(1.05813 0.0312962 0)
(1.06266 0.0320372 0)
(1.07243 0.0320918 0)
(1.08792 0.0322088 0)
(1.08174 0.0304859 0)
(0.967596 0.0235683 0)
(0.694398 0.0126225 0)
(0.361853 0.00382579 0)
(0.0674905 0.000172087 0)
(0.102379 0.00010564 0)
(0.649682 0.00167264 0)
(0.951466 0.00190512 0)
(1.11237 0.00219896 0)
(1.13865 0.00472972 0)
(1.12044 0.00918143 0)
(1.10283 0.0145268 0)
(1.08911 0.020271 0)
(1.07751 0.0260756 0)
(1.06748 0.0313905 0)
(1.06076 0.0350149 0)
(1.0591 0.0366761 0)
(1.06295 0.0370071 0)
(1.07237 0.0366118 0)
(1.08649 0.0362403 0)
(1.07294 0.0335595 0)
(0.942896 0.0253319 0)
(0.66297 0.0134507 0)
(0.339357 0.00409008 0)
(0.0620104 0.000184911 0)
(0.105304 0.000154508 0)
(0.654679 0.00314159 0)
(0.953198 0.00484488 0)
(1.11658 0.0063009 0)
(1.14623 0.0093954 0)
(1.12843 0.0144298 0)
(1.11013 0.0203891 0)
(1.09545 0.0267206 0)
(1.08258 0.0329917 0)
(1.07095 0.0385139 0)
(1.06258 0.0419731 0)
(1.05964 0.0432214 0)
(1.06265 0.0431133 0)
(1.07166 0.0422156 0)
(1.08372 0.0413288 0)
(1.06163 0.0374449 0)
(0.915013 0.0276516 0)
(0.629119 0.0145477 0)
(0.315231 0.00441834 0)
(0.0561161 0.000198896 0)
(0.10956 0.000217967 0)
(0.664339 0.00484168 0)
(0.958999 0.00830954 0)
(1.12311 0.0111209 0)
(1.15499 0.0149758 0)
(1.13742 0.0207748 0)
(1.11828 0.0274957 0)
(1.10241 0.0345437 0)
(1.08798 0.0413659 0)
(1.07442 0.0471135 0)
(1.06409 0.0503597 0)
(1.05967 0.0511298 0)
(1.06171 0.050541 0)
(1.07022 0.049069 0)
(1.07972 0.0475859 0)
(1.04728 0.0422542 0)
(0.883211 0.0305443 0)
(0.592076 0.0158888 0)
(0.289057 0.00479337 0)
(0.0497533 0.000212666 0)
(0.115487 0.000302996 0)
(0.679443 0.0069513 0)
(0.969508 0.0124974 0)
(1.13254 0.0169032 0)
(1.16532 0.0217382 0)
(1.14767 0.028535 0)
(1.12748 0.0361922 0)
(1.1101 0.0440908 0)
(1.09373 0.0515274 0)
(1.07784 0.0574763 0)
(1.06524 0.0604184 0)
(1.05901 0.060591 0)
(1.06004 0.0594708 0)
(1.06803 0.057387 0)
(1.07419 0.0552051 0)
(1.02919 0.0480622 0)
(0.846591 0.0340042 0)
(0.551052 0.0174221 0)
(0.260504 0.00518736 0)
(0.042908 0.000224304 0)
(0.12359 0.000425734 0)
(0.70095 0.00971646 0)
(0.985603 0.0177239 0)
(1.14551 0.0239975 0)
(1.17771 0.0300837 0)
(1.15949 0.0381782 0)
(1.13791 0.0469658 0)
(1.1186 0.0558313 0)
(1.09982 0.0638862 0)
(1.08114 0.0699223 0)
(1.0659 0.0723935 0)
(1.05766 0.0718344 0)
(1.05756 0.0700546 0)
(1.065 0.0672848 0)
(1.06675 0.0641658 0)
(1.00647 0.0549215 0)
(0.804099 0.0379611 0)
(0.505308 0.019051 0)
(0.229399 0.00555784 0)
(0.0356236 0.000231329 0)
(0.134601 0.000599531 0)
(0.73009 0.0135089 0)
(1.00845 0.0244616 0)
(1.16283 0.032954 0)
(1.19274 0.0406104 0)
(1.17324 0.0503784 0)
(1.14974 0.0604853 0)
(1.12792 0.070368 0)
(1.10612 0.0789282 0)
(1.08414 0.0848096 0)
(1.06591 0.0865405 0)
(1.05551 0.0850682 0)
(1.0542 0.082547 0)
(1.06076 0.0789037 0)
(1.05666 0.0746896 0)
(0.977934 0.0627927 0)
(0.754566 0.0422494 0)
(0.454273 0.0206202 0)
(0.195821 0.00584661 0)
(0.0280199 0.000230915 0)
(0.149786 0.000879585 0)
(0.76891 0.0189394 0)
(1.03971 0.0335035 0)
(1.18543 0.0447242 0)
(1.21124 0.0545192 0)
(1.18924 0.0661738 0)
(1.16303 0.0777065 0)
(1.13789 0.0884787 0)
(1.11238 0.0972164 0)
(1.08656 0.1025 0)
(1.06506 0.103087 0)
(1.05238 0.100431 0)
(1.04985 0.0970433 0)
(1.05502 0.09263 0)
(1.04304 0.0868275 0)
(0.942078 0.071467 0)
(0.696846 0.0465661 0)
(0.397758 0.0219025 0)
(0.160234 0.00598097 0)
(0.0203118 0.000220063 0)
(0.171369 0.00136393 0)
(0.820704 0.027184 0)
(1.08203 0.0464369 0)
(1.21445 0.0611915 0)
(1.23371 0.073768 0)
(1.20758 0.0871938 0)
(1.17752 0.0999543 0)
(1.14809 0.111103 0)
(1.11815 0.119345 0)
(1.08802 0.123321 0)
(1.06305 0.122198 0)
(1.0481 0.118022 0)
(1.04438 0.113578 0)
(1.04777 0.108302 0)
(1.02468 0.10044 0)
(0.897038 0.080514 0)
(0.630131 0.050445 0)
(0.336334 0.0226255 0)
(0.123648 0.00588924 0)
(0.0128225 0.000195839 0)
(0.202799 0.00244102 0)
(0.891261 0.0409835 0)
(1.13898 0.0671368 0)
(1.25029 0.0859069 0)
(1.25996 0.101149 0)
(1.22764 0.115796 0)
(1.19239 0.128817 0)
(1.1577 0.13921 0)
(1.12271 0.145839 0)
(1.08799 0.147503 0)
(1.05956 0.143927 0)
(1.04248 0.137836 0)
(1.03767 0.132144 0)
(1.03846 0.125845 0)
(0.999817 0.115107 0)
(0.840645 0.0891588 0)
(0.554638 0.0532916 0)
(0.272081 0.0226024 0)
(0.0879581 0.00556533 0)
(0.00606849 0.000159738 0)
(0.24561 0.00877375 4.04386e-20)
(0.984674 0.0685415 3.54511e-20)
(1.20828 0.101844 -1.24693e-20)
(1.28993 0.122447 0)
(1.28716 0.14027 -3.26153e-34)
(1.24728 0.154306 4.78764e-21)
(1.20606 0.165808 -8.72987e-21)
(1.16561 0.174022 0)
(1.12524 0.177948 1.81834e-34)
(1.0857 0.176494 -1.10282e-20)
(1.05366 0.170002 0)
(1.03439 0.161877 -1.3214e-20)
(1.02884 0.155234 -3.90675e-20)
(1.02575 0.148612 -1.84875e-20)
(0.964014 0.133255 -5.57733e-21)
(0.76627 0.0986723 -3.31664e-21)
(0.465148 0.0552916 0)
(0.203598 0.0221741 2.31779e-21)
(0.0532037 0.00525147 2.73604e-21)
(1.11636e-05 0.000112531 4.9355e-20)
(0.275609 0.0244853 2.76298e-20)
(1.06182 0.111632 5.49733e-22)
(1.26542 0.151318 3.23462e-21)
(1.32546 0.172121 0)
(1.31106 0.189698 -1.62409e-20)
(1.26418 0.201566 -1.86107e-20)
(1.21707 0.210749 -8.73328e-21)
(1.17083 0.216489 -3.14399e-20)
(1.12491 0.217659 0)
(1.08021 0.213159 4.68147e-20)
(1.04417 0.203881 4.66283e-20)
(1.02256 0.193792 1.38836e-20)
(1.01481 0.185573 5.08881e-20)
(1.00234 0.176912 7.1755e-20)
(0.906882 0.154104 0)
(0.664643 0.108016 1.01307e-19)
(0.359776 0.056536 1.45186e-19)
(0.132471 0.0209625 1.61158e-19)
(0.0183464 0.00373549 -1.84189e-19)
(-0.00610255 -0.000515086 -3.47194e-21)
(0.276646 0.040538 0)
(1.11063 0.167443 4.40321e-21)
(1.30399 0.212171 0)
(1.3531 0.232392 -1.98656e-20)
(1.32987 0.24683 0)
(1.27711 0.254806 -3.59721e-20)
(1.22451 0.260234 1.76874e-20)
(1.17279 0.26237 -6.27054e-20)
(1.12162 0.259894 -1.59093e-21)
(1.07204 0.251674 2.4079e-20)
(1.03228 0.239118 1.02472e-19)
(1.0085 0.226701 -1.96299e-22)
(0.998324 0.216612 -3.69406e-20)
(0.976553 0.204765 -6.74501e-20)
(0.854722 0.173591 7.98864e-20)
(0.590501 0.115905 -1.41409e-19)
(0.296761 0.0575275 -1.86397e-20)
(0.0943859 0.0194495 0)
(-0.000162323 0.00139653 -1.51396e-23)
(-0.00960455 -0.00135813 0)
(0.270062 0.054402 4.50852e-20)
(1.13695 0.226527 -2.38979e-20)
(1.3278 0.277492 -2.08395e-20)
(1.37148 0.297818 9.04393e-21)
(1.34215 0.308254 -1.53574e-20)
(1.28499 0.311663 7.49001e-20)
(1.22787 0.312639 3.66673e-20)
(1.17144 0.310498 0)
(1.1156 0.303792 -1.19432e-19)
(1.06159 0.291324 0)
(1.0184 0.275079 -5.35457e-20)
(0.992513 0.259994 -6.65541e-20)
(0.979933 0.247666 -4.01493e-20)
(0.949827 0.231872 -4.89073e-20)
(0.812011 0.192227 0)
(0.541587 0.124651 0)
(0.261762 0.0600623 -1.21099e-19)
(0.0731491 0.0182002 2.38906e-20)
(-0.0120842 -0.00136394 -1.39909e-20)
(-0.0124231 -0.00242268 -1.63678e-20)
(0.262144 0.0666106 -8.59473e-21)
(1.14839 0.285394 0)
(1.34086 0.343675 3.75529e-20)
(1.38155 0.364596 2.42179e-20)
(1.34798 0.371112 3.62263e-20)
(1.28763 0.369916 0)
(1.22696 0.366311 3.52969e-20)
(1.16667 0.35968 6.88146e-20)
(1.10681 0.348487 6.07744e-20)
(1.04885 0.331493 1.1322e-19)
(1.00249 0.311246 0)
(0.974593 0.293196 -1.43255e-19)
(0.959692 0.278237 -8.65255e-20)
(0.923128 0.258244 -5.12136e-20)
(0.777607 0.210946 3.13971e-19)
(0.510832 0.134895 3.72803e-20)
(0.243645 0.0641876 1.75004e-19)
(0.0623025 0.0174708 -8.26763e-19)
(-0.0195253 -0.00422856 4.88603e-19)
(-0.0147428 -0.00363208 -5.88993e-19)
(0.254431 0.0775786 7.67379e-21)
(1.15024 0.342155 1.21049e-21)
(1.34605 0.40879 -2.82844e-21)
(1.38493 0.430827 -2.06283e-20)
(1.34833 0.433663 -2.82815e-20)
(1.28559 0.428035 1.80057e-21)
(1.22214 0.41999 -3.82854e-20)
(1.15866 0.408923 7.0703e-20)
(1.09537 0.393234 -1.30709e-19)
(1.03389 0.371635 0)
(0.98459 0.347241 -6.46909e-20)
(0.954665 0.326037 -1.57858e-21)
(0.937512 0.308328 -9.47208e-20)
(0.896431 0.284178 0)
(0.749362 0.23014 -6.79401e-20)
(0.491664 0.146806 -1.60967e-19)
(0.236012 0.0700437 4.28188e-19)
(0.0594645 0.0179047 -4.21875e-19)
(-0.022464 -0.00653696 5.9792e-19)
(-0.0161963 -0.00479969 -6.21348e-19)
(0.247803 0.0876522 -4.23892e-22)
(1.14604 0.396132 3.20456e-21)
(1.34555 0.471835 -1.41326e-21)
(1.38304 0.495309 6.41484e-21)
(1.34425 0.494863 -1.38713e-20)
(1.27972 0.485088 0)
(1.21402 0.472851 -3.46994e-20)
(1.14788 0.457533 -7.37716e-20)
(1.08162 0.437481 -6.76762e-20)
(1.01696 0.411342 0)
(0.964901 0.382798 -6.68732e-20)
(0.932948 0.358385 -8.33482e-20)
(0.913665 0.33785 1.02769e-19)
(0.869589 0.309675 -6.24565e-20)
(0.724818 0.250002 -2.96642e-19)
(0.478741 0.160345 1.75722e-19)
(0.234765 0.0774536 5.20511e-20)
(0.0617099 0.019701 0)
(-0.0216158 -0.00782589 -5.78524e-19)
(-0.0166417 -0.00572357 -2.12251e-20)
(0.242392 0.0971457 4.37981e-21)
(1.13813 0.44714 -6.24203e-21)
(1.34085 0.532344 -5.99236e-22)
(1.37714 0.557324 2.56453e-20)
(1.33669 0.554053 -4.76483e-20)
(1.27081 0.5405 6.54802e-20)
(1.20329 0.524366 7.484e-20)
(1.13489 0.505057 -1.17807e-19)
(1.06598 0.480859 4.24338e-20)
(0.998422 0.450332 -2.78163e-19)
(0.943756 0.41772 -7.59701e-20)
(0.909814 0.390107 0)
(0.888484 0.366758 1.11642e-19)
(0.842348 0.334878 1.34054e-19)
(0.701865 0.270194 1.60039e-19)
(0.468328 0.174874 -1.91289e-19)
(0.23547 0.0861815 -5.64791e-20)
(0.066568 0.0230203 6.63979e-20)
(-0.0180183 -0.00784874 0)
(-0.0161549 -0.00628617 -4.61872e-20)
(0.238137 0.106228 -6.97165e-20)
(1.12822 0.495288 3.83627e-20)
(1.33324 0.590109 2.32564e-21)
(1.36826 0.616562 1.29663e-20)
(1.32649 0.610841 -1.92923e-20)
(1.25957 0.593877 -4.11326e-21)
(1.19055 0.574197 -8.22102e-20)
(1.1202 0.551207 -4.27377e-20)
(1.04894 0.523123 -1.17809e-19)
(0.978679 0.488425 3.27065e-22)
(0.921507 0.451865 -2.37669e-19)
(0.885595 0.421119 2.02043e-19)
(0.862326 0.395068 -1.23042e-19)
(0.814692 0.359593 1.48116e-19)
(0.679449 0.290148 0)
(0.457965 0.189899 -1.04298e-19)
(0.23638 0.0956043 3.1618e-22)
(0.0722974 0.0274458 -2.90562e-19)
(-0.0129929 -0.00685121 -4.26067e-20)
(-0.0150564 -0.00653256 0)
(0.234924 0.115045 0)
(1.11729 0.540805 4.443e-20)
(1.32364 0.645563 1.6542e-20)
(1.35723 0.672879 -9.11154e-21)
(1.31434 0.665023 -2.7334e-20)
(1.2466 0.645008 0)
(1.17635 0.622128 -3.60382e-20)
(1.10431 0.595786 -1.04026e-21)
(1.03088 0.564123 2.52768e-19)
(0.958069 0.525502 -3.81088e-20)
(0.898465 0.485142 -1.71895e-19)
(0.860655 0.451354 1.04934e-19)
(0.835565 0.42263 -2.23676e-21)
(0.786675 0.383641 1.5786e-19)
(0.65629 0.309537 9.68818e-20)
(0.446121 0.204826 -2.25369e-19)
(0.235526 0.105184 2.66596e-19)
(0.0772303 0.0325392 7.90109e-20)
(-0.00756691 -0.00502336 3.25356e-19)
(-0.0135421 -0.00646739 -8.69063e-19)
(0.232681 0.123761 -2.37576e-20)
(1.10606 0.58387 3.17597e-20)
(1.31267 0.698022 -2.11198e-20)
(1.34467 0.72626 1.63529e-21)
(1.3008 0.716504 0)
(1.23243 0.693767 -2.71768e-20)
(1.16115 0.668034 1.22769e-19)
(1.0876 0.638679 9.33619e-20)
(1.01217 0.603756 0)
(0.936897 0.561488 -5.51485e-19)
(0.874907 0.517493 4.66206e-19)
(0.835243 0.480741 0)
(0.80842 0.449329 1.44386e-19)
(0.758382 0.406761 -2.21817e-21)
(0.632116 0.328004 -3.11692e-19)
(0.432446 0.218775 1.21635e-19)
(0.232188 0.114366 0)
(0.0803622 0.037706 4.27355e-19)
(-0.00279376 -0.00285436 0)
(-0.0119429 -0.00620953 -4.12352e-19)
(0.23127 0.132438 2.86742e-20)
(1.09496 0.624757 4.18316e-20)
(1.30093 0.747553 -2.0737e-20)
(1.33107 0.776723 0)
(1.28635 0.765268 -1.90847e-20)
(1.21749 0.74012 0)
(1.14533 0.711853 -1.19019e-19)
(1.07043 0.679818 -4.23989e-20)
(0.993128 0.641973 4.42865e-20)
(0.915447 0.596351 -2.73097e-19)
(0.851058 0.548899 4.80593e-20)
(0.809556 0.509194 0)
(0.78107 0.475021 -3.08896e-19)
(0.729801 0.428709 2.12098e-21)
(0.606607 0.345119 0)
(0.416709 0.231251 9.41581e-22)
(0.226126 0.122449 3.91702e-19)
(0.0809936 0.0422673 -3.69727e-19)
(0.000581689 -0.000851449 1.09079e-19)
(-0.0105215 -0.00588096 0)
(0.230369 0.140988 0)
(1.08427 0.663561 5.07644e-20)
(1.28862 0.794315 3.1414e-20)
(1.31685 0.824319 -2.55695e-21)
(1.27137 0.811344 -2.96851e-21)
(1.20211 0.784068 -6.13544e-20)
(1.12923 0.753573 4.53575e-20)
(1.05309 0.719181 -5.10244e-20)
(0.974016 0.678744 1.99052e-19)
(0.893942 0.630087 -4.375e-19)
(0.827093 0.579354 -4.21484e-21)
(0.783728 0.536671 -1.34846e-19)
(0.753624 0.49958 5.0221e-19)
(0.701092 0.449239 -2.56617e-21)
(0.580323 0.360457 -2.42938e-19)
(0.39893 0.241862 -4.30922e-19)
(0.217652 0.12892 0)
(0.0792928 0.0456365 0)
(0.00242275 0.000594065 1.17882e-19)
(-0.00939568 -0.00560049 -6.91426e-20)
(0.23019 0.149534 4.06399e-20)
(1.07421 0.700183 -1.15646e-19)
(1.27601 0.838463 -3.36863e-20)
(1.30235 0.869109 0)
(1.25615 0.854792 -1.50223e-21)
(1.1866 0.825642 -5.2277e-20)
(1.1131 0.793205 1.07039e-19)
(1.03585 0.756763 1.98501e-19)
(0.955065 0.714069 2.58348e-19)
(0.872595 0.662712 -3.57499e-19)
(0.803179 0.608887 -4.02752e-19)
(0.757853 0.563188 3.61111e-19)
(0.726105 0.522929 0)
(0.672199 0.468046 -1.10765e-19)
(0.553332 0.37361 -2.62733e-19)
(0.379552 0.250079 -3.10265e-19)
(0.206933 0.133429 -3.65934e-19)
(0.0756363 0.0475384 1.08065e-19)
(0.0029128 0.00130534 -6.35146e-20)
(-0.00858304 -0.00543048 3.1373e-22)
(0.230167 0.157995 0)
(1.06488 0.734943 0)
(1.26338 0.880081 2.4655e-21)
(1.28779 0.91121 0)
(1.24093 0.895705 -3.54106e-21)
(1.17117 0.864905 3.21881e-20)
(1.09715 0.83078 0)
(1.01889 0.792581 2.31302e-20)
(0.936477 0.747958 4.30934e-19)
(0.851599 0.694255 -8.234e-19)
(0.779454 0.637563 0)
(0.731977 0.588812 -2.33033e-19)
(0.698444 0.545004 -3.01105e-21)
(0.643062 0.484875 -2.24642e-21)
(0.525798 0.384224 2.81707e-19)
(0.35871 0.255611 -6.07102e-24)
(0.194553 0.135629 -7.88946e-19)
(0.0703691 0.0479466 2.32599e-19)
(0.00234479 0.00131431 6.8758e-20)
(-0.00802306 -0.00535376 0)
(0.230272 0.166329 -1.63525e-19)
(1.05605 0.768056 -7.86884e-20)
(1.25082 0.919258 -1.01076e-19)
(1.27335 0.950764 9.40496e-20)
(1.22591 0.934159 -2.13293e-20)
(1.156 0.901922 0)
(1.08155 0.866347 6.31657e-20)
(1.00238 0.826661 -5.21177e-20)
(0.918414 0.780431 3.92966e-21)
(0.831122 0.724754 6.09719e-20)
(0.756049 0.66547 5.23104e-19)
(0.706126 0.61365 -8.1766e-20)
(0.67055 0.565804 -3.10712e-19)
(0.613546 0.49952 -1.29319e-19)
(0.497754 0.391955 1.52824e-19)
(0.336982 0.258164 1.51777e-22)
(0.181079 0.135427 2.12601e-19)
(0.0640567 0.0468783 -5.00835e-19)
(0.00112799 0.000769601 5.91964e-19)
(-0.00761456 -0.00533329 8.63025e-20)
(0.230354 0.174415 6.224e-20)
(1.04772 0.799598 -4.44145e-20)
(1.23847 0.9561 6.25488e-21)
(1.25916 0.987905 6.17627e-20)
(1.21121 0.970268 1.12867e-20)
(1.14123 0.936769 -5.32902e-20)
(1.06645 0.899957 1.70908e-20)
(0.986444 0.859028 -2.16748e-19)
(0.901016 0.811493 -4.75053e-19)
(0.811307 0.754224 -4.91548e-19)
(0.733109 0.692704 0)
(0.680324 0.637836 -3.60463e-19)
(0.642295 0.585409 4.48738e-19)
(0.583402 0.511812 0)
(0.469227 0.396357 -3.27714e-19)
(0.315168 0.257264 1.9451e-19)
(0.167599 0.132632 -2.28742e-19)
(0.0578153 0.0445876 -2.69569e-19)
(-0.00025355 -0.000109402 -4.76923e-19)
(-0.00733927 -0.00536616 -3.71891e-19)
(0.230783 0.18238 -7.05608e-20)
(1.03973 0.829569 4.75294e-20)
(1.2264 0.990681 1.07727e-19)
(1.2453 1.02272 9.12265e-20)
(1.19694 1.00413 -1.97465e-20)
(1.12695 0.969534 -2.45772e-20)
(1.05192 0.931664 5.82044e-20)
(0.971187 0.889725 -2.21702e-19)
(0.884375 0.841171 -2.81678e-19)
(0.792282 0.782688 5.15131e-19)
(0.710761 0.719349 1.1525e-18)
(0.654632 0.661535 0)
(0.613548 0.603994 0)
(0.55226 0.521713 -1.49008e-19)
(0.439912 0.396928 0)
(0.293617 0.251939 4.17993e-19)
(0.15578 0.126364 4.91721e-19)
(0.0537335 0.040906 0)
(-0.000597466 -0.00107678 0)
(-0.00716164 -0.00542806 3.99765e-19)
(0.230918 0.189927 8.04329e-20)
(1.03212 0.857968 6.48298e-20)
(1.21466 1.02313 7.83665e-20)
(1.23185 1.05535 -8.89369e-20)
(1.18318 1.03584 -2.81565e-20)
(1.11323 1.00029 1.89493e-20)
(1.03803 0.961528 -7.92183e-20)
(0.956675 0.918782 -7.14265e-22)
(0.868581 0.869471 -5.12082e-21)
(0.77415 0.810151 -4.35016e-21)
(0.68915 0.745463 5.94365e-19)
(0.629154 0.684919 0)
(0.584224 0.621834 4.56204e-19)
(0.519663 0.529375 3.18693e-19)
(0.409035 0.393374 7.65688e-19)
(0.271936 0.240699 2.25432e-19)
(0.147294 0.113627 -2.64564e-19)
(0.0566811 0.0322404 -1.55331e-19)
(0.00676203 -0.00338686 0)
(-0.00486226 -0.00474939 4.29729e-19)
(0.231394 0.197499 -1.81788e-19)
(1.02483 0.884885 0)
(1.20326 1.0535 9.27852e-20)
(1.21885 1.08584 -7.58041e-20)
(1.16998 1.06552 4.09948e-20)
(1.10011 1.02914 -8.92278e-21)
(1.02485 0.989609 1.48633e-19)
(0.942951 0.946232 -1.83319e-20)
(0.853683 0.896404 0)
(0.756996 0.836593 -5.69004e-19)
(0.66842 0.771069 -1.29408e-18)
(0.604041 0.708166 5.33869e-20)
(0.554337 0.639268 6.31599e-19)
(0.485248 0.535231 0)
(0.375297 0.386039 5.17647e-19)
(0.247729 0.22216 0)
(0.139897 0.0876796 0)
(0.0717897 0.00328898 -1.67955e-19)
(0.0443705 -0.0171851 0)
(0.0263481 0.00969503 1.15212e-19)
(0.231529 0.204498 -2.03531e-19)
(1.01783 0.910672 0)
(1.19218 1.082 1.55021e-19)
(1.20625 1.11445 0)
(1.15729 1.09342 -2.57879e-20)
(1.08755 1.05635 0)
(1.0123 1.01622 6.34389e-21)
(0.929916 0.972413 3.04863e-20)
(0.839556 0.922327 3.54708e-20)
(0.740651 0.862393 -6.24159e-19)
(0.648374 0.796598 3.87387e-20)
(0.579039 0.731941 4.31245e-19)
(0.52341 0.657137 6.17082e-19)
(0.448044 0.539908 8.32614e-20)
(0.336567 0.376247 4.06618e-19)
(0.215583 0.19725 0)
(0.120897 0.0435985 5.57631e-19)
(0.0663253 -0.0385601 -3.25318e-19)
(0.0411939 0.0401005 3.78592e-19)
(-0.0690985 0.438722 -4.46047e-19)
(0.231674 0.211318 1.68807e-19)
(1.01086 0.935094 2.5933e-19)
(1.18133 1.10895 0)
(1.19392 1.14162 4.88701e-21)
(1.14492 1.12012 7.79478e-20)
(1.07527 1.08261 -2.17926e-20)
(1.00007 1.04214 4.83327e-20)
(0.917153 0.998252 0)
(0.825658 0.948315 2.32795e-19)
(0.724432 0.888843 -3.23317e-20)
(0.62808 0.823521 0)
(0.552848 0.757915 0)
(0.489371 0.676869 5.54334e-19)
(0.40554 0.543895 -2.57913e-19)
(0.28947 0.365726 -4.1332e-19)
(0.170259 0.169044 0)
(0.0711362 0.0561077 2.8162e-19)
(0.00263888 0.436261 -3.24626e-19)
(0.0323536 1.89591 -1.77037e-19)
(0.061479 2.81449 -2.26944e-19)
(0.231672 0.21734 -1.27019e-19)
(1.00412 0.958344 -3.33313e-19)
(1.17072 1.13432 9.23579e-20)
(1.18185 1.16721 7.51892e-20)
(1.13289 1.14538 0)
(1.06334 1.10763 -2.59718e-20)
(0.988344 1.06708 6.08742e-20)
(0.904858 1.02332 -1.45339e-20)
(0.812265 0.97386 3.49527e-20)
(0.70873 0.915343 5.9491e-19)
(0.60815 0.851223 6.56505e-19)
(0.526387 0.78575 4.85535e-19)
(0.453015 0.698696 5.59361e-19)
(0.35919 0.546315 -6.08625e-19)
(0.239125 0.358228 -6.26178e-19)
(0.115616 0.215192 0)
(0.0411212 0.834573 0)
(0.0984915 2.5545 1.55107e-19)
(0.0998476 3.20404 0)
(0.103272 3.38907 3.67955e-19)
(0.234204 0.222929 0)
(0.998201 0.980627 0)
(1.16013 1.15798 0)
(1.16983 1.19107 2.29149e-20)
(1.12086 1.16896 7.1591e-20)
(1.05155 1.13129 -3.17257e-20)
(0.977029 1.09092 3.72331e-20)
(0.892992 1.04752 -1.40418e-20)
(0.799347 0.998827 2.88668e-19)
(0.693583 0.94176 -8.7286e-21)
(0.588751 0.879632 1.29828e-18)
(0.499958 0.81531 -5.62531e-20)
(0.414518 0.723874 6.78367e-20)
(0.311512 0.544882 8.83458e-20)
(0.175612 0.369605 -5.89825e-21)
(0.0954057 0.961749 1.84249e-21)
(0.136702 2.72691 -8.26183e-19)
(0.144516 3.2934 -3.08337e-19)
(0.134149 3.42542 1.58076e-19)
(0.122238 3.44759 -1.75602e-19)
(0.15311 0.180428 7.54153e-20)
(0.98689 1.00468 0)
(1.14916 1.18012 -1.85515e-19)
(1.15839 1.21371 -2.0504e-19)
(1.10972 1.19169 1.72302e-19)
(1.04084 1.15427 3.83941e-20)
(0.966059 1.11376 -3.56846e-20)
(0.881668 1.07098 1.48384e-19)
(0.78708 1.0234 -2.35127e-19)
(0.679294 0.968281 0)
(0.570319 0.908978 6.37953e-19)
(0.474132 0.846493 -3.97352e-19)
(0.375995 0.755291 0)
(0.256638 0.540072 8.28379e-20)
(0.138531 0.722941 1.97349e-19)
(0.152486 2.50185 -2.27889e-19)
(0.20856 3.32179 2.54793e-19)
(0.189329 3.43708 1.36105e-19)
(0.157798 3.45888 1.51795e-19)
(0.136487 3.46937 2.39243e-19)
(0.276863 0.26051 -1.37563e-19)
(0.97126 1.01413 0)
(1.13079 1.20531 2.02757e-19)
(1.14313 1.24409 2.25289e-19)
(1.09217 1.22468 -1.92993e-19)
(1.02252 1.18762 -6.13914e-20)
(0.946809 1.14874 1.95526e-20)
(0.861886 1.10719 1.18026e-20)
(0.765938 1.0618 2.21684e-19)
(0.655294 1.01063 5.1145e-19)
(0.540792 0.957869 3.57762e-20)
(0.43307 0.900021 3.53952e-19)
(0.304571 0.789313 6.3945e-20)
(0.210104 0.902471 -8.159e-20)
(0.227138 2.34943 -1.83765e-19)
(0.288855 3.3229 1.73528e-19)
(0.271728 3.46459 -1.90164e-19)
(0.236569 3.48704 -1.09093e-19)
(0.19979 3.51512 -8.9324e-20)
(0.148435 3.50977 -1.04705e-20)
(0.264644 0.257328 0)
(0.968683 1.03657 5.91156e-20)
(1.12228 1.22868 -4.19757e-20)
(1.13235 1.26768 -2.70517e-20)
(1.08121 1.24785 -1.34415e-19)
(1.01151 1.21101 6.46521e-20)
(0.935467 1.17227 -4.64867e-21)
(0.850324 1.13152 1.03728e-20)
(0.753809 1.08762 -2.29424e-19)
(0.641786 1.03937 -1.35469e-20)
(0.524295 0.991581 -1.15295e-18)
(0.411019 0.938032 5.06867e-20)
(0.284763 0.853923 -6.02616e-20)
(0.253368 1.47074 -7.52309e-20)
(0.329452 3.09888 1.81942e-20)
(0.348327 3.46126 7.21354e-23)
(0.308185 3.51796 2.67986e-19)
(0.270952 3.54553 1.27622e-19)
(0.222424 3.5695 -2.57579e-20)
(0.163543 3.56598 -4.66141e-20)
(0.248493 0.255828 1.50166e-19)
(0.964515 1.06167 4.0381e-19)
(1.11337 1.25415 -1.20339e-19)
(1.12099 1.29269 -1.02041e-19)
(1.06962 1.27235 0)
(1.00006 1.23558 1.21251e-19)
(0.923995 1.19707 8.17409e-21)
(0.838913 1.15712 8.82504e-21)
(0.742155 1.11482 -2.57656e-20)
(0.62929 1.06976 -4.59081e-19)
(0.509668 1.02734 -5.30521e-19)
(0.392477 0.97729 -4.12823e-19)
(0.285979 0.983485 -4.56735e-19)
(0.324238 2.19822 4.71085e-19)
(0.417619 3.3704 3.88571e-19)
(0.393362 3.51829 0)
(0.348112 3.56439 0)
(0.310091 3.6061 -1.92897e-20)
(0.259388 3.66674 0)
(0.176391 3.64326 -1.28594e-20)
(0.237867 0.257711 -2.25291e-19)
(0.958428 1.08786 -3.43371e-19)
(1.10302 1.28079 0)
(1.10824 1.31841 5.86283e-21)
(1.05674 1.29746 -1.47089e-19)
(0.987468 1.26062 1.99178e-19)
(0.911722 1.2224 1.39003e-20)
(0.826909 1.18315 3.83047e-21)
(0.730147 1.1424 -1.57562e-19)
(0.616858 1.10053 2.25558e-20)
(0.496055 1.0636 0)
(0.373488 1.0179 0)
(0.307366 1.24209 -4.15247e-19)
(0.409327 2.87898 1.68106e-19)