/*--------------------------------*- C++ -*----------------------------------*\
  =========                 |
  \\      /  F ield         | OpenFOAM: The Open Source CFD Toolbox
   \\    /   O peration     | Website:  https://openfoam.org
    \\  /    A nd           | Version:  10
     \\/     M anipulation  |
\*---------------------------------------------------------------------------*/
FoamFile
{
    format      ascii;
    class       volScalarField;
    location    "65";
    object      p;
}
// * * * * * * * * * * * * * * * * * * * * * * * * * * * * * * * * * * * * * //

dimensions      [0 2 -2 0 0 0 0];

internalField   nonuniform List<scalar> 
8800
(
0.806509
0.758723
0.720036
0.691044
0.670185
0.655362
0.644777
0.637313
0.632516
0.630491
0.631794
0.636013
0.64268
0.652012
0.664803
0.682545
0.707327
0.741271
0.783824
0.842526
0.637754
0.645433
0.652912
0.656222
0.654722
0.64965
0.643173
0.637109
0.632407
0.629592
0.629348
0.631888
0.636404
0.642369
0.649151
0.65544
0.659087
0.658354
0.652939
0.644252
0.616151
0.622311
0.62644
0.629388
0.631443
0.632055
0.63096
0.628873
0.626883
0.626011
0.627012
0.629427
0.63225
0.634448
0.635068
0.633878
0.631542
0.628154
0.623598
0.619837
0.61033
0.612981
0.615735
0.618142
0.619783
0.620953
0.621707
0.621844
0.621578
0.621567
0.622363
0.623568
0.624435
0.624519
0.623924
0.622843
0.621034
0.618469
0.616069
0.614565
0.604935
0.60636
0.608142
0.610178
0.611968
0.613319
0.614323
0.615142
0.615789
0.616398
0.617098
0.617634
0.617764
0.617499
0.616818
0.615582
0.613895
0.612053
0.61075
0.609918
0.59984
0.60076
0.602004
0.603576
0.605215
0.606751
0.608052
0.609144
0.610146
0.61109
0.611836
0.612211
0.612204
0.611791
0.61093
0.609744
0.608428
0.607176
0.606357
0.605805
0.59491
0.59558
0.596545
0.597852
0.599269
0.600739
0.602197
0.603548
0.604788
0.605955
0.606842
0.607265
0.607222
0.606745
0.605962
0.605032
0.604034
0.603119
0.602538
0.602132
0.590098
0.590614
0.591401
0.592537
0.593823
0.59521
0.596677
0.598181
0.599656
0.601061
0.602143
0.602679
0.602704
0.602357
0.601783
0.601079
0.600322
0.599649
0.599219
0.598902
0.585331
0.585742
0.586401
0.587414
0.588629
0.589971
0.591439
0.593031
0.594706
0.596382
0.597717
0.598451
0.598674
0.59855
0.598202
0.597712
0.597162
0.596683
0.596365
0.596106
0.580524
0.580858
0.581428
0.582362
0.58353
0.584859
0.586366
0.588059
0.589927
0.591898
0.593559
0.594595
0.595102
0.595236
0.595121
0.594858
0.594505
0.594187
0.593954
0.593736
0.575586
0.575863
0.576372
0.57726
0.578412
0.579767
0.58135
0.583187
0.585289
0.587603
0.589675
0.5911
0.591946
0.592374
0.592517
0.592483
0.592326
0.592151
0.591985
0.591796
0.570427
0.57066
0.57113
0.572003
0.573178
0.574603
0.576305
0.57834
0.580742
0.583482
0.586057
0.587948
0.589191
0.589959
0.590389
0.590592
0.590635
0.59059
0.59048
0.590312
0.564955
0.565153
0.565604
0.566492
0.567731
0.56927
0.571146
0.573447
0.576231
0.579504
0.582687
0.585134
0.586842
0.587998
0.588751
0.589208
0.589466
0.589546
0.589483
0.589328
0.559068
0.559237
0.559686
0.560617
0.561962
0.563667
0.565784
0.56843
0.571698
0.575629
0.579551
0.58266
0.584917
0.58652
0.587641
0.588406
0.588878
0.589077
0.589054
0.588908
0.552645
0.55279
0.553251
0.554256
0.555753
0.557682
0.560118
0.563206
0.567081
0.57182
0.576635
0.580536
0.583444
0.585573
0.587115
0.588214
0.588931
0.589255
0.58927
0.589127
0.545547
0.545667
0.546155
0.547264
0.548965
0.55119
0.554033
0.55768
0.56231
0.568037
0.573931
0.578777
0.582453
0.585204
0.587243
0.588728
0.589719
0.590172
0.59022
0.590077
0.537585
0.537686
0.538219
0.539467
0.541431
0.544029
0.547392
0.551743
0.557307
0.56424
0.571432
0.577404
0.581988
0.585469
0.588104
0.590042
0.591338
0.591926
0.592006
0.591859
0.528539
0.528639
0.529226
0.530634
0.532929
0.536014
0.540036
0.545268
0.551988
0.560391
0.569141
0.576449
0.582105
0.586442
0.589783
0.592247
0.59389
0.594622
0.594731
0.594576
0.518089
0.51817
0.518847
0.52048
0.523211
0.526917
0.531771
0.53811
0.546265
0.556459
0.567071
0.575951
0.582866
0.588214
0.592359
0.595449
0.597481
0.598362
0.598495
0.598329
0.505859
0.505926
0.506703
0.508648
0.511936
0.516441
0.52236
0.530099
0.540039
0.552412
0.565238
0.575959
0.584333
0.590856
0.595941
0.599751
0.602205
0.603235
0.603387
0.603205
0.491289
0.491345
0.492265
0.494627
0.498654
0.504209
0.511516
0.52105
0.533222
0.54824
0.563677
0.57653
0.586572
0.594441
0.600611
0.605228
0.60813
0.609299
0.609459
0.609259
0.473611
0.473656
0.474789
0.477736
0.482776
0.489751
0.498905
0.510774
0.525751
0.543969
0.562452
0.577733
0.589656
0.599042
0.606403
0.611927
0.615277
0.616561
0.616715
0.616494
0.451657
0.451699
0.453181
0.457011
0.46351
0.472485
0.484172
0.499121
0.517632
0.539684
0.561664
0.579651
0.593649
0.604705
0.613372
0.619834
0.623595
0.624946
0.625075
0.624833
0.423671
0.423734
0.425808
0.431063
0.439832
0.451743
0.467
0.486043
0.508968
0.535547
0.561459
0.582382
0.598599
0.611424
0.621488
0.628863
0.632934
0.63428
0.634361
0.634101
0.386605
0.38677
0.39006
0.397945
0.410539
0.426941
0.447289
0.471705
0.500028
0.531816
0.562027
0.586041
0.604557
0.619207
0.630669
0.63882
0.643031
0.64427
0.644283
0.644009
0.334614
0.335605
0.342147
0.355436
0.374682
0.398031
0.4254
0.456609
0.491292
0.528861
0.563591
0.590743
0.611547
0.62795
0.640713
0.649395
0.653498
0.654529
0.654465
0.654185
0.25873
0.266065
0.2812
0.304618
0.333774
0.36643
0.402379
0.441405
0.483138
0.526963
0.566524
0.597012
0.620267
0.638558
0.652534
0.661524
0.665368
0.666178
0.666066
0.665821
0.177197
0.194541
0.219061
0.253239
0.292696
0.33479
0.379375
0.426399
0.475557
0.526288
0.571536
0.606116
0.6323
0.652804
0.66811
0.676999
0.680197
0.680728
0.680647
0.680486
0.109228
0.129654
0.161924
0.205251
0.253799
0.304777
0.357737
0.412598
0.469034
0.526471
0.577128
0.615514
0.644384
0.66668
0.682617
0.691065
0.693807
0.69428
0.694263
0.694146
0.0535598
0.0756484
0.113453
0.16324
0.218974
0.27744
0.337817
0.399885
0.463173
0.527
0.582798
0.624753
0.656061
0.679885
0.696456
0.704856
0.707386
0.707835
0.707846
0.707759
0.00724019
0.0305059
0.072108
0.127025
0.188537
0.253194
0.319942
0.388413
0.457973
0.527795
0.588494
0.633862
0.667515
0.692916
0.710245
0.71879
0.72141
0.7218
0.721827
0.721765
-0.0320051
-0.00808413
0.0363944
0.0953669
0.161738
0.231661
0.303947
0.378127
0.453431
0.528866
0.594234
0.642898
0.678848
0.705779
0.724005
0.732994
0.735727
0.736138
0.736175
0.736134
-0.066213
-0.0418714
0.00487077
0.0671935
0.137673
0.212184
0.289394
0.36874
0.449336
0.530042
0.599873
0.651737
0.689951
0.718396
0.737602
0.7471
0.750051
0.750485
0.750529
0.750508
-0.096891
-0.072184
-0.0235985
0.0415858
0.115615
0.194154
0.275782
0.359842
0.445364
0.53108
0.605213
0.660186
0.70059
0.730595
0.750643
0.760666
0.763887
0.764397
0.764457
0.76444
-0.125018
-0.0999862
-0.0498255
0.0178314
0.0949788
0.177091
0.262699
0.351095
0.441248
0.531756
0.610064
0.668056
0.710573
0.741988
0.762931
0.773442
0.776905
0.777509
0.777538
0.777526
-0.151406
-0.126005
-0.074419
-0.00461046
0.0753237
0.160629
0.249845
0.342241
0.436744
0.53186
0.614264
0.675222
0.71978
0.752565
0.774268
0.785182
0.788837
0.789492
0.7895
0.789477
-0.176441
-0.150668
-0.0978046
-0.0260916
0.0563322
0.144507
0.236994
0.333077
0.431681
0.531264
0.617729
0.681643
0.728192
0.762227
0.784523
0.795747
0.799529
0.80021
0.800191
0.800149
-0.200562
-0.174335
-0.120434
-0.0468581
0.0377784
0.128528
0.223991
0.323475
0.425941
0.529853
0.620384
0.687304
0.735836
0.771015
0.793823
0.805204
0.808993
0.809679
0.809637
0.809581
-0.223908
-0.197217
-0.14231
-0.0670909
0.0195221
0.112583
0.210741
0.313354
0.419441
0.527548
0.622183
0.692222
0.742796
0.779076
0.802242
0.813587
0.817353
0.817997
0.817929
0.81785
-0.246623
-0.219481
-0.163543
-0.0868915
0.00149496
0.0966212
0.197201
0.302663
0.412129
0.524286
0.623075
0.696416
0.749181
0.786558
0.809935
0.821125
0.824739
0.825317
0.825224
0.825128
-0.268843
-0.241181
-0.184258
-0.106303
-0.0163442
0.080622
0.183367
0.291407
0.40399
0.520018
0.623003
0.699888
0.755103
0.793656
0.817112
0.827942
0.831285
0.831758
0.831628
0.831518
-0.290617
-0.262334
-0.20451
-0.125338
-0.0339788
0.0646009
0.16927
0.279613
0.395035
0.514706
0.621903
0.702615
0.760651
0.800572
0.823987
0.834202
0.837079
0.837379
0.837212
0.837091
-0.311793
-0.282924
-0.224235
-0.143981
-0.0513884
0.0486123
0.154958
0.267339
0.385304
0.508359
0.6197
0.704533
0.765849
0.807521
0.830903
0.840169
0.842271
0.842293
0.842099
0.841985
-0.33236
-0.302929
-0.243428
-0.162193
-0.0685257
0.0327051
0.14051
0.254652
0.374866
0.500989
0.616334
0.705523
0.770651
0.814668
0.838316
0.846392
0.847192
0.84661
0.846364
0.846313
-0.352386
-0.32232
-0.262074
-0.179951
-0.0853347
0.0169548
0.126005
0.241647
0.363799
0.492647
0.611745
0.705433
0.7749
0.822003
0.846679
0.853797
0.852709
0.850743
0.850209
0.85047
-0.371709
-0.341083
-0.28012
-0.197205
-0.101763
0.00143877
0.111533
0.228428
0.352213
0.483417
0.605908
0.704072
0.778329
0.829234
0.856095
0.863486
0.860842
0.856474
0.854248
0.854119
-0.390426
-0.35921
-0.297588
-0.213988
-0.117844
-0.0138858
0.0970386
0.214942
0.340043
0.473228
0.598689
0.701166
0.780646
0.835897
0.866043
0.875889
0.873995
0.866953
0.859368
0.845683
-0.408465
-0.376688
-0.314594
-0.230498
-0.133857
-0.029341
0.082119
0.200722
0.326776
0.461473
0.589477
0.695983
0.781361
0.841396
0.875002
0.889107
0.88848
0.875203
0.854765
0.844052
-0.425658
-0.393666
-0.33095
-0.246545
-0.14945
-0.0445893
0.0669941
0.186084
0.312703
0.448389
0.578296
0.687989
0.779553
0.844527
0.878907
0.892924
0.894321
0.869814
0.802478
0.772413
-0.441345
-0.411408
-0.346346
-0.261651
-0.163824
-0.0591312
0.0519812
0.171255
0.298038
0.434088
0.565051
0.676823
0.77367
0.844516
0.872481
0.881473
0.867617
0.811913
0.742708
0.700241
-0.496233
-0.427054
-0.360273
-0.276947
-0.17863
-0.0744491
0.0370083
0.155946
0.282398
0.418091
0.549094
0.661749
0.759667
0.837282
0.839223
0.839148
0.78584
0.713387
0.636013
0.592976
-0.457928
-0.441991
-0.381063
-0.296641
-0.200553
-0.0964134
0.0140163
0.132321
0.257825
0.3922
0.521477
0.632811
0.723476
0.806604
0.789916
0.672377
0.564562
0.489583
0.415212
0.444509
-0.488368
-0.459285
-0.39747
-0.313892
-0.217839
-0.113819
-0.00311584
0.114555
0.239004
0.371612
0.498164
0.605353
0.686306
0.730444
0.679353
0.526566
0.396254
0.303183
0.203597
0.252484
-0.511816
-0.479813
-0.416849
-0.333142
-0.236972
-0.133061
-0.0224447
0.0943895
0.217439
0.347655
0.470495
0.571457
0.643396
0.652693
0.543063
0.367576
0.212848
0.0924768
-0.039549
-0.00736643
-0.534729
-0.501229
-0.437125
-0.352512
-0.256271
-0.15252
-0.0424405
0.073421
0.194867
0.322292
0.440427
0.533443
0.589832
0.567417
0.405912
0.207505
0.0157416
-0.15323
-0.342342
-0.361683
-0.55705
-0.523123
-0.458152
-0.372778
-0.276414
-0.1729
-0.0634866
0.0512705
0.170844
0.295061
0.407739
0.492683
0.52928
0.470034
0.275296
0.0630644
-0.155255
-0.345182
-0.587408
-0.88422
-0.579669
-0.545747
-0.480257
-0.394417
-0.297885
-0.194558
-0.0857443
0.0278662
0.145446
0.266166
0.373043
0.44944
0.464454
0.353786
0.161561
-0.0498834
-0.255193
-0.428118
-0.498006
-0.576626
-0.603534
-0.569558
-0.503786
-0.41774
-0.321177
-0.218133
-0.110016
0.00226646
0.117524
0.234194
0.334854
0.40002
0.389782
0.245372
0.0603855
-0.131983
-0.295943
-0.389536
-0.413753
-0.429601
-0.62895
-0.594856
-0.528908
-0.442822
-0.346417
-0.243834
-0.13666
-0.0260152
0.0864891
0.198447
0.292372
0.343084
0.315048
0.144626
-0.0313523
-0.19856
-0.326133
-0.365543
-0.378386
-0.379697
-0.656115
-0.621813
-0.555688
-0.469658
-0.373555
-0.271665
-0.165695
-0.0570286
0.0522749
0.158934
0.245172
0.281352
0.233242
0.0515446
-0.115305
-0.265006
-0.341817
-0.358918
-0.360296
-0.360116
-0.68509
-0.650494
-0.584151
-0.498249
-0.40261
-0.301617
-0.197124
-0.0907883
0.0148915
0.115726
0.193368
0.21769
0.13316
-0.0334604
-0.19194
-0.3152
-0.352064
-0.35049
-0.349635
-0.349051
-0.715591
-0.68072
-0.614197
-0.528507
-0.433495
-0.333635
-0.230918
-0.127268
-0.0256218
0.0689282
0.137838
0.145082
0.0421474
-0.112418
-0.252714
-0.329071
-0.339466
-0.342185
-0.342885
-0.342629
-0.747071
-0.712048
-0.645569
-0.560207
-0.466025
-0.367563
-0.266924
-0.166335
-0.0690799
0.0189011
0.0790645
0.0712474
-0.0393734
-0.179442
-0.297293
-0.328788
-0.337233
-0.33861
-0.33837
-0.338084
-0.779065
-0.743928
-0.677819
-0.592955
-0.499856
-0.403082
-0.304862
-0.207703
-0.115196
-0.0336708
0.0160704
0.00131151
-0.113927
-0.233974
-0.328302
-0.344854
-0.336145
-0.335106
-0.335001
-0.334747
-0.810671
-0.775637
-0.710079
-0.626159
-0.534448
-0.439719
-0.344284
-0.250892
-0.163497
-0.0881704
-0.0483148
-0.0629249
-0.178583
-0.275514
-0.331382
-0.34003
-0.335982
-0.334044
-0.333221
-0.332906
-0.840347
-0.806004
-0.741374
-0.658897
-0.569037
-0.47678
-0.384537
-0.29522
-0.213183
-0.144005
-0.107669
-0.133847
-0.229545
-0.310328
-0.318324
-0.333169
-0.335319
-0.332854
-0.331927
-0.331421
-0.866472
-0.83321
-0.770575
-0.689988
-0.602588
-0.513332
-0.42476
-0.339827
-0.263132
-0.200321
-0.163997
-0.202692
-0.273162
-0.319879
-0.348116
-0.340803
-0.337704
-0.336979
-0.336741
-0.336255
-0.886931
-0.855379
-0.795634
-0.718017
-0.633823
-0.548233
-0.463869
-0.38368
-0.312213
-0.255754
-0.22204
-0.260489
-0.310747
-0.341454
-0.370533
-0.359954
-0.355432
-0.355797
-0.355155
-0.354348
-0.899477
-0.870619
-0.814634
-0.741109
-0.661247
-0.580167
-0.500647
-0.425569
-0.359325
-0.308658
-0.278356
-0.312951
-0.352674
-0.37244
-0.361726
-0.37412
-0.38194
-0.382219
-0.379789
-0.379481
-0.901485
-0.876668
-0.825624
-0.757453
-0.683167
-0.607725
-0.533755
-0.46419
-0.403243
-0.357576
-0.325595
-0.358662
-0.413331
-0.467204
-0.434978
-0.406024
-0.387802
-0.380068
-0.378094
-0.377685
-0.890755
-0.870772
-0.826432
-0.765454
-0.698112
-0.629426
-0.561856
-0.498184
-0.442546
-0.400964
-0.364801
-0.382226
-0.415408
-0.549451
-0.475777
-0.403115
-0.367262
-0.35731
-0.354151
-0.352455
-0.86528
-0.850256
-0.815241
-0.76387
-0.705095
-0.644277
-0.583777
-0.526221
-0.475618
-0.437424
-0.391199
-0.350484
-0.2735
-0.25292
-0.262634
-0.280901
-0.301697
-0.311155
-0.313594
-0.313082
-0.82761
-0.81792
-0.792857
-0.752855
-0.704109
-0.652034
-0.598931
-0.547287
-0.501196
-0.465379
-0.426011
-0.315073
-0.122776
0.103999
0.00306674
-0.168596
-0.271446
-0.314633
-0.329293
-0.333807
-0.784474
-0.778963
-0.764149
-0.735228
-0.697116
-0.653533
-0.607505
-0.561287
-0.518594
-0.484579
-0.452749
-0.405268
-0.359303
-0.359202
-0.443473
-0.498588
-0.518353
-0.527768
-0.535188
-0.539584
-0.74575
-0.742411
-0.735381
-0.716485
-0.687074
-0.65073
-0.610592
-0.568576
-0.527619
-0.496281
-0.475608
-0.56377
-0.838831
-1.14947
-1.20392
-1.11221
-1.01327
-0.925035
-0.862138
-0.856992
-0.718223
-0.716155
-0.712601
-0.701034
-0.677923
-0.646511
-0.610075
-0.569661
-0.52815
-0.489093
-0.472172
-0.50965
-0.716709
-1.01833
-1.32205
-1.39855
-1.34112
-1.20835
-1.08387
-1.01211
-0.697554
-0.69682
-0.695687
-0.689913
-0.67225
-0.643726
-0.607763
-0.566526
-0.519851
-0.468322
-0.432931
-0.409272
-0.41727
-0.391507
-0.346793
-0.261544
-0.192833
-0.139711
-0.0767433
-0.0354365
-0.685437
-0.685157
-0.68456
-0.681864
-0.669394
-0.642458
-0.605185
-0.561177
-0.508912
-0.450761
-0.393632
-0.341594
-0.198135
0.0930794
0.383555
0.651802
0.810763
0.88409
0.917434
0.928775
-0.677304
-0.67712
-0.676529
-0.675455
-0.667867
-0.643164
-0.604496
-0.555309
-0.497794
-0.426412
-0.344887
-0.259046
-0.0317147
0.352272
0.748264
1.10701
1.30547
1.38219
1.39394
1.39037
-0.672785
-0.672526
-0.671769
-0.671204
-0.667349
-0.646915
-0.605948
-0.551919
-0.486095
-0.405334
-0.310237
-0.209563
0.0212899
0.367601
0.702484
0.99355
1.17432
1.25875
1.29276
1.30191
-0.672554
-0.672423
-0.672014
-0.671226
-0.67115
-0.654724
-0.610467
-0.551591
-0.479692
-0.393349
-0.290467
-0.192707
0.00688912
0.312155
0.591924
0.821426
0.97244
1.06163
1.11669
1.13844
-0.673629
-0.674717
-0.677719
-0.682739
-0.685528
-0.666399
-0.617597
-0.555756
-0.479991
-0.387128
-0.287076
-0.19367
-0.0296204
0.237737
0.499317
0.719845
0.887257
0.991829
1.04665
1.06442
-0.67535
-0.676559
-0.67717
-0.676123
-0.676094
-0.660657
-0.623734
-0.566875
-0.487176
-0.390545
-0.293164
-0.20343
-0.0792801
0.168405
0.403303
0.601043
0.763595
0.864565
0.911111
0.923509
-0.702871
-0.70128
-0.68394
-0.645406
-0.613073
-0.627218
-0.634908
-0.584629
-0.498668
-0.397473
-0.303411
-0.217929
-0.118543
0.0764298
0.278018
0.44727
0.581461
0.662026
0.69678
0.704705
-0.763737
-0.760008
-0.752184
-0.733252
-0.719707
-0.722465
-0.700078
-0.61764
-0.514474
-0.406013
-0.311112
-0.230091
-0.15222
-0.00660704
0.156704
0.287957
0.391229
0.450543
0.475158
0.479743
-0.887992
-0.903162
-0.944632
-0.988317
-0.989261
-0.946535
-0.823877
-0.668797
-0.529873
-0.4104
-0.316341
-0.243016
-0.179797
-0.0723871
0.0508428
0.150711
0.228241
0.270364
0.287098
0.28836
-1.00342
-1.0287
-1.07606
-1.11237
-1.1117
-1.05401
-0.887973
-0.691186
-0.530267
-0.405809
-0.315142
-0.252528
-0.201811
-0.126315
-0.033679
0.0418198
0.0974505
0.127062
0.137887
0.138321
-0.957811
-0.978761
-1.01482
-1.04545
-1.04539
-0.982805
-0.816341
-0.640663
-0.494458
-0.381842
-0.304326
-0.253213
-0.21707
-0.163725
-0.101607
-0.0482038
-0.00940425
0.0107201
0.0176006
0.0163543
-0.71132
-0.731546
-0.767381
-0.803851
-0.813195
-0.75804
-0.639392
-0.520484
-0.419126
-0.338739
-0.280356
-0.241815
-0.217082
-0.18467
-0.146482
-0.116614
-0.0968326
-0.0888332
-0.0866793
-0.0880143
-0.35912
-0.371651
-0.396677
-0.428703
-0.451285
-0.445793
-0.41547
-0.370843
-0.325903
-0.283003
-0.247835
-0.221434
-0.203257
-0.188456
-0.176384
-0.169165
-0.167114
-0.169359
-0.17065
-0.171252
-0.0687407
-0.0748382
-0.0913585
-0.120376
-0.159104
-0.195328
-0.220474
-0.234456
-0.235782
-0.226704
-0.213555
-0.198482
-0.185303
-0.184964
-0.190489
-0.19901
-0.210392
-0.218183
-0.220338
-0.220445
0.0856932
0.0821529
0.0701165
0.0439179
0.00154417
-0.0507905
-0.099519
-0.138112
-0.164008
-0.178834
-0.184596
-0.183687
-0.179375
-0.186197
-0.197377
-0.21087
-0.223811
-0.231072
-0.232492
-0.232477
0.133409
0.131155
0.122178
0.10095
0.0645566
0.017566
-0.0319971
-0.0774733
-0.114485
-0.143099
-0.165424
-0.184547
-0.194979
-0.197847
-0.20074
-0.20773
-0.214589
-0.21736
-0.217684
-0.217905
0.129006
0.127456
0.121098
0.105682
0.0787218
0.0423363
0.000586275
-0.0411734
-0.0798757
-0.115394
-0.150868
-0.189978
-0.21505
-0.204966
-0.197649
-0.192864
-0.192533
-0.192263
-0.192039
-0.19234
0.106963
0.105965
0.101741
0.0912867
0.0725697
0.046229
0.0139623
-0.0206103
-0.0555431
-0.0909606
-0.129612
-0.176084
-0.200669
-0.184762
-0.169909
-0.164582
-0.162365
-0.161852
-0.161976
-0.162394
0.0826112
0.082037
0.0793909
0.0726292
0.0601326
0.0418143
0.0182761
-0.00840179
-0.036644
-0.0658152
-0.0963124
-0.129131
-0.141081
-0.133169
-0.128058
-0.128269
-0.129329
-0.130306
-0.130841
-0.131231
0.0611626
0.0608292
0.0592843
0.0551057
0.0470793
0.0348182
0.0184992
-0.000608659
-0.0209851
-0.040796
-0.0571183
-0.067316
-0.0680302
-0.0699435
-0.0791103
-0.0885116
-0.0949341
-0.0981488
-0.0993335
-0.0997287
0.0438162
0.0436412
0.0427568
0.040286
0.035326
0.0274638
0.0167207
0.00396274
-0.00910669
-0.0197623
-0.0214388
-0.0113477
0.00292108
-0.0151352
-0.0352811
-0.0514245
-0.0616081
-0.0665594
-0.0684119
-0.0687488
0.0297778
0.0297271
0.0292953
0.0279866
0.0251948
0.0205085
0.0139313
0.00617427
-0.00105086
-0.00437797
0.00277847
0.0211816
0.0360715
0.0170338
-0.00583125
-0.0219596
-0.0317411
-0.0365016
-0.0386208
-0.0390039
0.0185142
0.0185284
0.0183584
0.0178105
0.0164028
0.0139322
0.0102991
0.00607787
0.00280902
0.00362524
0.0142167
0.0320167
0.0420665
0.0260348
0.00879136
-0.00288489
-0.00931773
-0.012992
-0.0148956
-0.0152979
0.0092684
0.00931816
0.00930581
0.00914557
0.00865834
0.00762635
0.00602497
0.00419066
0.00309129
0.00506147
0.0140756
0.027858
0.0328375
0.0223698
0.0121767
0.00580571
0.00268639
0.000957363
-0.000307088
-0.000763032
0.00121001
0.00126415
0.00126565
0.00143743
0.00164806
0.0016918
0.00142909
0.00106477
0.000857402
0.00123067
0.00273029
0.00727999
0.0101384
0.00848225
0.00619904
0.0060155
0.005214
0.00324002
0.00163698
0.00150808
-0.116168
0.0497932
0.243307
0.412142
0.546666
0.652133
0.739083
0.813174
0.847094
0.823855
0.183749
0.303671
0.432592
0.543833
0.637384
0.714621
0.777132
0.821556
0.843793
0.855969
0.400701
0.482881
0.570972
0.648637
0.715359
0.771162
0.81556
0.848035
0.871573
0.889625
0.560266
0.619138
0.680133
0.736806
0.786021
0.827837
0.862215
0.889677
0.91236
0.930702
0.684837
0.727615
0.773278
0.81677
0.855214
0.888809
0.917591
0.941575
0.961893
0.979754
0.788619
0.821301
0.859213
0.894564
0.927034
0.956159
0.981628
1.00305
1.02086
1.03822
0.880834
0.909417
0.943255
0.975278
1.00513
1.03223
1.05592
1.0756
1.09108
1.10816
0.969224
0.998359
1.03229
1.06426
1.09381
1.12035
1.14318
1.16164
1.175
1.19203
1.06442
1.09758
1.13418
1.16772
1.19773
1.22389
1.24582
1.26308
1.27494
1.29233
1.17935
1.21715
1.25576
1.28998
1.31931
1.34404
1.3644
1.38028
1.39173
1.4098
1.32424
1.36277
1.3989
1.42957
1.45523
1.47732
1.49636
1.51189
1.52431
1.5423
1.49929
1.53091
1.55708
1.57952
1.59948
1.6182
1.63591
1.65238
1.66773
1.6858
1.68789
1.70509
1.72012
1.73634
1.75225
1.76678
1.77998
1.7939
1.81144
1.83159
1.8696
1.87914
1.89068
1.90148
1.91077
1.92035
1.93113
1.94249
1.95385
1.96921
2.07683
2.08049
2.06555
2.05074
2.04446
2.05013
2.06861
2.09892
2.13109
2.15775
2.38315
2.24829
2.17165
2.12926
2.11184
2.1158
2.1432
2.19961
2.30223
2.5266
0.697106
0.694979
0.690496
0.681873
0.669652
0.657529
0.647307
0.639423
0.633821
0.630589
0.630261
0.633025
0.638148
0.645385
0.654782
0.666328
0.678983
0.690021
0.696134
0.69919
0.621553
0.6274
0.633735
0.63823
0.640703
0.640384
0.637655
0.633856
0.630363
0.628126
0.628007
0.630231
0.633914
0.638218
0.642035
0.643925
0.642993
0.639515
0.634354
0.627733
0.613116
0.615413
0.618818
0.621817
0.623896
0.625398
0.626162
0.625858
0.624851
0.623993
0.624198
0.625654
0.627491
0.628812
0.629003
0.628121
0.626577
0.624245
0.620985
0.618065
0.607589
0.608675
0.610509
0.612891
0.614919
0.616353
0.617383
0.618149
0.618571
0.618822
0.619347
0.620186
0.620807
0.620892
0.620492
0.619652
0.618189
0.61611
0.614028
0.612646
0.602363
0.603026
0.604135
0.605844
0.607631
0.60927
0.610577
0.611608
0.612515
0.613337
0.614105
0.614693
0.614914
0.614767
0.614215
0.613171
0.611752
0.610214
0.608901
0.608122
0.597359
0.597819
0.598607
0.599909
0.601402
0.602927
0.604404
0.605721
0.606883
0.607976
0.608936
0.609546
0.609723
0.609474
0.608794
0.607818
0.606703
0.605578
0.604668
0.604152
0.592495
0.592839
0.593452
0.594524
0.595825
0.597208
0.598661
0.600127
0.60153
0.602853
0.604016
0.604757
0.604972
0.604726
0.604149
0.603389
0.602551
0.601694
0.601028
0.60065
0.587717
0.587984
0.588479
0.589392
0.590569
0.591876
0.593286
0.594798
0.596373
0.597941
0.599351
0.600279
0.600626
0.600542
0.600176
0.599637
0.599005
0.598378
0.597893
0.597606
0.582941
0.583153
0.583565
0.584368
0.585465
0.586726
0.588129
0.589691
0.591401
0.593213
0.594917
0.596114
0.596708
0.59687
0.596739
0.596425
0.596002
0.595569
0.595225
0.595
0.578079
0.57825
0.578603
0.579334
0.580386
0.581627
0.58306
0.584708
0.58658
0.588653
0.590709
0.592272
0.593197
0.593652
0.593778
0.593698
0.593491
0.593234
0.593006
0.592827
0.573042
0.57318
0.573492
0.574178
0.575215
0.576481
0.577983
0.579762
0.58185
0.584241
0.586726
0.588744
0.590066
0.590862
0.591281
0.591451
0.591459
0.591372
0.591244
0.591101
0.56774
0.56785
0.568134
0.568801
0.569857
0.571195
0.57281
0.574773
0.577143
0.579938
0.582953
0.585518
0.587307
0.588498
0.58925
0.589694
0.589925
0.590011
0.58997
0.589853
0.562073
0.562161
0.562429
0.563102
0.564213
0.565664
0.567447
0.569662
0.572395
0.575698
0.579362
0.582583
0.584928
0.586577
0.587704
0.588468
0.58895
0.589198
0.589234
0.589139
0.555934
0.556001
0.556262
0.556963
0.558167
0.559779
0.561795
0.564341
0.567535
0.571471
0.575927
0.579938
0.582943
0.58513
0.586689
0.587812
0.588571
0.588996
0.589106
0.589027
0.549191
0.549237
0.5495
0.550252
0.551589
0.553418
0.555739
0.558709
0.562487
0.567205
0.572623
0.577582
0.581372
0.584196
0.586264
0.587788
0.588868
0.589484
0.589667
0.589601
0.541687
0.541715
0.541983
0.542808
0.544323
0.546433
0.549145
0.552655
0.557161
0.562842
0.569428
0.575524
0.580243
0.583817
0.586488
0.588496
0.589938
0.590759
0.591014
0.590958
0.533219
0.533233
0.533507
0.534431
0.536181
0.538637
0.541853
0.546044
0.551457
0.55832
0.566321
0.573775
0.579596
0.584052
0.587436
0.590019
0.591873
0.592921
0.593249
0.5932
0.523485
0.52347
0.5238
0.524867
0.526903
0.529817
0.533672
0.538718
0.545264
0.55358
0.56329
0.572357
0.579479
0.584973
0.589193
0.592448
0.594782
0.596077
0.596477
0.596431
0.512186
0.512146
0.512523
0.513783
0.516191
0.519695
0.524362
0.530493
0.538456
0.548561
0.560328
0.571305
0.579944
0.586655
0.591853
0.595883
0.598764
0.600323
0.600792
0.600746
0.498833
0.498767
0.499223
0.500737
0.503632
0.507904
0.513623
0.521147
0.530897
0.543205
0.557439
0.570655
0.581052
0.589161
0.5955
0.60042
0.60391
0.605742
0.606271
0.606217
0.482771
0.482676
0.483258
0.485126
0.488674
0.493974
0.501088
0.510427
0.522453
0.537478
0.554652
0.570466
0.582868
0.592565
0.600196
0.606123
0.610275
0.612372
0.612944
0.612877
0.463054
0.462932
0.463718
0.466103
0.470569
0.477298
0.486318
0.498077
0.513029
0.531401
0.552044
0.570819
0.585468
0.596933
0.605976
0.613032
0.61786
0.62019
0.620778
0.62069
0.438251
0.438113
0.439235
0.442423
0.44828
0.4571
0.468823
0.483874
0.502604
0.525067
0.549739
0.571821
0.588924
0.602306
0.612886
0.621118
0.626589
0.629081
0.629646
0.629528
0.406036
0.40592
0.407658
0.412238
0.420405
0.432487
0.448174
0.467744
0.491307
0.518682
0.547935
0.573612
0.593308
0.60871
0.620887
0.630298
0.63628
0.638814
0.639307
0.639155
0.362227
0.362277
0.365368
0.372847
0.385302
0.402699
0.424259
0.449917
0.479496
0.512599
0.546894
0.576351
0.598704
0.616139
0.629896
0.640376
0.64662
0.649024
0.649397
0.649211
0.298998
0.300217
0.307773
0.321722
0.342015
0.367872
0.397703
0.431117
0.467817
0.507298
0.546913
0.580189
0.605146
0.624526
0.639701
0.650929
0.657134
0.659169
0.659372
0.659166
0.224072
0.22586
0.240322
0.264275
0.29554
0.331386
0.37023
0.411896
0.456204
0.502681
0.548406
0.586337
0.614575
0.636346
0.653131
0.665036
0.670967
0.672691
0.67285
0.672733
0.146797
0.153037
0.174389
0.208632
0.250333
0.295874
0.343692
0.393657
0.445648
0.499218
0.551204
0.593906
0.625462
0.649674
0.668244
0.680359
0.685561
0.686787
0.686886
0.686843
0.0835714
0.0921378
0.118067
0.159353
0.209236
0.26304
0.318945
0.376675
0.436003
0.49641
0.55439
0.601572
0.636199
0.662485
0.682081
0.694272
0.699211
0.700334
0.700453
0.700468
0.0321521
0.0413165
0.0708058
0.117345
0.1734
0.233869
0.29662
0.361216
0.427244
0.494047
0.557715
0.609162
0.64666
0.674923
0.69571
0.708216
0.712926
0.714039
0.714242
0.714305
-0.0108534
-0.00140886
0.0305334
0.0810796
0.142205
0.208205
0.276763
0.347359
0.419418
0.492144
0.561193
0.616724
0.657011
0.687209
0.709151
0.722069
0.726973
0.728304
0.728531
0.728622
-0.0478154
-0.0382658
-0.00448808
0.0492659
0.114586
0.185305
0.258929
0.334856
0.412401
0.49062
0.564757
0.624214
0.667214
0.69932
0.722553
0.736152
0.741409
0.742846
0.743073
0.743162
-0.0804169
-0.07084
-0.0356579
0.0208035
0.0896398
0.164436
0.242552
0.323285
0.405859
0.489211
0.568197
0.631449
0.677095
0.711091
0.735508
0.749928
0.755588
0.757143
0.757364
0.757433
-0.109952
-0.100346
-0.0640128
-0.00521457
0.0666387
0.145007
0.227119
0.312215
0.399447
0.487658
0.571306
0.638238
0.686452
0.722239
0.747866
0.762947
0.769075
0.770745
0.770963
0.771015
-0.137314
-0.127672
-0.0903434
-0.0295064
0.045023
0.126556
0.212249
0.301327
0.392898
0.485719
0.573883
0.64441
0.695111
0.732617
0.759323
0.775074
0.781619
0.783362
0.783563
0.783584
-0.163077
-0.153381
-0.115124
-0.0525682
0.0243761
0.108739
0.197662
0.29038
0.385984
0.483199
0.575778
0.64987
0.703014
0.742161
0.769881
0.7861
0.792923
0.79474
0.794927
0.794915
-0.18774
-0.17791
-0.138783
-0.0746985
0.00441546
0.0913052
0.183148
0.279191
0.37856
0.479972
0.576892
0.654568
0.710152
0.750867
0.779463
0.796048
0.803002
0.804832
0.805005
0.80495
-0.211578
-0.20154
-0.161685
-0.0960954
-0.015054
0.0740897
0.168569
0.267656
0.370521
0.47594
0.577145
0.658473
0.716558
0.758817
0.788163
0.804974
0.811911
0.813718
0.813869
0.813799
-0.234701
-0.224468
-0.183887
-0.116906
-0.0341571
0.0570118
0.153856
0.255707
0.361804
0.471022
0.576471
0.661569
0.72229
0.766144
0.796127
0.81299
0.819824
0.821547
0.821656
0.821558
-0.257299
-0.246783
-0.205462
-0.137224
-0.0529504
0.0400209
0.138977
0.24332
0.352383
0.465184
0.574807
0.663832
0.727415
0.772991
0.803555
0.820306
0.826884
0.828459
0.828517
0.828398
-0.279325
-0.26855
-0.226528
-0.157103
-0.071453
0.0231144
0.123948
0.230517
0.342268
0.458401
0.572098
0.665212
0.731982
0.77952
0.810655
0.82708
0.833215
0.834557
0.834536
0.834397
-0.300853
-0.289789
-0.247022
-0.176538
-0.0896564
0.00631403
0.108801
0.217343
0.331496
0.450681
0.568295
0.665643
0.73599
0.785868
0.817685
0.833564
0.838931
0.839891
0.839782
0.839644
-0.321728
-0.310443
-0.266942
-0.195492
-0.107523
-0.0103177
0.0935908
0.203859
0.32013
0.442067
0.563365
0.665038
0.739374
0.792122
0.824973
0.840181
0.844369
0.844624
0.844352
0.84423
-0.342091
-0.330476
-0.286285
-0.213954
-0.125028
-0.0267488
0.0784032
0.190138
0.308247
0.432629
0.557303
0.663286
0.741997
0.798252
0.832793
0.847575
0.850197
0.849086
0.84835
0.848262
-0.361785
-0.349868
-0.305026
-0.231888
-0.1421
-0.0428995
0.0633135
0.176295
0.295951
0.422422
0.550139
0.66027
0.74366
0.80406
0.841184
0.856466
0.857762
0.854495
0.852215
0.851469
-0.380873
-0.368666
-0.323117
-0.249248
-0.158705
-0.0587043
0.0484019
0.162405
0.283348
0.411575
0.54193
0.655874
0.74411
0.809164
0.849694
0.867041
0.868689
0.863743
0.857388
0.84935
-0.399275
-0.386828
-0.340651
-0.266188
-0.175051
-0.0744287
0.0333442
0.148084
0.27001
0.399612
0.532175
0.64958
0.742907
0.813298
0.857776
0.87879
0.883463
0.878245
0.867347
0.862639
-0.416946
-0.404279
-0.357614
-0.282683
-0.191148
-0.090068
0.0181502
0.13331
0.255885
0.386407
0.520662
0.640979
0.73923
0.815668
0.863502
0.887635
0.894508
0.892362
0.854272
0.802595
-0.433603
-0.42024
-0.373857
-0.298665
-0.207097