/*--------------------------------*- C++ -*----------------------------------*\
  =========                 |
  \\      /  F ield         | OpenFOAM: The Open Source CFD Toolbox
   \\    /   O peration     | Website:  https://openfoam.org
    \\  /    A nd           | Version:  10
     \\/     M anipulation  |
\*---------------------------------------------------------------------------*/
FoamFile
{
    format      ascii;
    class       volVectorField;
    location    "65";
    object      U;
}
// * * * * * * * * * * * * * * * * * * * * * * * * * * * * * * * * * * * * * //

dimensions      [0 1 -1 0 0 0 0];

internalField   nonuniform List<vector> 
8800
(
(0.980137 -0.0915204 0)
(1.00234 -0.0587301 0)
(0.999583 -0.0321287 0)
(0.999981 -0.0165216 0)
(1.00008 -0.00884147 0)
(1.0001 -0.00509727 0)
(1.00007 -0.00299353 0)
(1.00002 -0.00168212 0)
(0.999999 -0.000779595 0)
(1.00006 -7.9495e-05 0)
(0.999983 0.000630421 0)
(0.999992 0.00138801 0)
(1.00003 0.00241127 0)
(1.00005 0.00400928 0)
(1.00004 0.0067517 0)
(0.999997 0.0120519 0)
(0.999801 0.0230949 0)
(0.999032 0.0431556 0)
(1.00724 0.079025 0)
(0.775026 0.0478395 0)
(0.358996 -0.0147481 0)
(1.04651 -0.0724788 0)
(1.08847 -0.0660152 0)
(1.04944 -0.0509073 0)
(1.02555 -0.0376851 0)
(1.01276 -0.0258782 0)
(1.0066 -0.01668 0)
(1.00364 -0.0101867 0)
(1.00219 -0.00555186 0)
(1.00151 -0.001954 0)
(1.00138 0.00126123 0)
(1.00172 0.00457267 0)
(1.0027 0.00846152 0)
(1.00475 0.0137664 0)
(1.00898 0.0214358 0)
(1.01794 0.0319217 0)
(1.03579 0.0446903 0)
(1.06742 0.0581291 0)
(1.09468 0.0699518 0)
(0.84561 0.0555089 0)
(0.217814 -0.00137986 0)
(1.07569 -0.0506354 0)
(1.09942 -0.0489147 0)
(1.0644 -0.0399944 0)
(1.03993 -0.0325311 0)
(1.02385 -0.0253117 0)
(1.01405 -0.018084 0)
(1.00853 -0.0114537 0)
(1.00566 -0.00568871 0)
(1.00448 -0.000391745 0)
(1.00478 0.0047223 0)
(1.00662 0.0100109 0)
(1.01057 0.0159716 0)
(1.01789 0.0227129 0)
(1.03048 0.0298051 0)
(1.05046 0.0368833 0)
(1.08002 0.0446521 0)
(1.10563 0.051968 0)
(0.943216 0.0410237 0)
(0.217152 0.00140669 0)
(0.176688 -0.000627829 0)
(1.01946 -0.035441 0)
(1.10575 -0.0413753 0)
(1.07802 -0.036352 0)
(1.05251 -0.0302994 0)
(1.03529 -0.0244132 0)
(1.02341 -0.0186052 0)
(1.01558 -0.0125939 0)
(1.01096 -0.00648577 0)
(1.0089 -0.000238795 0)
(1.00941 0.00592221 0)
(1.01248 0.0118367 0)
(1.01846 0.0175918 0)
(1.02805 0.0231459 0)
(1.04222 0.0286798 0)
(1.06304 0.0344471 0)
(1.09382 0.0403204 0)
(1.09436 0.0418298 0)
(0.830064 0.0227984 0)
(0.175557 0.000649403 0)
(0.154802 -0.000461533 0)
(0.958308 -0.0256622 0)
(1.10447 -0.035067 0)
(1.08815 -0.0326067 0)
(1.06135 -0.0280897 0)
(1.04331 -0.0231143 0)
(1.0309 -0.0177959 0)
(1.02228 -0.0122364 0)
(1.01671 -0.0063092 0)
(1.01403 0.000157059 0)
(1.01464 0.0066204 0)
(1.0184 0.0124906 0)
(1.0252 0.0177882 0)
(1.03533 0.0227675 0)
(1.05004 0.0275736 0)
(1.07196 0.0319967 0)
(1.10093 0.0358573 0)
(1.06956 0.034042 0)
(0.74229 0.014481 0)
(0.153106 0.00048578 0)
(0.140145 -0.000333307 0)
(0.901383 -0.0192919 0)
(1.09693 -0.0301603 0)
(1.09632 -0.0292666 0)
(1.06909 -0.0254709 0)
(1.05026 -0.0213694 0)
(1.03727 -0.0166501 0)
(1.02825 -0.0113794 0)
(1.02228 -0.00563609 0)
(1.01926 0.000735264 0)
(1.01983 0.00711269 0)
(1.0238 0.01276 0)
(1.03084 0.0177182 0)
(1.04133 0.0221524 0)
(1.05666 0.0260769 0)
(1.07945 0.0295718 0)
(1.10319 0.0322648 0)
(1.03767 0.0282248 0)
(0.675335 0.0103418 0)
(0.137754 0.0003621 0)
(0.129439 -0.000251727 0)
(0.851613 -0.0148897 0)
(1.08464 -0.0260488 0)
(1.10204 -0.0263739 0)
(1.07595 -0.0230369 0)
(1.05661 -0.0193631 0)
(1.04319 -0.0151434 0)
(1.0338 -0.0102558 0)
(1.02755 -0.00473231 0)
(1.02429 0.00145561 0)
(1.02474 0.00761745 0)
(1.02871 0.0129807 0)
(1.03589 0.0175126 0)
(1.04667 0.0213377 0)
(1.06236 0.0246611 0)
(1.08559 0.0276748 0)
(1.10235 0.0294615 0)
(1.00285 0.0237068 0)
(0.623119 0.00794731 0)
(0.1262 0.000286691 0)
(0.121289 -0.000192763 0)
(0.809238 -0.0116993 0)
(1.06941 -0.0224431 0)
(1.10561 -0.0237282 0)
(1.08223 -0.020841 0)
(1.06244 -0.0173916 0)
(1.04875 -0.013452 0)
(1.03909 -0.00888385 0)
(1.03256 -0.00363226 0)
(1.02906 0.00232412 0)
(1.02934 0.00821656 0)
(1.03325 0.0132247 0)
(1.04049 0.0172953 0)
(1.05136 0.0206417 0)
(1.06729 0.0235682 0)
(1.0909 0.0262633 0)
(1.09863 0.0271369 0)
(0.967577 0.02016 0)
(0.581147 0.00638901 0)
(0.117018 0.000235221 0)
(0.114981 -0.000147977 0)
(0.773539 -0.00931011 0)
(1.05265 -0.0192663 0)
(1.10801 -0.0212811 0)
(1.08814 -0.0187734 0)
(1.06793 -0.015483 0)
(1.05398 -0.0117097 0)
(1.04414 -0.00734094 0)
(1.03737 -0.00232625 0)
(1.0336 0.00337119 0)
(1.03365 0.00895397 0)
(1.03742 0.0135838 0)
(1.04459 0.017251 0)
(1.05547 0.0202151 0)
(1.07163 0.0228084 0)
(1.09493 0.0251535 0)
(1.09207 0.0252168 0)
(0.933195 0.0174206 0)
(0.546405 0.00532283 0)
(0.109455 0.000199528 0)
(0.110067 -0.000112557 0)
(0.743591 -0.00745763 0)
(1.03543 -0.0164468 0)
(1.10945 -0.0189773 0)
(1.09375 -0.0167805 0)
(1.07324 -0.0135878 0)
(1.05901 -0.00991077 0)
(1.04897 -0.00566418 0)
(1.04198 -0.000818124 0)
(1.03792 0.00463194 0)
(1.03768 0.00989219 0)
(1.04122 0.0141591 0)
(1.04825 0.0174626 0)
(1.05911 0.020077 0)
(1.07549 0.0223797 0)
(1.09767 0.024351 0)
(1.08305 0.0236467 0)
(0.90029 0.0153399 0)
(0.516823 0.00458053 0)
(0.103018 0.000175009 0)
(0.106257 -8.32752e-05 0)
(0.718575 -0.00596517 0)
(1.01859 -0.0139138 0)
(1.11006 -0.0167492 0)
(1.09925 -0.0148324 0)
(1.07847 -0.0116559 0)
(1.06393 -0.00801393 0)
(1.05367 -0.00383165 0)
(1.04643 0.000903083 0)
(1.04204 0.00614642 0)
(1.04143 0.0111075 0)
(1.04466 0.0150355 0)
(1.05151 0.0179925 0)
(1.06233 0.0202652 0)
(1.07889 0.0223032 0)
(1.09905 0.0238715 0)
(1.07195 0.022423 0)
(0.868986 0.0138046 0)
(0.490929 0.00407033 0)
(0.0973545 0.000159112 0)
(0.103357 -5.79353e-05 0)
(0.697847 -0.00471434 0)
(1.00273 -0.0116007 0)
(1.11 -0.0145595 0)
(1.1046 -0.0128444 0)
(1.08369 -0.00963684 0)
(1.06883 -0.00597042 0)
(1.0583 -0.00179045 0)
(1.05075 0.0028835 0)
(1.04597 0.00796932 0)
(1.04491 0.0126616 0)
(1.04776 0.0162625 0)
(1.05439 0.0188783 0)
(1.06514 0.020816 0)
(1.08185 0.0225975 0)
(1.09941 0.0237593 0)
(1.05905 0.021556 0)
(0.839123 0.0127251 0)
(0.467622 0.00373539 0)
(0.0922039 0.000149984 0)
(0.101248 -3.45927e-05 0)
(0.680932 -0.00361682 0)
(0.988335 -0.00943779 0)
(1.10947 -0.012323 0)
(1.10976 -0.0107255 0)
(1.089 -0.00746511 0)
(1.07378 -0.00371614 0)
(1.06293 0.000524674 0)
(1.05501 0.00519269 0)
(1.04973 0.0101699 0)
(1.04813 0.0146193 0)
(1.05054 0.0179047 0)
(1.05689 0.0201847 0)
(1.06755 0.0217792 0)
(1.08431 0.0232914 0)
(1.09876 0.0240277 0)
(1.0445 0.0210636 0)
(0.810377 0.0120308 0)
(0.446039 0.00353765 0)
(0.0873613 0.000146222 0)
(0.0998654 -1.15458e-05 0)
(0.667525 -0.00260314 0)
(0.975748 -0.00735061 0)
(1.10878 -0.00998089 0)
(1.11487 -0.00841998 0)
(1.09446 -0.00507304 0)
(1.07886 -0.00117828 0)
(1.06763 0.00318626 0)
(1.05924 0.00791252 0)
(1.05337 0.0128327 0)
(1.05111 0.0170658 0)
(1.05298 0.0200357 0)
(1.059 0.0219714 0)
(1.06954 0.0232075 0)
(1.08632 0.0244548 0)
(1.09687 0.0247306 0)
(1.02837 0.0209296 0)
(0.782321 0.0116659 0)
(0.425477 0.00345093 0)
(0.0826617 0.000146729 0)
(0.0991926 1.32667e-05 0)
(0.65747 -0.00161916 0)
(0.965291 -0.00526711 0)
(1.10826 -0.00746746 0)
(1.12007 -0.00584936 0)
(1.10016 -0.00236529 0)
(1.08414 0.00174269 0)
(1.07246 0.00629637 0)
(1.06351 0.0111489 0)
(1.0569 0.0160612 0)
(1.05385 0.0200994 0)
(1.05508 0.0227527 0)
(1.0607 0.0243214 0)
(1.07109 0.0251818 0)
(1.08779 0.0261309 0)
(1.09367 0.0258945 0)
(1.01062 0.0211898 0)
(0.754481 0.0116022 0)
(0.405351 0.00346075 0)
(0.0779702 0.000151021 0)
(0.0992498 3.53489e-05 0)
(0.650733 -0.000618501 0)
(0.957264 -0.0031154 0)
(1.10826 -0.00471283 0)
(1.1255 -0.00293154 0)
(1.10621 0.000750142 0)
(1.08972 0.00514364 0)
(1.0775 0.00996568 0)
(1.06786 0.015016 0)
(1.06037 0.0199713 0)
(1.05637 0.0238327 0)
(1.05683 0.0261616 0)
(1.06198 0.0273475 0)
(1.07218 0.0278103 0)
(1.0885 0.028392 0)
(1.08899 0.0275342 0)
(0.991078 0.0218771 0)
(0.726319 0.011824 0)
(0.385123 0.00355835 0)
(0.0731633 0.000158716 0)
(0.100073 7.17907e-05 0)
(0.647392 0.000410994 0)
(0.951986 -0.000822499 0)
(1.10913 -0.00163127 0)
(1.13139 0.000431078 0)
(1.1127 0.00438817 0)
(1.0957 0.00915814 0)
(1.08282 0.0143359 0)
(1.07235 0.019659 0)
(1.06379 0.0247071 0)
(1.05865 0.028399 0)
(1.05819 0.0303833 0)
(1.06277 0.031171 0)
(1.07274 0.0312089 0)
(1.08832 0.0313704 0)
(1.08252 0.0297555 0)
(0.969486 0.0230141 0)
(0.69725 0.0123194 0)
(0.364293 0.0037349 0)
(0.0681327 0.000169122 0)
(0.101876 0.00010254 0)
(0.647833 0.00157584 0)
(0.949811 0.00170106 0)
(1.11131 0.0018906 0)
(1.13793 0.00433657 0)
(1.11979 0.00871178 0)
(1.1022 0.0139564 0)
(1.08854 0.0195834 0)
(1.07704 0.0252597 0)
(1.06718 0.0304445 0)
(1.06067 0.0339649 0)
(1.05913 0.0355626 0)
(1.06305 0.035923 0)
(1.07272 0.035505 0)
(1.08699 0.0351811 0)
(1.07401 0.0326432 0)
(0.945444 0.0246517 0)
(0.666642 0.0130887 0)
(0.342387 0.00398626 0)
(0.0627819 0.000181902 0)
(0.104713 0.000150464 0)
(0.652482 0.00302704 0)
(0.951229 0.00461145 0)
(1.11529 0.00594922 0)
(1.14534 0.00895282 0)
(1.12763 0.0138857 0)
(1.10935 0.019722 0)
(1.09473 0.0259124 0)
(1.08198 0.0320274 0)
(1.07054 0.0373899 0)
(1.06241 0.0407205 0)
(1.05962 0.0418723 0)
(1.06272 0.0417662 0)
(1.07203 0.0408379 0)
(1.08434 0.0399736 0)
(1.06309 0.0363012 0)
(0.918423 0.0268208 0)
(0.63381 0.0141224 0)
(0.318953 0.00430286 0)
(0.0570281 0.00019611 0)
(0.108863 0.000213223 0)
(0.661788 0.0047155 0)
(0.956693 0.00805024 0)
(1.12155 0.0107345 0)
(1.15391 0.0144845 0)
(1.13644 0.0201523 0)
(1.11732 0.0267259 0)
(1.10152 0.033603 0)
(1.08722 0.0402325 0)
(1.07388 0.0457796 0)
(1.06384 0.0488576 0)
(1.05959 0.0495023 0)
(1.06173 0.0488755 0)
(1.0706 0.0473668 0)
(1.08045 0.0459014 0)
(1.04928 0.0408368 0)
(0.887744 0.0295499 0)
(0.598014 0.0154041 0)
(0.293568 0.0046716 0)
(0.0508096 0.000210596 0)
(0.114666 0.000297241 0)
(0.676501 0.00680935 0)
(0.966835 0.0122134 0)
(1.13067 0.0164832 0)
(1.164 0.0212028 0)
(1.14646 0.0278414 0)
(1.12629 0.0353214 0)
(1.10899 0.0430107 0)
(1.09277 0.0502092 0)
(1.07713 0.0558991 0)
(1.06485 0.0586157 0)
(1.05886 0.0586189 0)
(1.05999 0.0574272 0)
(1.06838 0.0552857 0)
(1.07506 0.0531157 0)
(1.03193 0.0463379 0)
(0.852582 0.0328386 0)
(0.558495 0.0168918 0)
(0.26588 0.00506839 0)
(0.0441 0.000223557 0)
(0.122627 0.000418934 0)
(0.697595 0.00955674 0)
(0.982535 0.0174142 0)
(1.14331 0.0235419 0)
(1.1761 0.0294971 0)
(1.15802 0.0373937 0)
(1.13645 0.0459661 0)
(1.11724 0.0545825 0)
(1.09862 0.0623534 0)
(1.08022 0.068078 0)
(1.06534 0.0702659 0)
(1.05738 0.0694735 0)
(1.0574 0.0675739 0)
(1.06528 0.0647162 0)
(1.06783 0.061656 0)
(1.01024 0.0528552 0)
(0.811965 0.0366413 0)
(0.514519 0.0185086 0)
(0.235667 0.00545711 0)
(0.0369232 0.000232673 0)
(0.133471 0.000591016 0)
(0.7263 0.0133245 0)
(1.00496 0.0241256 0)
(1.16026 0.0324623 0)
(1.19079 0.0399738 0)
(1.17144 0.049493 0)
(1.14797 0.0593481 0)
(1.12624 0.0689376 0)
(1.10463 0.0771596 0)
(1.08295 0.0826615 0)
(1.06514 0.084039 0)
(1.05505 0.0822613 0)
(1.05385 0.0795208 0)
(1.061 0.0757972 0)
(1.05804 0.0717339 0)
(0.983139 0.0603758 0)
(0.764814 0.0408349 0)
(0.46548 0.0201261 0)
(0.202917 0.00578655 0)
(0.0293733 0.000235231 0)
(0.148458 0.000868464 0)
(0.764647 0.018729 0)
(1.03576 0.0331412 0)
(1.18245 0.0441959 0)
(1.20887 0.0537872 0)
(1.18706 0.0651951 0)
(1.16089 0.0764304 0)
(1.13585 0.086855 0)
(1.11054 0.0951928 0)
(1.08505 0.100017 0)
(1.064 0.100163 0)
(1.05168 0.0971279 0)
(1.04921 0.0933991 0)
(1.05517 0.0888639 0)
(1.04497 0.0833036 0)
(0.949277 0.0687637 0)
(0.710049 0.0451767 0)
(0.411079 0.0215509 0)
(0.167957 0.00598993 0)
(0.0216334 0.000228177 0)
(0.169794 0.00134825 0)
(0.815916 0.0269355 0)
(1.07754 0.0460292 0)
(1.21104 0.0605974 0)
(1.23091 0.0729495 0)
(1.20496 0.0860878 0)
(1.17494 0.098503 0)
(1.14563 0.109255 0)
(1.1159 0.117038 0)
(1.08613 0.12048 0)
(1.06163 0.118814 0)
(1.04707 0.114165 0)
(1.04338 0.109275 0)
(1.04777 0.103866 0)
(1.0275 0.0963192 0)
(0.907004 0.0776439 0)
(0.64687 0.0492787 0)
(0.351682 0.0225392 0)
(0.131627 0.00599544 0)
(0.0139978 0.000208003 0)
(0.200898 0.00241328 0)
(0.885865 0.0406619 0)
(1.13394 0.0666521 0)
(1.24644 0.0852382 0)
(1.25665 0.100198 0)
(1.22452 0.114522 0)
(1.18932 0.127164 0)
(1.15477 0.137118 0)
(1.12 0.143234 0)
(1.08564 0.144283 0)
(1.0577 0.140062 0)
(1.04101 0.133383 0)
(1.03623 0.127106 0)
(1.03839 0.120629 0)
(1.00415 0.110456 0)
(0.854386 0.0863654 0)
(0.575334 0.0526188 0)
(0.289032 0.022913 0)
(0.0956532 0.00579079 0)
(0.00696792 0.000174709 0)
(0.243276 0.0086883 3.79222e-20)
(0.978618 0.0680515 3.32852e-20)
(1.20271 0.101201 -1.17344e-20)
(1.28557 0.12171 0)
(1.28331 0.139151 -3.09913e-34)
(1.24361 0.152853 4.55709e-21)
(1.20246 0.163943 -8.35801e-21)
(1.16215 0.171679 0)
(1.122 0.175032 1.74978e-34)
(1.0828 0.172874 -1.06436e-20)
(1.05121 0.1656 0)
(1.03231 0.15671 -1.27787e-20)
(1.02664 0.149221 -3.77921e-20)
(1.02572 0.142485 -1.78871e-20)
(0.970931 0.12822 -5.39869e-21)
(0.785338 0.096431 -3.21126e-21)
(0.490265 0.0555925 0)
(0.221486 0.0230632 2.24562e-21)
(0.060033 0.00566928 2.65104e-21)
(0.000510111 0.000145452 4.77919e-20)
(0.272975 0.0242526 2.53486e-20)
(1.05518 0.110851 5.41439e-22)
(1.25945 0.150431 3.01958e-21)
(1.32055 0.171154 0)
(1.30669 0.188398 -1.53758e-20)
(1.25997 0.199908 -1.76746e-20)
(1.21292 0.20866 -8.34862e-21)
(1.16678 0.213891 -3.02084e-20)
(1.12102 0.214435 0)
(1.07657 0.209127 4.52307e-20)
(1.04087 0.198885 4.51126e-20)
(1.01948 0.187783 1.34527e-20)
(1.01176 0.178494 4.93325e-20)
(1.00277 0.169382 6.96137e-20)
(0.918682 0.148925 0)
(0.69216 0.106909 9.82909e-20)
(0.390226 0.0580993 1.40935e-19)
(0.151307 0.0224718 1.56472e-19)
(0.0242476 0.00430598 -1.78851e-19)
(-0.00615041 -0.000500813 -3.3693e-21)
(0.273997 0.0401443 0)
(1.10354 0.16631 3.90036e-21)
(1.29762 0.210997 0)
(1.34769 0.231158 -1.84401e-20)
(1.32501 0.245316 0)
(1.27238 0.252947 -3.40596e-20)
(1.21982 0.257956 1.68994e-20)
(1.16817 0.259578 -6.0182e-20)
(1.11708 0.256448 -1.58246e-21)
(1.06762 0.247349 2.32807e-20)
(1.02799 0.233704 9.93692e-20)
(1.00418 0.220076 -2.2293e-22)
(0.994113 0.208807 -3.58718e-20)
(0.976682 0.196781 -6.5596e-20)
(0.871567 0.169125 7.76912e-20)
(0.625775 0.116591 -1.37595e-19)
(0.332286 0.0604411 -1.81639e-20)
(0.115429 0.0216341 0)
(0.00658204 0.00221639 -1.14624e-23)
(-0.00970235 -0.00137193 0)
(0.267513 0.053886 3.58849e-20)
(1.12954 0.225051 -1.98086e-20)
(1.32108 0.276013 -1.82431e-20)
(1.36565 0.296323 8.30914e-21)
(1.33686 0.306547 -1.41828e-20)
(1.27981 0.309639 7.09575e-20)
(1.2227 0.310224 3.50613e-20)
(1.16627 0.307589 0)
(1.11042 0.300234 -1.15305e-19)
(1.05635 0.286868 0)
(1.01305 0.269456 -5.19956e-20)
(0.986855 0.253039 -6.47304e-20)
(0.974418 0.239452 -3.90831e-20)
(0.950087 0.223855 -4.76612e-20)
(0.833003 0.189178 0)
(0.583081 0.127621 0)
(0.302216 0.0650099 -1.18286e-19)
(0.0978994 0.0216941 2.33498e-20)
(-0.00332903 2.50603e-05 -1.36657e-20)
(-0.0122752 -0.00240738 -1.59859e-20)
(0.259762 0.0660127 -2.997e-21)
(1.14083 0.283607 0)
(1.33388 0.341918 3.13472e-20)
(1.3754 0.362873 2.19765e-20)
(1.34234 0.369254 3.37495e-20)
(1.28207 0.367785 0)
(1.22137 0.363823 3.36635e-20)
(1.16102 0.356734 6.61338e-20)
(1.10106 0.344925 5.86602e-20)
(1.04287 0.327057 1.09906e-19)
(0.996126 0.305641 0)
(0.967588 0.286226 -1.39622e-19)
(0.952794 0.270161 -8.44462e-20)
(0.923255 0.251077 -5.00154e-20)
(0.801254 0.210149 3.07189e-19)
(0.55635 0.140815 3.65144e-20)
(0.288305 0.0718474 1.71413e-19)
(0.0920521 0.0229947 -8.11248e-19)
(-0.00720504 -0.00169825 4.79422e-19)
(-0.013814 -0.00343175 -5.77695e-19)
(0.252271 0.0769324 1.27729e-20)
(1.14268 0.34011 1.26639e-22)
(1.33892 0.406799 -1.92223e-21)
(1.37852 0.428918 -1.75811e-20)
(1.3424 0.431696 -2.57505e-20)
(1.27973 0.425841 1.80281e-21)
(1.2162 0.417478 -3.65707e-20)
(1.15261 0.406003 6.79658e-20)
(1.08911 0.38976 -1.26341e-19)
(1.02723 0.367354 0)
(0.977302 0.341874 -6.30158e-20)
(0.946461 0.31939 -1.60091e-21)
(0.929407 0.300769 -9.26021e-20)
(0.896306 0.278248 0)
(0.77424 0.231983 -6.66248e-20)
(0.539234 0.156062 -1.58148e-19)
(0.284358 0.0809703 4.20962e-19)
(0.0939691 0.026103 -4.14852e-19)
(-0.00609411 -0.00232898 5.88651e-19)
(-0.0141546 -0.00421809 -6.1148e-19)
(0.245903 0.086994 -4.17478e-22)
(1.13863 0.393897 4.30846e-21)
(1.33836 0.469659 2.3451e-21)
(1.37647 0.493242 4.83669e-21)
(1.33811 0.492816 -1.25521e-20)
(1.27362 0.48286 0)
(1.20781 0.470354 -3.29256e-20)
(1.1415 0.454696 -7.09081e-20)
(1.07494 0.43417 -6.53923e-20)
(1.00975 0.407324 0)
(0.956866 0.377828 -6.51986e-20)
(0.923764 0.352255 -8.14626e-20)
(0.904518 0.331099 1.00629e-19)
(0.868883 0.305464 -6.1276e-20)
(0.749731 0.254385 -2.91753e-19)
(0.526594 0.172794 1.73192e-19)
(0.284769 0.0916735 5.13412e-20)
(0.0998473 0.0308648 0)
(-0.00152317 -0.00157318 -5.70746e-19)
(-0.0134142 -0.00464349 -2.09533e-20)
(0.240773 0.0965105 5.07281e-21)
(1.13101 0.444785 -7.39727e-21)
(1.33372 0.53003 -2.58991e-21)
(1.37049 0.555144 2.06044e-20)
(1.33041 0.551945 -4.21146e-20)
(1.26453 0.53826 6.0895e-20)
(1.19688 0.521919 7.10973e-20)
(1.12827 0.502344 -1.13263e-19)
(1.05901 0.477765 4.1223e-20)
(0.990804 0.446656 -2.70613e-19)
(0.935139 0.413229 -7.42088e-20)
(0.899871 0.384616 0)
(0.878599 0.361019 1.09415e-19)
(0.841175 0.332288 1.31562e-19)
(0.726161 0.276927 1.57529e-19)
(0.515097 0.190398 -1.88775e-19)
(0.286176 0.103488 -5.5801e-20)
(0.106923 0.0370671 6.5554e-20)
(0.00474395 0.000415687 0)
(-0.0119937 -0.00470871 -4.56264e-20)
(0.236808 0.105647 -7.69752e-20)
(1.12148 0.492885 4.32162e-20)
(1.32624 0.587739 4.44059e-21)
(1.36159 0.614299 9.41879e-21)
(1.32012 0.608689 -1.6376e-20)
(1.25318 0.591644 -4.09572e-21)
(1.18402 0.571823 -7.82111e-20)
(1.11343 0.548646 -4.1123e-20)
(1.04174 0.52028 -1.13958e-19)
(0.970744 0.485132 3.22811e-22)
(0.912454 0.447901 -2.32069e-19)
(0.875142 0.41637 1.97882e-19)
(0.85198 0.390371 -1.20706e-19)
(0.813165 0.35873 1.45566e-19)
(0.702219 0.299133 0)
(0.502632 0.208215 -1.0296e-19)
(0.286179 0.115706 2.29588e-22)
(0.113439 0.0441471 -2.87157e-19)
(0.0114374 0.00328692 -4.21159e-20)
(-0.0101581 -0.00445502 0)
(0.233881 0.114553 0)
(1.11099 0.538423 4.96471e-20)
(1.31683 0.643114 2.10063e-20)
(1.35059 0.670562 -5.34042e-21)
(1.30793 0.66284 -2.41808e-20)
(1.24017 0.642796 0)
(1.16976 0.619843 -3.39263e-20)
(1.09744 0.593395 -1.04599e-21)
(1.02354 0.561552 2.44533e-19)
(0.949933 0.522611 -3.70318e-20)
(0.889135 0.481747 -1.67892e-19)
(0.84988 0.447384 1.02683e-19)
(0.824947 0.418982 -2.23813e-21)
(0.784818 0.384356 1.54997e-19)
(0.677234 0.320706 9.56759e-20)
(0.488353 0.225508 -2.22594e-19)
(0.283302 0.127753 2.63564e-19)
(0.117737 0.051455 7.80914e-20)
(0.0172226 0.00658965 3.21669e-19)
(-0.0082725 -0.00399096 -8.59004e-19)
(0.231929 0.123371 -2.54117e-20)
(1.10025 0.581588 3.45256e-20)
(1.30614 0.695519 -2.34567e-20)
(1.3381 0.723905 -2.38605e-21)
(1.29441 0.714302 0)
(1.226 0.69159 -2.4422e-20)
(1.15455 0.665851 1.159e-19)
(1.0807 0.636467 8.96276e-20)
(1.00478 0.601465 0)
(0.928651 0.559005 -5.36309e-19)
(0.865416 0.514675 4.5529e-19)
(0.824289 0.477491 0)
(0.797708 0.446644 1.41629e-19)
(0.756316 0.408961 -2.23684e-21)
(0.651265 0.341081 -3.06907e-19)
(0.472104 0.241353 1.19944e-19)
(0.277449 0.138878 0)
(0.119077 0.0581875 4.22244e-19)
(0.0212267 0.00967206 0)
(-0.0066548 -0.00349441 -4.07489e-19)
(0.230794 0.132175 3.04573e-20)
(1.08968 0.622596 4.47858e-20)
(1.29463 0.745046 -2.32661e-20)
(1.32461 0.774336 0)
(1.28001 0.763059 -1.54619e-20)
(1.21109 0.737989 0)
(1.13877 0.709778 -1.11659e-19)
(1.06355 0.677789 -4.04053e-20)
(0.985726 0.639959 4.26837e-20)
(0.907164 0.594273 -2.65528e-19)
(0.841498 0.546625 4.6869e-20)
(0.79853 0.506587 0)
(0.770401 0.473222 -3.02745e-19)
(0.727695 0.432257 2.17173e-21)
(0.624495 0.359741 0)
(0.453612 0.25534 1.17308e-21)
(0.268558 0.148268 3.86736e-19)
(0.117191 0.0635511 -3.64939e-19)
(0.0230044 0.0119804 1.07751e-19)
(-0.00552087 -0.00310249 0)
(0.230158 0.140858 0)
(1.07958 0.66153 5.39556e-20)
(1.28258 0.791859 3.41087e-20)
(1.31054 0.82191 -2.53078e-21)
(1.26512 0.809139 -1.05642e-21)
(1.1958 0.781988 -5.48452e-20)
(1.12273 0.751605 4.2672e-20)
(1.04628 0.717329 -4.88356e-20)
(0.96666 0.676997 1.92075e-19)
(0.88569 0.628403 -4.24938e-19)
(0.817534 0.577581 -4.07385e-21)
(0.772708 0.534672 -1.31892e-19)
(0.743074 0.498639 4.92103e-19)
(0.698935 0.454002 -2.58899e-21)
(0.597043 0.376395 -2.38945e-19)
(0.433264 0.266961 -4.25007e-19)
(0.257005 0.155537 0)
(0.112782 0.0671064 0)
(0.0228979 0.0132452 1.16313e-19)
(-0.00482898 -0.00289283 -6.82635e-20)
(0.230218 0.149543 4.27314e-20)
(1.07006 0.698287 -1.22628e-19)
(1.27026 0.836056 -3.66093e-20)
(1.29621 0.866693 0)
(1.25001 0.852599 -1.51227e-21)
(1.18039 0.823616 -4.52532e-20)
(1.1067 0.791342 9.98102e-20)
(1.02913 0.755083 1.89064e-19)
(0.947801 0.71258 2.48828e-19)
(0.864425 0.661403 -3.46759e-19)
(0.793671 0.607586 -3.92602e-19)
(0.746885 0.561814 3.53009e-19)
(0.715684 0.522831 0)
(0.670014 0.473931 -1.08711e-19)
(0.568969 0.390669 -2.58525e-19)
(0.411146 0.275895 -3.05821e-19)
(0.24313 0.16025 -3.61131e-19)
(0.106038 0.068735 1.06674e-19)
(0.0212629 0.0134612 -6.2632e-20)
(-0.00453052 -0.0028855 2.9844e-22)
(0.230396 0.158163 0)
(1.06126 0.733288 0)
(1.25792 0.877738 2.48649e-21)
(1.28183 0.90881 0)
(1.23493 0.893529 -1.03097e-20)
(1.16508 0.862933 2.64796e-20)
(1.09087 0.829019 0)
(1.01229 0.791063 2.18495e-20)
(0.929336 0.746712 4.14204e-19)
(0.84355 0.693298 -7.98278e-19)
(0.770044 0.636731 0)
(0.721101 0.588085 -2.27559e-19)
(0.688163 0.54573 -3.04218e-21)
(0.640818 0.491846 -2.33639e-21)
(0.540297 0.402279 2.76809e-19)
(0.387575 0.281869 -9.07376e-23)
(0.227489 0.162256 -7.78397e-19)
(0.0975015 0.0683914 2.29581e-19)
(0.0184822 0.0127585 6.78183e-20)
(-0.00446262 -0.00299943 0)
(0.230704 0.166649 -1.7073e-19)
(1.05291 0.766638 -8.2757e-20)
(1.24566 0.916991 -1.07949e-19)
(1.26758 0.948394 1.05669e-19)
(1.22005 0.932004 -3.36134e-20)
(1.15005 0.900002 0)
(1.07542 0.864683 5.79818e-20)
(0.99592 0.825295 -4.93019e-20)
(0.911423 0.779411 3.91335e-21)
(0.823229 0.724123 5.91226e-20)
(0.746786 0.665113 5.08945e-19)
(0.695378 0.613567 -7.97673e-20)
(0.660404 0.567351 -3.03991e-19)
(0.611205 0.507609 -1.26867e-19)
(0.511099 0.410923 1.50341e-19)
(0.36324 0.28462 8.68655e-23)
(0.210533 0.161441 2.09701e-19)
(0.0878773 0.0661812 -4.94099e-19)
(0.0150564 0.0112727 5.84001e-19)
(-0.00454795 -0.00319883 8.51267e-20)
(0.230934 0.174875 6.48891e-20)
(1.04503 0.798427 -4.66441e-20)
(1.2336 0.953915 6.23685e-21)
(1.25357 0.985577 6.8112e-20)
(1.2055 0.968135 1.39288e-20)
(1.13542 0.934898 -4.21055e-20)
(1.06046 0.898383 1.52465e-20)
(0.980145 0.857803 -2.04517e-19)
(0.894194 0.810683 -4.55e-19)
(0.803598 0.753894 -4.75455e-19)
(0.724037 0.692818 0)
(0.669752 0.638372 -3.51507e-19)
(0.632314 0.587827 4.38842e-19)
(0.580924 0.521117 0)
(0.481282 0.416198 -3.22182e-19)
(0.33873 0.283674 1.91643e-19)
(0.193631 0.157655 -2.25539e-19)
(0.0784347 0.0624031 -2.65895e-19)
(0.0117168 0.00934203 -4.70418e-19)
(-0.0047007 -0.00343329 -3.667e-19)
(0.231523 0.182975 -7.33919e-20)
(1.03746 0.828646 4.991e-20)
(1.22181 0.988585 1.13791e-19)
(1.23991 1.02044 9.97637e-20)
(1.1914 1.00202 -2.55172e-20)
(1.1213 0.96771 -1.72144e-20)
(1.04609 0.930174 5.21801e-20)
(0.965055 0.888628 -2.08369e-19)
(0.877738 0.84055 -2.69254e-19)
(0.784783 0.782635 4.97195e-19)
(0.701923 0.719907 1.11917e-18)
(0.644293 0.662664 0)
(0.60379 0.607385 0)
(0.5496 0.532371 -1.4616e-19)
(0.450503 0.41766 0)
(0.314259 0.2782 4.11925e-19)
(0.178133 0.150096 4.84898e-19)
(0.0711714 0.0570084 0)
(0.00966661 0.00735847 0)
(-0.00479731 -0.00364401 3.9405e-19)
(0.231786 0.190652 8.35285e-20)
(1.03023 0.85729 6.74706e-20)
(1.21035 1.02112 8.27345e-20)
(1.22665 1.05311 -9.64166e-20)
(1.1778 1.03376 -3.44197e-20)
(1.10774 0.998514 9.65481e-21)
(1.03237 0.960117 -7.04471e-20)
(0.950717 0.917801 -5.44521e-22)
(0.862138 0.86902 -5.09084e-21)
(0.766881 0.810351 -4.60512e-21)
(0.680586 0.746422 5.7668e-19)
(0.619117 0.686626 0)
(0.574773 0.626318 4.45503e-19)
(0.516818 0.541549 3.12185e-19)
(0.418012 0.415126 7.52632e-19)
(0.28937 0.266935 2.22043e-19)
(0.16549 0.136071 -2.60949e-19)
(0.0703874 0.0468758 -1.53215e-19)
(0.0149648 0.00422923 0)
(-0.00276984 -0.00304449 4.23646e-19)
(0.232372 0.198348 -1.88519e-19)
(1.0233 0.884455 0)
(1.19919 1.05159 9.75619e-20)
(1.21384 1.08364 -8.19149e-20)
(1.16476 1.06346 4.78373e-20)
(1.09478 1.0274 3.989e-21)
(1.01935 0.988269 1.2951e-19)
(0.937168 0.945356 -1.74876e-20)
(0.84744 0.896103 0)
(0.749973 0.83702 -5.47419e-19)
(0.660164 0.772372 -1.25335e-18)
(0.59438 0.71045 5.18608e-20)
(0.545308 0.644937 6.15813e-19)
(0.482283 0.549076 0)
(0.382631 0.409046 5.08522e-19)
(0.26177 0.248853 0)
(0.153635 0.109771 0)
(0.0808321 0.0178146 -1.65691e-19)
(0.0489308 -0.0106189 0)
(0.0273209 0.0106845 1.13538e-19)
(0.232602 0.205463 -2.10879e-19)
(1.01662 0.910474 0)
(1.18836 1.08018 1.62612e-19)
(1.20143 1.11229 0)
(1.15223 1.09138 -2.94092e-20)
(1.08237 1.05465 0)
(1.00696 1.01494 5.11548e-21)
(0.924311 0.97163 2.84179e-20)
(0.83352 0.922158 3.3776e-20)
(0.73389 0.863023 -5.99428e-19)
(0.640463 0.798195 3.74174e-20)
(0.569839 0.734805 4.18855e-19)
(0.514961 0.664032 6.01248e-19)
(0.445096 0.555591 8.13181e-20)
(0.342382 0.400853 3.99153e-19)
(0.226418 0.224895 0)
(0.130331 0.0667384 5.50292e-19)
(0.0704201 -0.0264235 -3.21084e-19)
(0.0422923 0.0429532 3.73396e-19)
(-0.0690927 0.437449 -4.39981e-19)
(0.23283 0.212392 1.74791e-19)
(1.00993 0.935121 2.69277e-19)
(1.17774 1.10721 0)
(1.18928 1.1395 4.95303e-21)
(1.14003 1.1181 8.75232e-20)
(1.07025 1.08095 -4.56226e-20)
(0.994892 1.04093 4.04966e-20)
(0.911732 0.997555 0)
(0.819839 0.948268 2.20533e-19)
(0.717957 0.88966 -3.09201e-20)
(0.620567 0.825377 0)
(0.544225 0.761392 0)
(0.481744 0.68506 5.39272e-19)
(0.402882 0.561671 -2.519e-19)
(0.294024 0.392416 -4.05128e-19)
(0.178445 0.198476 0)
(0.0759996 0.0755697 2.77712e-19)
(0.00331117 0.438185 -3.20437e-19)
(0.0329547 1.89258 -1.74631e-19)
(0.0621737 2.81282 -2.23901e-19)
(0.232891 0.218509 -1.31437e-19)
(1.00344 0.958586 -3.4581e-19)
(1.16736 1.13268 9.67421e-20)
(1.17738 1.16514 8.00973e-20)
(1.12816 1.14339 0)
(1.05848 1.10601 -4.27465e-20)
(0.983337 1.06593 4.84883e-20)
(0.899625 1.0227 -1.33913e-20)
(0.806671 0.973919 3.30898e-20)
(0.702556 0.916321 5.69596e-19)
(0.601078 0.853303 6.33137e-19)
(0.518454 0.789821 4.69641e-19)
(0.446482 0.708101 5.43234e-19)
(0.35719 0.566333 -5.93085e-19)
(0.243007 0.387413 -6.12717e-19)
(0.120422 0.241807 0)
(0.0424628 0.82908 0)
(0.0999515 2.55183 1.52765e-19)
(0.101181 3.20245 0)
(0.104486 3.38861 3.62323e-19)
(0.235494 0.22415 0)
(0.997739 0.981073 0)
(1.15698 1.15642 0)
(1.16552 1.18905 2.42096e-20)
(1.1163 1.167 8.02456e-20)
(1.04686 1.1297 -4.42356e-20)
(0.972191 1.08982 2.85525e-20)
(0.887949 1.04697 -1.28449e-20)
(0.793984 0.99898 2.71437e-19)
(0.687722 0.942873 -8.98482e-21)
(0.582158 0.881909 1.24912e-18)
(0.492829 0.819903 -5.43808e-20)
(0.409353 0.734259 6.5714e-20)
(0.310617 0.567261 8.59737e-20)
(0.179743 0.399454 -5.38816e-21)
(0.0979289 0.960605 1.84356e-21)
(0.138665 2.72352 -8.10604e-19)
(0.146674 3.29291 -3.02857e-19)
(0.135927 3.42568 1.55168e-19)
(0.123645 3.44789 -1.7207e-19)
(0.154206 0.181415 7.78858e-20)
(0.986716 1.00533 0)
(1.14623 1.17863 -1.93879e-19)
(1.15423 1.21173 -2.17426e-19)
(1.10531 1.18976 1.89537e-19)
(1.03631 1.15271 5.15333e-20)
(0.961402 1.1127 -2.57284e-20)
(0.876818 1.07049 1.32022e-19)
(0.781952 1.02363 -2.20005e-19)
(0.673754 0.969497 0)
(0.564229 0.911427 6.11961e-19)
(0.467909 0.851478 -3.83138e-19)
(0.371781 0.766285 0)
(0.256997 0.565144 8.02155e-20)
(0.142312 0.73781 1.91916e-19)
(0.154388 2.4966 -2.22434e-19)
(0.211044 3.32228 2.48816e-19)
(0.191376 3.43801 1.32756e-19)
(0.159351 3.45975 1.48358e-19)
(0.137781 3.47017 2.33056e-19)
(0.278398 0.262174 -1.42258e-19)
(0.971412 1.0151 0)
(1.12813 1.20401 2.11285e-19)
(1.13933 1.24216 2.37987e-19)
(1.08796 1.22279 -2.10355e-19)
(1.01819 1.18612 -7.47526e-20)
(0.942366 1.14775 5.61148e-21)
(0.857273 1.10678 1.05311e-20)
(0.761097 1.06211 2.05324e-19)
(0.650145 1.01194 4.85018e-19)
(0.535325 0.960496 3.41634e-20)
(0.428187 0.905804 3.39802e-19)
(0.303016 0.803614 6.15273e-20)
(0.212149 0.916623 -7.8788e-20)
(0.228746 2.34453 -1.78197e-19)
(0.290394 3.32408 1.678e-19)
(0.27335 3.46636 -1.83642e-19)
(0.237995 3.48857 -1.05478e-19)
(0.200991 3.5165 -8.53111e-20)
(0.149535 3.51088 -1.00619e-20)
(0.266273 0.259063 0)
(0.969038 1.03772 6.11272e-20)
(1.1198 1.22748 -4.36017e-20)
(1.12871 1.26581 -2.83956e-20)
(1.07715 1.24599 -1.45667e-19)
(1.00734 1.20955 7.75504e-20)
(0.931188 1.17132 4.46001e-21)
(0.845895 1.13116 9.12164e-21)
(0.749193 1.08799 -2.11197e-19)
(0.636946 1.04071 -1.37276e-20)
(0.519315 0.994292 -1.09997e-18)
(0.40703 0.943937 4.86094e-20)
(0.284552 0.868511 -5.78533e-20)
(0.254591 1.47434 -7.24694e-20)
(0.330432 3.09814 1.81339e-20)
(0.349729 3.4635 2.46793e-22)
(0.309418 3.52014 2.54703e-19)
(0.272068 3.54727 1.20065e-19)
(0.223409 3.57107 -2.16242e-20)
(0.164419 3.56736 -4.34895e-20)
(0.250114 0.257581 1.54941e-19)
(0.965083 1.06302 4.17276e-19)
(1.11106 1.25304 -1.25083e-19)
(1.11751 1.29086 -1.07272e-19)
(1.06571 1.27053 0)
(0.996047 1.23415 1.39222e-19)
(0.919882 1.19616 2.14804e-20)
(0.834669 1.1568 7.59696e-21)
(0.737759 1.11522 -2.37436e-20)
(0.624746 1.07109 -4.31037e-19)
(0.50515 1.03007 -5.03998e-19)
(0.389337 0.98339 -3.94715e-19)
(0.286351 0.996814 -4.37086e-19)
(0.324794 2.19559 4.51917e-19)
(0.418058 3.37241 3.71327e-19)
(0.394526 3.52094 0)
(0.349034 3.56662 0)
(0.310938 3.60805 -1.55573e-20)
(0.26003 3.66862 0)
(0.177046 3.64498 -6.20256e-21)
(0.239478 0.259512 -2.32211e-19)
(0.959194 1.08942 -3.54469e-19)
(1.10088 1.27979 0)
(1.10494 1.31664 5.93701e-21)
(1.05299 1.29568 -1.57525e-19)
(0.983625 1.25924 2.25267e-19)
(0.907783 1.22153 2.25744e-20)
(0.822856 1.18287 2.65849e-21)
(0.725977 1.14282 -1.41834e-19)
(0.612609 1.10185 2.09595e-20)
(0.491973 1.0663 0)
(0.37117 1.02457 0)
(0.307934 1.25235 -3.95935e-19)
(0.409265 2.87606 1.60191e-19)
(0.490486 3.48007 1.99226e-19)
(0.441841 3.55355 0)