/*--------------------------------*- C++ -*----------------------------------*\
  =========                 |
  \\      /  F ield         | OpenFOAM: The Open Source CFD Toolbox
   \\    /   O peration     | Website:  https://openfoam.org
    \\  /    A nd           | Version:  10
     \\/     M anipulation  |
\*---------------------------------------------------------------------------*/
FoamFile
{
    format      ascii;
    class       volScalarField;
    location    "12";
    object      p;
}
// * * * * * * * * * * * * * * * * * * * * * * * * * * * * * * * * * * * * * //

dimensions      [0 2 -2 0 0 0 0];

internalField   nonuniform List<scalar> 
8800
(
0.439192
0.391448
0.352848
0.323937
0.303176
0.288471
0.278022
0.270675
0.265931
0.263818
0.26484
0.268684
0.274968
0.283953
0.296465
0.313993
0.338618
0.372443
0.414859
0.473556
0.27026
0.277949
0.285598
0.289007
0.287628
0.282727
0.276436
0.270517
0.26589
0.263036
0.262593
0.264796
0.268931
0.274523
0.280952
0.286923
0.290333
0.289464
0.283826
0.275019
0.248562
0.254789
0.259034
0.262179
0.264419
0.265203
0.264279
0.262352
0.260429
0.259434
0.260137
0.262133
0.264504
0.26629
0.266561
0.265061
0.262438
0.258809
0.254139
0.250344
0.242366
0.245097
0.248179
0.250934
0.252888
0.254314
0.255278
0.255563
0.255331
0.2552
0.255649
0.256404
0.256806
0.256421
0.255382
0.25386
0.251601
0.248594
0.245905
0.24441
0.236956
0.238443
0.240644
0.243188
0.245437
0.247147
0.248366
0.249282
0.249951
0.250416
0.250719
0.250744
0.250375
0.249634
0.248409
0.246574
0.244239
0.24179
0.240148
0.239355
0.232074
0.232951
0.234893
0.237281
0.239617
0.241788
0.243574
0.244859
0.245746
0.24637
0.246728
0.24668
0.246126
0.244959
0.243203
0.241113
0.238856
0.236635
0.235351
0.23496
0.229347
0.2298
0.231164
0.232944
0.234666
0.236229
0.237731
0.239177
0.240411
0.24132
0.241688
0.241464
0.240753
0.239739
0.238544
0.237108
0.235457
0.233875
0.233046
0.232887
0.22794
0.228185
0.228962
0.230072
0.231336
0.232767
0.234208
0.235539
0.236737
0.23772
0.238237
0.238196
0.237725
0.236891
0.235794
0.234695
0.233715
0.232847
0.232408
0.232325
0.22612
0.22626
0.226672
0.22733
0.22808
0.228989
0.230141
0.2314
0.232663
0.233784
0.234458
0.23457
0.234273
0.23376
0.233255
0.232792
0.232277
0.231864
0.231651
0.231597
0.223412
0.223493
0.223788
0.2243
0.224948
0.225621
0.226615
0.227742
0.228964
0.230189
0.231095
0.231519
0.231578
0.231414
0.231248
0.230962
0.230667
0.230411
0.230297
0.230268
0.220208
0.220248
0.220476
0.220918
0.221436
0.222302
0.223167
0.224269
0.225572
0.226984
0.228171
0.228893
0.22924
0.229351
0.229258
0.2292
0.229026
0.228872
0.228823
0.228809
0.216745
0.21677
0.216954
0.21734
0.217872
0.218569
0.219468
0.220622
0.222049
0.223711
0.225252
0.22634
0.227022
0.227419
0.227599
0.227645
0.227598
0.227547
0.227542
0.227533
0.212945
0.212971
0.213129
0.213466
0.213977
0.21469
0.215662
0.216955
0.218612
0.220632
0.222606
0.224091
0.225096
0.225744
0.226128
0.226337
0.226432
0.226477
0.226503
0.226494
0.208684
0.208708
0.20887
0.209202
0.209728
0.2105
0.211595
0.213099
0.215087
0.217577
0.220091
0.222057
0.223424
0.224356
0.224959
0.225332
0.225552
0.225676
0.225727
0.225717
0.203862
0.203886
0.204071
0.204437
0.205032
0.205925
0.20722
0.209033
0.211469
0.214569
0.217745
0.220257
0.22209
0.223335
0.224167
0.224704
0.225037
0.225227
0.225302
0.22529
0.198373
0.198403
0.198622
0.199061
0.199771
0.200852
0.202434
0.204669
0.207697
0.211581
0.215597
0.218821
0.22114
0.222754
0.223841
0.224552
0.225
0.225256
0.225355
0.225341
0.192062
0.192099
0.192376
0.19292
0.193801
0.195147
0.197121
0.199918
0.203717
0.208599
0.213658
0.217719
0.220659
0.222709
0.224095
0.225005
0.225581
0.225909
0.226035
0.226018
0.184712
0.184758
0.185108
0.185801
0.186937
0.188651
0.191147
0.194676
0.199471
0.205619
0.211974
0.217068
0.220756
0.223331
0.225074
0.226219
0.226942
0.227354
0.227512
0.227491
0.176035
0.176095
0.176547
0.177449
0.178912
0.181106
0.184301
0.188812
0.194891
0.20264
0.210606
0.216968
0.221566
0.224776
0.226951
0.228379
0.229279
0.22979
0.229985
0.229959
0.165631
0.165711
0.166304
0.167486
0.169399
0.172251
0.176394
0.182178
0.189907
0.199674
0.209631
0.217541
0.223248
0.22723
0.229931
0.231707
0.232824
0.233457
0.233694
0.23366
0.152957
0.153069
0.153855
0.15543
0.157963
0.161726
0.167119
0.17458
0.184448
0.196751
0.20915
0.218938
0.225984
0.230904
0.234249
0.236456
0.237846
0.238629
0.238924
0.238876
0.13723
0.13739
0.138454
0.140599
0.14402
0.14903
0.156148
0.165871
0.178491
0.193942
0.209296
0.221331
0.229985
0.23604
0.240175
0.242919
0.244652
0.245613
0.245974
0.245914
0.117265
0.117495
0.119001
0.122032
0.126778
0.13363
0.143195
0.155939
0.17207
0.191375
0.210237
0.224912
0.23547
0.242896
0.248003
0.251426
0.253617
0.254839
0.255276
0.255196
0.0911721
0.0915267
0.0938057
0.0983378
0.105204
0.114867
0.127918
0.144714
0.165291
0.189222
0.212152
0.229857
0.242631
0.2517
0.25802
0.262319
0.265114
0.266693
0.267258
0.267151
0.0557991
0.0564541
0.0602957
0.0676201
0.0780759
0.0921168
0.110158
0.132318
0.158374
0.187698
0.215198
0.236279
0.251566
0.262579
0.270423
0.275904
0.279567
0.281666
0.282407
0.282258
0.00491058
0.00687441
0.0147508
0.0278091
0.0445864
0.0653779
0.0903122
0.119241
0.151746
0.187089
0.219515
0.244204
0.26223
0.275458
0.285168
0.292245
0.297223
0.300254
0.301349
0.301139
-0.0716873
-0.0614122
-0.0433516
-0.0200246
0.00629398
0.0360795
0.0694121
0.106113
0.145771
0.18769
0.225507
0.254247
0.275492
0.291478
0.30369
0.313153
0.32041
0.325353
0.327514
0.327724
-0.153251
-0.130532
-0.101809
-0.068187
-0.0321619
0.00668052
0.0484496
0.0930762
0.140263
0.189468
0.23369
0.267539
0.292989
0.312643
0.328206
0.340799
0.350995
0.359722
0.364102
0.364464
-0.21643
-0.191487
-0.154494
-0.11271
-0.068209
-0.0210714
0.0286607
0.08086
0.135236
0.19128
0.2413
0.279531
0.308344
0.330702
0.348472
0.362859
0.374473
0.383861
0.387869
0.388496
-0.267418
-0.24036
-0.198797
-0.151157
-0.100211
-0.0463284
0.010257
0.0692227
0.13014
0.192407
0.247523
0.289274
0.320437
0.344329
0.363046
0.377997
0.389994
0.399224
0.403519
0.404139
-0.308602
-0.28095
-0.23598
-0.184
-0.128117
-0.0688605
-0.00659383
0.058203
0.124919
0.192722
0.252244
0.296877
0.329787
0.354694
0.373949
0.389103
0.401093
0.410116
0.414617
0.415243
-0.343478
-0.315563
-0.26821
-0.212792
-0.152899
-0.0891637
-0.0220621
0.047812
0.119696
0.192567
0.256171
0.303381
0.337761
0.363429
0.382981
0.398144
0.410014
0.418814
0.423329
0.423964
-0.373957
-0.34599
-0.296888
-0.238674
-0.175428
-0.107869
-0.036552
0.0378606
0.11448
0.192047
0.259421
0.309014
0.344747
0.371103
0.390943
0.406152
0.417941
0.426522
0.431011
0.431666
-0.401612
-0.373595
-0.323017
-0.262517
-0.19645
-0.125595
-0.0505421
0.0279565
0.108898
0.190889
0.261991
0.314031
0.351192
0.378315
0.398507
0.413818
0.42556
0.434044
0.438435
0.439106
-0.427237
-0.399114
-0.347368
-0.284891
-0.216394
-0.142677
-0.0643547
0.0178178
0.10283
0.189152
0.264037
0.318658
0.35739
0.385404
0.406045
0.421534
0.433286
0.44167
0.445937
0.44668
-0.451491
-0.423181
-0.370411
-0.306226
-0.235631
-0.159415
-0.0781555
0.00740027
0.0962327
0.186765
0.265514
0.322934
0.363467
0.392559
0.41379
0.42955
0.441374
0.449696
0.453825
0.454586
-0.474642
-0.446119
-0.392417
-0.326843
-0.254376
-0.175937
-0.0920644
-0.0034486
0.0889455
0.183604
0.266356
0.326843
0.369473
0.399882
0.42188
0.438034
0.450001
0.458298
0.462285
0.46301
-0.497038
-0.468192
-0.413684
-0.346883
-0.272786
-0.192413
-0.106219
-0.0148303
0.0808997
0.179567
0.266447
0.330297
0.375371
0.407406
0.430393
0.447092
0.459305
0.467631
0.471463
0.472104
-0.518702
-0.489558
-0.434471
-0.366447
-0.290943
-0.208883
-0.120639
-0.0267487
0.0720512
0.174569
0.265643
0.333158
0.381059
0.415085
0.439343
0.456779
0.469351
0.477749
0.481466
0.481942
-0.539712
-0.510236
-0.454618
-0.385559
-0.308847
-0.225323
-0.135299
-0.0392064
0.0623843
0.168548
0.263811
0.335239
0.386347
0.422776
0.448648
0.467069
0.480152
0.488692
0.492317
0.49259
-0.560132
-0.530333
-0.47416
-0.404232
-0.326497
-0.241719
-0.150169
-0.0521607
0.0519192
0.161451
0.260816
0.336314
0.390982
0.430266
0.458185
0.477896
0.491679
0.500413
0.503937
0.504004
-0.580013
-0.549841
-0.493126
-0.422447
-0.34384
-0.258016
-0.16518
-0.0655472
0.0406965
0.153267
0.256528
0.33614
0.394693
0.437341
0.467838
0.489196
0.503842
0.512782
0.5161
0.515989
-0.599182
-0.568673
-0.511466
-0.440163
-0.36082
-0.274134
-0.180252
-0.0792708
0.0288
0.144039
0.250872
0.334499
0.397149
0.443657
0.477363
0.500916
0.516615
0.525679
0.528671
0.528343
-0.617642
-0.586807
-0.529162
-0.45732
-0.377376
-0.290006
-0.19529
-0.0932358
0.0163331
0.133819
0.243823
0.331208
0.397922
0.448662
0.486368
0.513012
0.530138
0.538963
0.541249
0.540683
-0.635416
-0.604195
-0.546195
-0.473883
-0.39345
-0.305548
-0.2102
-0.107332
0.00341067
0.12271
0.235376
0.326147
0.396663
0.451697
0.494178
0.525313
0.545026
0.553158
0.55345
0.552505
-0.652373
-0.620864
-0.562503
-0.489795
-0.408986
-0.320686
-0.224888
-0.121441
-0.0098385
0.110852
0.225618
0.319233
0.393117
0.452034
0.499674
0.537021
0.562037
0.570831
0.566567
0.563741
-0.668611
-0.63678
-0.578114
-0.505077
-0.424017
-0.335468
-0.239411
-0.135621
-0.0234738
0.0981804
0.214465
0.310258
0.387021
0.448941
0.501076
0.545847
0.58008
0.59702
0.591258
0.567758
-0.684083
-0.651966
-0.593135
-0.519896
-0.438807
-0.350196
-0.254157
-0.150337
-0.0380311
0.0840439
0.201211
0.298384
0.377476
0.441192
0.495162
0.545874
0.587778
0.606507
0.593464
0.56563
-0.698666
-0.666612
-0.607404
-0.534005
-0.453085
-0.364545
-0.268903
-0.165261
-0.0531778
0.0687795
0.186093
0.283561
0.364118
0.428697
0.478181
0.527132
0.562456
0.568547
0.50193
0.456779
-0.711764
-0.681385
-0.620505
-0.546847
-0.466224
-0.378089
-0.283377
-0.180186
-0.0686937
0.0525765
0.169183
0.265811
0.346437
0.412322
0.452201
0.479128
0.49966
0.459825
0.38299
0.332111
-0.763995
-0.692994
-0.632299
-0.559906
-0.479575
-0.392117
-0.297667
-0.195355
-0.0848731
0.0350979
0.150116
0.244909
0.322747
0.392939
0.407261
0.408671
0.380795
0.31329
0.224364
0.175032
-0.720719
-0.706927
-0.648693
-0.578467
-0.498485
-0.411882
-0.318964
-0.218102
-0.109543
0.00778696
0.118948
0.209076
0.279173
0.33498
0.340951
0.214794
0.093505
0.0100684
-0.0775694
-0.0294576
-0.747564
-0.720606
-0.663179
-0.592547
-0.513327
-0.427396
-0.334789
-0.235128
-0.128222
-0.0133151
0.0942322
0.17943
0.24199
0.270123
0.211821
0.03581
-0.126551
-0.240237
-0.363599
-0.288332
-0.767368
-0.736781
-0.679415
-0.608315
-0.529517
-0.444124
-0.352183
-0.253936
-0.149014
-0.0370617
0.0662395
0.145342
0.197706
0.198604
0.0702161
-0.166283
-0.370075
-0.525764
-0.703731
-0.634856
-0.785884
-0.753909
-0.69572
-0.624151
-0.545562
-0.460715
-0.369811
-0.273114
-0.170347
-0.0616621
0.0368276
0.109457
0.149406
0.110316
-0.0971004
-0.375216
-0.640217
-0.876088
-1.13936
-1.11453
-0.802903
-0.770989
-0.712253
-0.640394
-0.562017
-0.477803
-0.388061
-0.293017
-0.192591
-0.0874665
0.00580454
0.0718338
0.0954688
0.00947032
-0.259873
-0.571098
-0.893785
-1.18725
-1.53955
-1.91413
-0.819488
-0.788013
-0.729193
-0.657306
-0.579168
-0.495598
-0.407008
-0.31365
-0.215668
-0.114234
-0.0263692
0.0325525
0.0399511
-0.0974408
-0.407153
-0.728873
-1.05856
-1.34179
-1.46878
-1.66663
-0.836253
-0.805223
-0.74672
-0.675027
-0.597277
-0.514488
-0.427188
-0.335748
-0.240577
-0.14333
-0.0614701
-0.0105131
-0.021838
-0.223108
-0.53819
-0.850221
-1.12453
-1.30166
-1.34061
-1.37445
-0.85344
-0.822854
-0.764724
-0.693483
-0.616286
-0.534477
-0.448736
-0.359581
-0.267615
-0.175167
-0.099889
-0.0576624
-0.0988364
-0.34611
-0.654321
-0.954747
-1.18083
-1.26277
-1.29152
-1.29808
-0.871175
-0.840932
-0.783141
-0.712464
-0.635963
-0.555374
-0.471493
-0.384997
-0.29673
-0.209702
-0.141506
-0.109406
-0.181278
-0.462057
-0.757545
-1.06026
-1.27123
-1.29114
-1.28557
-1.28357
-0.889216
-0.859303
-0.801869
-0.731735
-0.65608
-0.576935
-0.495193
-0.411752
-0.327722
-0.246656
-0.186457
-0.166877
-0.271444
-0.5723
-0.84208
-1.14189
-1.36595
-1.32026
-1.2891
-1.27645
-0.907225
-0.877619
-0.82057
-0.750986
-0.676332
-0.598789
-0.51959
-0.439696
-0.360442
-0.28588
-0.234729
-0.226462
-0.36747
-0.677469
-0.890531
-1.09706
-1.25158
-1.25013
-1.23497
-1.22769
-0.924516
-0.895213
-0.838746
-0.769705
-0.696178
-0.620526
-0.544163
-0.46838
-0.394477
-0.326631
-0.285961
-0.285878
-0.483084
-0.794347
-0.910934
-0.867097
-1.00942
-1.13998
-1.20673
-1.21823
-0.940449
-0.91151
-0.855608
-0.787227
-0.714874
-0.641329
-0.568223
-0.497123
-0.428971
-0.36835
-0.338994
-0.349661
-0.625294
-1.00022
-1.14494
-0.907117
-1.06116
-1.26518
-1.38255
-1.41072
-0.954261
-0.925734
-0.870299
-0.802507
-0.731487
-0.660296
-0.590937
-0.5251
-0.463278
-0.410087
-0.390514
-0.422718
-0.800951
-1.37341
-1.92727
-1.96464
-1.86797
-1.84019
-1.856
-1.87618
-0.964558
-0.936576
-0.881655
-0.814449
-0.744894
-0.676344
-0.611282
-0.55142
-0.497029
-0.450765
-0.438856
-0.494623
-0.957709
-1.77185
-2.77006
-3.35633
-3.18272
-2.84304
-2.6008
-2.54553
-0.969872
-0.942569
-0.888221
-0.82171
-0.753757
-0.688133
-0.627915
-0.575649
-0.531282
-0.491479
-0.478276
-0.563491
-0.999227
-1.80896
-2.83356
-3.65327
-3.77167
-3.53028
-3.16257
-2.96654
-0.968595
-0.942038
-0.888398
-0.822751
-0.756579
-0.694141
-0.63945
-0.596788
-0.567318
-0.53929
-0.518795
-0.595294
-0.891769
-1.43925
-2.02286
-2.51301
-2.69649
-2.65826
-2.46185
-2.33141
-0.959133
-0.933273
-0.880545
-0.816042
-0.751855
-0.692894
-0.644894
-0.615103
-0.609952
-0.613971
-0.594329
-0.587938
-0.694095
-0.799621
-0.856761
-0.87656
-0.831624
-0.744166
-0.614443
-0.525148
-0.939732
-0.914645
-0.863166
-0.800243
-0.738233
-0.683005
-0.642589
-0.63012
-0.666434
-0.760564
-0.808821
-0.678157
-0.475457
-0.184703
0.228414
0.642755
0.962415
1.1612
1.27073
1.31728
-0.909065
-0.885041
-0.835097
-0.774316
-0.714681
-0.663049
-0.630547
-0.640388
-0.745984
-1.04348
-1.28592
-0.930295
-0.431659
0.194992
0.89162
1.46542
1.90534
2.14233
2.24043
2.27164
-0.866761
-0.843011
-0.795086
-0.73751
-0.680354
-0.631587
-0.605423
-0.637018
-0.833702
-1.44869
-2.06575
-1.38466
-0.528582
0.293518
1.04789
1.61852
2.0096
2.19685
2.26962
2.28855
-0.811084
-0.789071
-0.744524
-0.689566
-0.63472
-0.587279
-0.562073
-0.599298
-0.823085
-1.60231
-2.44714
-1.57305
-0.613107
0.27484
0.953819
1.39945
1.67087
1.79999
1.86028
1.87266
-0.741983
-0.721949
-0.681457
-0.630435
-0.57789
-0.529959
-0.499141
-0.518581
-0.690562
-1.22408
-1.63237
-1.01222
-0.278478
0.389413
0.845453
1.12587
1.28929
1.38238
1.42678
1.43209
-0.660799
-0.642606
-0.60717
-0.560869
-0.511014
-0.462027
-0.421416
-0.406915
-0.461361
-0.633872
-0.656465
-0.273811
0.167812
0.524059
0.761183
0.914291
1.01388
1.07815
1.11361
1.12474
-0.570807
-0.557969
-0.525382
-0.483633
-0.437266
-0.388304
-0.339657
-0.29683
-0.267237
-0.237759
-0.12876
0.117681
0.354583
0.522442
0.64301
0.728655
0.791079
0.834002
0.857315
0.863817
-0.460944
-0.454237
-0.431222
-0.397767
-0.358599
-0.314552
-0.266088
-0.214097
-0.157302
-0.0818538
0.0392056
0.205298
0.354402
0.460602
0.537919
0.592863
0.631874
0.659531
0.676321
0.67908
-0.356335
-0.353129
-0.337047
-0.311979
-0.281361
-0.245019
-0.202239
-0.151969
-0.09095
-0.00921483
0.0986418
0.216918
0.318096
0.391809
0.444246
0.480437
0.504743
0.519742
0.52684
0.528328
-0.259855
-0.258186
-0.248384
-0.230885
-0.208427
-0.18043
-0.145544
-0.101919
-0.0460653
0.0287513
0.118753
0.206033
0.277241
0.329145
0.365165
0.38895
0.403719
0.412116
0.415835
0.416062
-0.171842
-0.171526
-0.166306
-0.155972
-0.141452
-0.121785
-0.0953847
-0.0601624
-0.0132214
0.0496979
0.122235
0.188053
0.239791
0.276929
0.301973
0.317799
0.326935
0.331558
0.333246
0.333062
-0.0962789
-0.0967886
-0.0957097
-0.091786
-0.0840828
-0.0716099
-0.0529385
-0.0261294
0.011237
0.0619096
0.119104
0.16898
0.206962
0.233654
0.251109
0.261586
0.267212
0.269718
0.270457
0.270182
-0.0393479
-0.0402076
-0.0415194
-0.0416529
-0.0389158
-0.031955
-0.0193797
0.000350352
0.029067
0.0685832
0.112711
0.150337
0.178384
0.197601
0.209822
0.216959
0.220521
0.221861
0.222147
0.221865
-0.000938681
-0.00178998
-0.00383401
-0.00562024
-0.00545803
-0.0021331
0.00578986
0.0197912
0.0413212
0.0715909
0.105291
0.133526
0.154153
0.16812
0.176826
0.181624
0.183794
0.184428
0.184456
0.184201
0.0228697
0.0221961
0.0203187
0.0183488
0.0177101
0.0193629
0.0243601
0.0340447
0.0498
0.0725453
0.0979815
0.119155
0.134431
0.144477
0.150467
0.153628
0.154894
0.15506
0.154927
0.15471
0.0368497
0.0363819
0.0349826
0.0333595
0.0325718
0.0334401
0.036861
0.0437885
0.0552882
0.0721919
0.0912092
0.106871
0.11792
0.125078
0.129293
0.13137
0.132028
0.131923
0.131719
0.131545
0.0447833
0.0444719
0.0435292
0.0423751
0.041736
0.04218
0.0444305
0.0493632
0.0578114
0.0703162
0.0843689
0.0959223
0.104054
0.109242
0.112158
0.113492
0.113804
0.113592
0.113383
0.113248
0.0491142
0.0489023
0.0482676
0.0474695
0.0470203
0.0473386
0.0489254
0.0524099
0.0585061
0.0677136
0.0781331
0.0866416
0.0925185
0.0961728
0.0981737
0.0990257
0.0991375
0.0988954
0.0987077
0.0986013
0.0510652
0.0509135
0.0504504
0.0498541
0.0494989
0.0496907
0.0508183
0.0533578
0.0578084
0.0645311
0.0721355
0.0783158
0.0825614
0.085174
0.0865578
0.0870971
0.0871049
0.0868754
0.0867157
0.0866314
0.05123
0.0511192
0.0507676
0.0503025
0.0500106
0.0501124
0.050884
0.0526814
0.0559001
0.0608105
0.066376
0.0708804
0.0739398
0.0757816
0.0767236
0.0770551
0.0770071
0.0768007
0.0766674
0.0766008
0.0500221
0.0499406
0.0496742
0.0493119
0.0490731
0.0491217
0.049661
0.0509485
0.0532689
0.0568275
0.0608633
0.0641131
0.0662968
0.0675888
0.0682248
0.0684181
0.0683399
0.0681576
0.0680471
0.0679948
0.0477901
0.0477288
0.0475284
0.0472494
0.0470559
0.0470681
0.0474346
0.0483451
0.0500129
0.0525839
0.0555007
0.0578381
0.0593923
0.0602933
0.0607162
0.0608194
0.0607298
0.060574
0.0604838
0.0604427
0.0448208
0.0447739
0.0446244
0.0444135
0.0442616
0.0442561
0.0445048
0.0451473
0.0463381
0.048186
0.0502828
0.0519529
0.0530494
0.0536707
0.0539462
0.0539924
0.0539024
0.0537712
0.0536976
0.0536651
0.0413306
0.0412941
0.0411814
0.041022
0.0409029
0.0408875
0.0410539
0.0415037
0.0423497
0.0436706
0.045168
0.0463531
0.0471211
0.0475445
0.0477192
0.0477306
0.047647
0.0475387
0.0474789
0.0474532
0.0374705
0.0374417
0.0373556
0.0372338
0.0371395
0.0371183
0.0372269
0.0375386
0.0381349
0.0390719
0.0401348
0.0409696
0.0415021
0.0417868
0.0418932
0.041884
0.0418086
0.0417192
0.0416707
0.0416504
0.0333454
0.0333225
0.0332558
0.0331615
0.0330856
0.0330613
0.0331289
0.0333411
0.0337566
0.0344156
0.0351635
0.0357465
0.036112
0.036299
0.0363594
0.0363383
0.0362719
0.0361987
0.0361595
0.0361436
0.0290286
0.0290106
0.0289582
0.0288839
0.0288216
0.0287953
0.0288339
0.028975
0.0292612
0.0297202
0.0302405
0.0306424
0.0308891
0.0310089
0.0310389
0.0310121
0.0309544
0.0308944
0.0308628
0.0308503
0.0245721
0.0245578
0.0245165
0.0244577
0.0244062
0.0243795
0.0243981
0.0244891
0.0246822
0.0249968
0.025354
0.0256267
0.0257891
0.0258621
0.0258725
0.0258438
0.0257944
0.0257454
0.02572
0.0257103
0.0200146
0.0200033
0.0199708
0.019924
0.0198814
0.0198558
0.0198616
0.0199178
0.0200447
0.0202552
0.0204949
0.0206756
0.0207793
0.0208208
0.0208191
0.0207906
0.0207488
0.0207094
0.0206892
0.0206817
0.0153833
0.0153748
0.0153494
0.0153123
0.0152774
0.015254
0.0152518
0.0152835
0.0153632
0.0154996
0.0156551
0.0157707
0.0158342
0.0158553
0.0158469
0.0158205
0.0157856
0.0157538
0.0157379
0.0157324
0.0106973
0.0106911
0.0106716
0.0106428
0.0106158
0.0105965
0.0105909
0.0106071
0.0106535
0.0107357
0.0108299
0.0108983
0.0109336
0.0109419
0.0109316
0.0109099
0.0108824
0.0108575
0.0108455
0.0108417
0.00596905
0.00596494
0.00595169
0.00593271
0.00591511
0.00590233
0.00589727
0.00590396
0.00592681
0.00596768
0.00601448
0.00604764
0.00606344
0.00606535
0.0060574
0.00604264
0.00602411
0.00600711
0.00599887
0.00599631
0.00120855
0.00120836
0.00120766
0.00120212
0.00119586
0.00119083
0.00118729
0.00118585
0.00118679
0.0011905
0.00119679
0.00120257
0.00120576
0.00120634
0.00120432
0.00120016
0.0011947
0.00118843
0.00118499
0.00118495
-0.814341
-0.565075
-0.285574
-0.0602279
0.122365
0.270317
0.396208
0.502823
0.552883
0.530257
-0.368018
-0.199918
-0.025787
0.123439
0.250149
0.356781
0.444034
0.506824
0.53974
0.550594
-0.0674287
0.0430055
0.158554
0.261255
0.349952
0.424514
0.483905
0.527318
0.557449
0.574209
0.139945
0.215247
0.29604
0.368709
0.432015
0.485617
0.529291
0.563498
0.590124
0.607648
0.294931
0.349
0.405847
0.459671
0.507076
0.548107
0.58273
0.610976
0.633723
0.651096
0.417683
0.457136
0.50162
0.54379
0.581956
0.615756
0.644918
0.669024
0.688414
0.705542
0.520996
0.553495
0.592063
0.628169
0.66161
0.691671
0.7177
0.739083
0.75563
0.772643
0.616387
0.647962
0.684816
0.719345
0.751099
0.779503
0.803827
0.823383
0.837477
0.854533
0.715921
0.750586
0.788958
0.824068
0.855454
0.882769
0.905648
0.923609
0.935993
0.953455
0.833484
0.872232
0.911879
0.947038
0.977204
1.00267
1.02363
1.03998
1.05181
1.06996
0.979951
1.01903
1.05579
1.08705
1.11324
1.13579
1.15522
1.17105
1.18371
1.20177
1.15601
1.18794
1.21449
1.23728
1.25757
1.27656
1.29449
1.31114
1.32665
1.34478
1.3452
1.36256
1.37781
1.39428
1.41036
1.42503
1.43838
1.45242
1.47004
1.49024
1.52722
1.53686
1.54852
1.55941
1.56876
1.57846
1.58939
1.60084
1.61227
1.62765
1.73474
1.73842
1.72349
1.7087
1.70257
1.70833
1.72685
1.7572
1.78941
1.81609
2.04103
1.90618
1.82967
1.78748
1.77003
1.77401
1.80146
1.85787
1.96051
2.18488
0.329781
0.327705
0.323213
0.31466
0.302554
0.290572
0.280498
0.272748
0.267235
0.263987
0.263474
0.265885
0.27062
0.277487
0.286562
0.297837
0.31027
0.321145
0.327221
0.330201
0.254005
0.259875
0.266334
0.270982
0.273616
0.273462
0.270912
0.26729
0.263905
0.26164
0.261309
0.263183
0.266451
0.270337
0.273778
0.27536
0.27417
0.270455
0.265086
0.258387
0.245339
0.247652
0.251215
0.25446
0.256795
0.258541
0.259534
0.259407
0.258483
0.25757
0.257542
0.25863
0.260047
0.260929
0.260689
0.259403
0.257486
0.254806
0.251274
0.248233
0.239595
0.240654
0.242736
0.245519
0.247925
0.249662
0.250908
0.251835
0.252387
0.252666
0.252958
0.253286
0.253364
0.252954
0.252105
0.250807
0.248852
0.246259
0.24374
0.242231
0.234366
0.234949
0.23643
0.238838
0.241313
0.243577
0.245359
0.246598
0.247473
0.248091
0.248527
0.248731
0.24853
0.247885
0.246666
0.244806
0.242539
0.240146
0.238146
0.23723
0.2304
0.230642
0.231747
0.233789
0.235909
0.237865
0.239701
0.241349
0.242662
0.243625
0.24421
0.244285
0.243825
0.242823
0.241412
0.239762
0.237876
0.235842
0.234206
0.233681
0.228622
0.228733
0.229391
0.230697
0.232181
0.233646
0.235085
0.236456
0.23773
0.238817
0.23953
0.239679
0.239313
0.238586
0.237607
0.236448
0.235155
0.233858
0.232882
0.232599
0.227137
0.227197
0.227544
0.228251
0.229114
0.230364
0.231626
0.232971
0.23428
0.235455
0.236309
0.236598
0.236368
0.235786
0.235006
0.234024
0.233332
0.232674
0.232205
0.23206
0.224859
0.224895
0.225102
0.22555
0.226165
0.226839
0.227736
0.228817
0.230023
0.231236
0.232249
0.232775
0.232839
0.232631
0.232316
0.232028
0.231664
0.231317
0.23108
0.231004
0.221847
0.221861
0.222007
0.222394
0.222952
0.223622
0.224427
0.225492
0.226691
0.227994
0.22921
0.23002
0.230376
0.23041
0.230319
0.230223
0.229981
0.229723
0.229573
0.229539
0.218509
0.218508
0.218614
0.21893
0.219423
0.220044
0.220847
0.221842
0.223079
0.224535
0.226022
0.227169
0.227862
0.22825
0.228401
0.22838
0.228334
0.228216
0.228156
0.228149
0.214898
0.2149
0.214979
0.215246
0.215687
0.21629
0.2171
0.218167
0.219539
0.221225
0.223073
0.224617
0.225662
0.226324
0.226715
0.226909
0.226977
0.22698
0.226988
0.226992
0.210879
0.210873
0.210963
0.211205
0.211624
0.212239
0.21311
0.214307
0.215901
0.217932
0.220237
0.222255
0.223694
0.22466
0.225284
0.225667
0.225885
0.226001
0.226065
0.226079
0.206352
0.206344
0.206443
0.206697
0.207142
0.207821
0.208813
0.210215
0.212127
0.214617
0.217509
0.220107
0.221972
0.223307
0.224193
0.224765
0.225122
0.225334
0.225443
0.225466
0.201213
0.201203
0.201315
0.201615
0.202131
0.202928
0.204113
0.205814
0.208162
0.211254
0.214889
0.218182
0.220639
0.222343
0.223512
0.224285
0.224781
0.225082
0.225233
0.225264
0.195335
0.19532
0.195461
0.195823
0.196455
0.197433
0.198893
0.201001
0.203929
0.207803
0.212377
0.216548
0.219643
0.221833
0.223335
0.224336
0.224983
0.225379
0.225576
0.225616
0.188532
0.188514
0.188694
0.189159
0.189953
0.191172
0.193003
0.195659
0.199349
0.204226
0.209983
0.21523
0.219123
0.221885
0.223783
0.225052
0.225877
0.226383
0.226633
0.226683
0.18056
0.180538
0.180773
0.181368
0.182375
0.183936
0.186281
0.189664
0.194332
0.20049
0.20773
0.214308
0.219177
0.222632
0.225007
0.226598
0.227637
0.228277
0.228591
0.228653
0.171082
0.171054
0.171366
0.17214
0.173447
0.175468
0.178493
0.182818
0.188772
0.196568
0.205662
0.213876
0.219937
0.224233
0.227187
0.229168
0.230467
0.231273
0.231668
0.231743
0.159625
0.159591
0.160014
0.161046
0.162765
0.165412
0.16934
0.174938
0.182573
0.192449
0.203845
0.214057
0.221565
0.226881
0.230537
0.23299
0.234601
0.235607
0.236095
0.236191
0.14551
0.145469
0.146061
0.147465
0.149773
0.1533
0.158501
0.165817
0.175631
0.18814
0.202368
0.214996
0.224243
0.230792
0.235302
0.238333
0.240325
0.241574
0.242185
0.242302
0.12776
0.127718
0.128581
0.130541
0.133716
0.13853
0.145516
0.155149
0.167833
0.183669
0.201344
0.216849
0.228165
0.236194
0.24175
0.245502
0.247977
0.249537
0.250316
0.250461
0.104914
0.104897
0.106209
0.109036
0.113549
0.120292
0.129851
0.14271
0.159163
0.179133
0.200918
0.219781
0.233513
0.243305
0.250144
0.254812
0.257921
0.259891
0.260876
0.261063
0.0745339
0.0746053
0.0767425
0.0811092
0.0878974
0.0977395
0.111158
0.128477
0.149773
0.174752
0.201298
0.223967
0.240447
0.252296
0.260696
0.266541
0.270511
0.273066
0.274341
0.274578
0.03214
0.0324945
0.0365358
0.044131
0.0551647
0.0701773
0.0893375
0.112673
0.140009
0.170852
0.202717
0.229541
0.249039
0.26322
0.273492
0.280851
0.286018
0.289472
0.291214
0.291512
-0.0303784
-0.0284067
-0.0189239
-0.00445209
0.0144918
0.0377228
0.0649125
0.0959099
0.130395
0.167783
0.205329
0.236495
0.259165
0.275872
0.288282
0.297527
0.304349
0.309112
0.311694
0.312027
-0.105028
-0.101779
-0.0842852
-0.0586053
-0.0290807
0.00363388
0.0395813
0.0787466
0.120889
0.165525
0.209734
0.246406
0.273438
0.293854
0.309567
0.321827
0.331525
0.338566
0.341358
0.342624
-0.181742
-0.172026
-0.146054
-0.110278
-0.0712344
-0.0293721
0.0151717
0.0623808
0.112111
0.163972
0.214866
0.257025
0.288289
0.312218
0.331018
0.346069
0.358215
0.367521
0.372599
0.374674
-0.239592
-0.228692
-0.197693
-0.155487
-0.109102
-0.0597315
-0.00768123
0.0468857
0.103686
0.16227
0.219249
0.26615
0.300767
0.327138
0.347707
0.364002
0.377001
0.386989
0.392895
0.39517
-0.286123
-0.274784
-0.24042
-0.193551
-0.141793
-0.0865895
-0.0283864
0.0324502
0.0954799
0.16011
0.22248
0.273315
0.310424
0.338337
0.359827
0.376659
0.389933
0.400068
0.406043
0.408297
-0.324328
-0.313042
-0.276657
-0.226216
-0.170265
-0.110427
-0.0471641
0.0190351
0.0875415
0.157558
0.224763
0.279093
0.318303
0.347421
0.369537
0.386613
0.399897
0.409975
0.415936
0.418118
-0.357257
-0.346103
-0.30827
-0.255094
-0.195694
-0.131929
-0.0643439
0.00649741
0.0798839
0.154858
0.226575
0.284097
0.325161
0.355274
0.377845
0.395061
0.408317
0.418327
0.424311
0.42636
-0.386497
-0.375469
-0.3366
-0.281212
-0.218988
-0.151915
-0.0805599
-0.00556135
0.0722709
0.151799
0.227731
0.288331
0.331231
0.362359
0.385428
0.402835
0.416117
0.426046
0.432067
0.434012
-0.413309
-0.402366
-0.362679
-0.305398
-0.240778
-0.170857
-0.0962122
-0.0175296
0.064322
0.148158
0.228273
0.292041
0.33689
0.369135
0.392788
0.410452
0.423815
0.433729
0.439765
0.441605
-0.438377
-0.427476
-0.387043
-0.328159
-0.261499
-0.189116
-0.111603
-0.0296084
0.0559918
0.143957
0.228234
0.295297
0.34228
0.375819
0.400192
0.418213
0.431713
0.44162
0.447685
0.449409
-0.462162
-0.451264
-0.41019
-0.349941
-0.281502
-0.20695
-0.126869
-0.0418796
0.0471715
0.139058
0.227498
0.298069
0.347455
0.382535
0.407817
0.426323
0.440043
0.450018
0.456031
0.457697
-0.485034
-0.474085
-0.432398
-0.37098
-0.300973
-0.22451
-0.142166
-0.0545006
0.0377192
0.13336
0.225968
0.300287
0.352396
0.389313
0.415742
0.434898
0.44894
0.459018
0.464991
0.466627
-0.50718
-0.49609
-0.45379
-0.391448
-0.320031
-0.24193
-0.157596
-0.0675286
0.0276012
0.126797
0.223554
0.301822
0.357002
0.396102
0.423967
0.44399
0.458506
0.468781
0.474703
0.476322
-0.528613
-0.517367
-0.474591
-0.41137
-0.338736
-0.259207
-0.173138
-0.0809531
0.0167933
0.119298
0.22013
0.302516
0.361111
0.402794
0.432448
0.453601
0.468767
0.479336
0.485244
0.486811
-0.549468
-0.538008
-0.494827
-0.430743
-0.357096
-0.276337
-0.188776
-0.0947539
0.00531444
0.110854
0.215586
0.302181
0.36451
0.409244
0.441108
0.463697
0.479701
0.490667
0.496597
0.498041
-0.569671
-0.558025
-0.514445
-0.449611
-0.375091
-0.293291
-0.204462
-0.108873
-0.00678303
0.10147
0.209862
0.30064
0.366941
0.415178
0.449738
0.474165
0.491252
0.502718
0.508681
0.509942
-0.589273
-0.577402
-0.533403
-0.467943
-0.392677
-0.310004
-0.220126
-0.123225
-0.0194267
0.0911914
0.202915
0.297734
0.368094
0.42017
0.458024
0.484844
0.503344
0.515358
0.521262
0.522296
-0.608101
-0.596107
-0.55167
-0.485689
-0.409791
-0.3264
-0.235687
-0.137726
-0.0325238
0.0800963
0.194738
0.293314
0.367688
0.423832
0.465614
0.49561
0.516021
0.528576
0.53414
0.534818
-0.626283
-0.614088
-0.569246
-0.502818
-0.426394
-0.342432
-0.251054
-0.152281
-0.0459655
0.0682935
0.185397
0.287296
0.365478
0.425752
0.471958
0.506157
0.529481
0.542645
0.547115
0.547041
-0.643679
-0.631278
-0.586115
-0.519283
-0.442416
-0.35802
-0.266145
-0.166766
-0.0596254
0.0558833
0.174981
0.279685
0.361261
0.425397
0.476202
0.515731
0.543889
0.558859
0.560863
0.558345
-0.660343
-0.64778
-0.602225
-0.535033
-0.457819
-0.373101
-0.280879
-0.181099
-0.0733842
0.0430302
0.163621
0.270493
0.354947
0.422331
0.477205
0.522725
0.558302
0.579184
0.580508
0.569011
-0.676214
-0.663513
-0.617676
-0.550201
-0.472789
-0.38794
-0.295576
-0.195675
-0.0877003
0.0292031
0.150728
0.259073
0.345803
0.41581
0.473332
0.524239
0.568841
0.600026
0.605388
0.597872
-0.691273
-0.678332
-0.632481
-0.564751
-0.487323
-0.402541
-0.310211
-0.210495
-0.10259