/*--------------------------------*- C++ -*----------------------------------*\
  =========                 |
  \\      /  F ield         | OpenFOAM: The Open Source CFD Toolbox
   \\    /   O peration     | Website:  https://openfoam.org
    \\  /    A nd           | Version:  10
     \\/     M anipulation  |
\*---------------------------------------------------------------------------*/
FoamFile
{
    format      ascii;
    class       volScalarField;
    location    "60";
    object      p;
}
// * * * * * * * * * * * * * * * * * * * * * * * * * * * * * * * * * * * * * //

dimensions      [0 2 -2 0 0 0 0];

internalField   nonuniform List<scalar> 
2200
(
0.773082
0.751584
0.735677
0.720009
0.705401
0.692886
0.682534
0.674442
0.66875
0.665817
0.666329
0.670165
0.676512
0.685076
0.695763
0.708535
0.723328
0.739259
0.755303
0.776801
0.705489
0.70223
0.699308
0.695195
0.689739
0.683271
0.676662
0.670718
0.666223
0.663854
0.664331
0.667671
0.672873
0.679347
0.686341
0.6931
0.698767
0.702863
0.705711
0.709073
0.665568
0.665789
0.667849
0.669195
0.669587
0.66874
0.666768
0.664103
0.661579
0.660113
0.660687
0.663152
0.666448
0.669683
0.672021
0.673022
0.672753
0.671764
0.67013
0.669881
0.643075
0.644527
0.647125
0.64958
0.652028
0.654052
0.655212
0.655455
0.655101
0.654838
0.655516
0.656913
0.658124
0.658526
0.657853
0.656185
0.654025
0.651831
0.649214
0.64781
0.628699
0.630671
0.633493
0.636336
0.639204
0.642046
0.644517
0.646392
0.647638
0.648465
0.649224
0.649715
0.649501
0.648409
0.646564
0.644207
0.641669
0.638943
0.636144
0.634221
0.621344
0.622942
0.625149
0.627685
0.630358
0.633035
0.635642
0.638085
0.640127
0.641661
0.642564
0.642623
0.641814
0.640322
0.638439
0.636302
0.633984
0.631645
0.629549
0.627974
0.617916
0.618939
0.62021
0.622077
0.624225
0.626402
0.628608
0.630915
0.633161
0.635047
0.636111
0.636165
0.635422
0.634243
0.632872
0.631329
0.629636
0.628063
0.626951
0.625934
0.615223
0.615892
0.616528
0.617835
0.61946
0.621161
0.622934
0.624884
0.626983
0.628989
0.630284
0.630627
0.63034
0.629745
0.628991
0.628066
0.627032
0.626115
0.62567
0.624993
0.611949
0.612394
0.612793
0.613794
0.615064
0.616459
0.617975
0.619672
0.621565
0.623577
0.625158
0.626
0.626302
0.626285
0.626022
0.625568
0.625001
0.624476
0.624294
0.623829
0.607868
0.608165
0.608524
0.609399
0.610521
0.611809
0.613264
0.614902
0.616754
0.618843
0.620765
0.622144
0.622965
0.623374
0.623488
0.62337
0.623088
0.622776
0.622652
0.622328
0.603113
0.603315
0.603688
0.604522
0.605622
0.606943
0.608488
0.610259
0.612263
0.614559
0.616918
0.618803
0.620075
0.620845
0.62122
0.621336
0.621244
0.621078
0.620978
0.620738
0.597867
0.598013
0.598386
0.599199
0.60035
0.601793
0.603521
0.60554
0.607889
0.610625
0.613498
0.615907
0.617565
0.618616
0.619223
0.619519
0.619618
0.619596
0.619529
0.619339
0.59219
0.592299
0.59268
0.593507
0.594744
0.596356
0.598339
0.600708
0.603521
0.606843
0.610361
0.613294
0.61537
0.616751
0.617629
0.618154
0.618463
0.61858
0.618553
0.618385
0.586128
0.586196
0.58658
0.587435
0.588782
0.590579
0.592834
0.595595
0.598968
0.603006
0.6073
0.610905
0.613484
0.61528
0.616527
0.617355
0.617897
0.618153
0.618167
0.618008
0.579516
0.579557
0.579981
0.580891
0.582379
0.584385
0.586935
0.590153
0.594187
0.599081
0.604286
0.608707
0.611962
0.614311
0.616015
0.617214
0.618006
0.61841
0.618474
0.618315
0.572288
0.572253
0.572673
0.573681
0.575379
0.577653
0.580575
0.584329
0.589123
0.595047
0.601387
0.606776
0.610842
0.613891
0.616168
0.617784
0.618869
0.61944
0.619553
0.61939
0.564134
0.564117
0.56458
0.565708
0.567664
0.570275
0.573676
0.578094
0.583776
0.590866
0.598541
0.605192
0.61028
0.614125
0.61702
0.619141
0.620563
0.621305
0.621474
0.621301
0.554948
0.554973
0.555415
0.556653
0.558899
0.561926
0.56594
0.571168
0.577919
0.58643
0.595776
0.603952
0.610256
0.615077
0.618718
0.621378
0.623174
0.624102
0.624323
0.624133
0.544237
0.544214
0.544764
0.546226
0.548849
0.552461
0.557292
0.563615
0.571789
0.582103
0.593381
0.603244
0.61094
0.616829
0.621284
0.624587
0.626803
0.627911
0.628182
0.62797
0.531534
0.531468
0.532143
0.533979
0.537162
0.541576
0.547504
0.555251
0.565232
0.577737
0.591356
0.603181
0.612374
0.619463
0.624857
0.62885
0.631534
0.632834
0.633142
0.632902
0.51655
0.516446
0.51722
0.519435
0.523365
0.52887
0.536267
0.545915
0.558254
0.573473
0.589779
0.603812
0.614699
0.623088
0.629484
0.634278
0.63743
0.638896
0.639231
0.638959
0.498263
0.498178
0.49919
0.501973
0.506899
0.513859
0.523216
0.535343
0.550651
0.569148
0.588533
0.605127
0.617879
0.627707
0.635269
0.640877
0.644508
0.64614
0.646472
0.646167
0.475724
0.47558
0.476883
0.480461
0.486857
0.49594
0.508025
0.523457
0.542462
0.564854
0.587813
0.607104
0.621895
0.633321
0.642096
0.648625
0.652728
0.654486
0.654786
0.654451
0.44658
0.446601
0.448701
0.453788
0.46254
0.474809
0.490759
0.510475
0.533933
0.560783
0.587707
0.610046
0.627049
0.640094
0.650148
0.6575
0.661971
0.663803
0.66404
0.663671
0.408148
0.40839
0.41192
0.419888
0.432674
0.449888
0.471091
0.496135
0.524836
0.55679
0.588138
0.613741
0.633059
0.647864
0.659161
0.667315
0.672055
0.673851
0.673996
0.673615
0.357029
0.357427
0.364409
0.377636
0.396824
0.421168
0.44937
0.481102
0.516091
0.553762
0.589731
0.618551
0.640188
0.656688
0.669267
0.678038
0.682685
0.684155
0.684136
0.683816
0.289854
0.292631
0.307714
0.329184
0.357307
0.390595
0.426986
0.466198
0.508085
0.552071
0.593098
0.625729
0.650131
0.668754
0.682704
0.69213
0.696622
0.697613
0.697546
0.697357
0.213528
0.223062
0.248242
0.279489
0.317781
0.360213
0.404864
0.451825
0.501028
0.551894
0.598809
0.6357
0.663234
0.684175
0.699849
0.709959
0.7142
0.71473
0.71473
0.714655
0.145331
0.160022
0.191494
0.231744
0.279677
0.330975
0.38372
0.438441
0.494968
0.552472
0.604889
0.645908
0.676701
0.699864
0.716877
0.727461
0.73158
0.731772
0.731868
0.73186
0.0935191
0.10664
0.143276
0.189614
0.244905
0.303741
0.363896
0.42582
0.489096
0.552801
0.610456
0.655813
0.689436
0.714636
0.73303
0.744322
0.748445
0.749205
0.749411
0.749396
0.0505985
0.0630507
0.103458
0.15367
0.214415
0.279225
0.345751
0.41405
0.483571
0.553576
0.616886
0.665875
0.701903
0.729018
0.748704
0.760461
0.765375
0.766372
0.766415
0.766483
0.0139721
0.0266414
0.0697057
0.1228
0.187886
0.257497
0.329453
0.403514
0.478987
0.554857
0.622858
0.675125
0.713754
0.742468
0.763614
0.776048
0.781179
0.782294
0.782364
0.782435
-0.0179522
-0.00507051
0.0401269
0.0957921
0.164515
0.238178
0.314893
0.394026
0.474684
0.555499
0.627798
0.683719
0.724506
0.754808
0.776998
0.789931
0.795527
0.796768
0.796886
0.796941
-0.0462974
-0.0334115
0.0134587
0.0716112
0.143538
0.220728
0.301508
0.384915
0.470054
0.555602
0.632527
0.691539
0.734331
0.765813
0.788679
0.80235
0.808157
0.809576
0.809716
0.809755
-0.0721589
-0.0592584
-0.0110652
0.0495044
0.124216
0.204424
0.288695
0.375844
0.465154
0.555293
0.636426
0.698095
0.742885
0.775632
0.79887
0.81307
0.819224
0.820759
0.820948
0.820958
-0.0961487
-0.0830256
-0.0340263
0.0287685
0.105921
0.188826
0.276195
0.366745
0.459946
0.554285
0.63935
0.704047
0.750667
0.784264
0.807952
0.822564
0.82878
0.830504
0.830685
0.830671
-0.118735
-0.105328
-0.0556086
0.009101
0.0883385
0.17365
0.263825
0.357504
0.454274
0.552537
0.64155
0.709294
0.757495
0.792259
0.816314
0.830784
0.837255
0.838949
0.839145
0.839086
-0.140019
-0.126484
-0.0760874
-0.00977867
0.0712667
0.158788
0.25152
0.348016
0.447972
0.549909
0.642907
0.713848
0.763921
0.799622
0.823972
0.838307
0.844573
0.846296
0.846405
0.846297
-0.160305
-0.146699
-0.0956241
-0.0279542
0.0546431
0.144121
0.23912
0.3381
0.440914
0.546383
0.643406
0.717758
0.770141
0.806983
0.831296
0.845075
0.851166
0.852687
0.852809
0.852704
-0.179976
-0.165997
-0.114421
-0.0455912
0.0383529
0.129552
0.226533
0.32773
0.433197
0.542069
0.64306
0.721082
0.776253
0.814311
0.838555
0.85176
0.857112
0.858404
0.858484
0.858398
-0.19932
-0.184647
-0.132615
-0.062746
0.0223496
0.115011
0.213718
0.31694
0.424886
0.536885
0.641752
0.723797
0.782178
0.822218
0.846453
0.858504
0.862892
0.863537
0.863588
0.863557
-0.218201
-0.202779
-0.150335
-0.0795234
0.00657704
0.100514
0.200741
0.305799
0.415994
0.530843
0.639526
0.725836
0.788011
0.830602
0.855448
0.866363
0.868644
0.868309
0.868194
0.868045
-0.236599
-0.220532
-0.167609
-0.0959026
-0.00891771
0.086117
0.187665
0.294344
0.406554
0.524009
0.636241
0.726916
0.793469
0.83973
0.866235
0.875803
0.87548
0.873321
0.872986
0.873911
-0.254367
-0.237833
-0.184422
-0.111884
-0.024107
0.0718872
0.174563
0.282635
0.396633
0.516405
0.631776
0.726826
0.798423
0.849247
0.879011
0.888506
0.885417
0.878616
0.873674
0.872588
-0.271556
-0.254647
-0.200709
-0.127395
-0.0389166
0.0578833
0.161492
0.270745
0.386316
0.508083
0.626109
0.72533
0.80214
0.858963
0.893779
0.905435
0.902592
0.891445
0.891172
0.895318
-0.288098
-0.270844
-0.216408
-0.142405
-0.0533162
0.0441594
0.148528
0.258763
0.37565
0.499062
0.619287
0.722188
0.80437
0.867744
0.909537
0.926618
0.925225
0.895874
0.857188
0.823313
-0.303992
-0.286467
-0.23154
-0.156959
-0.0673844
0.0305979
0.135525
0.246504
0.364404
0.489143
0.611163
0.716996
0.803927
0.874667
0.925653
0.95136
0.964245
0.940584
0.957916
1.0187
-0.319152
-0.301505
-0.246198
-0.171217
-0.0813203
0.0169732
0.122219
0.233632
0.352139
0.477771
0.601071
0.70893
0.799825
0.876697
0.933791
0.964447
0.968962
0.943085
0.899927
0.916295
-0.333585
-0.315984
-0.26034
-0.185108
-0.0950291
0.0033879
0.108725
0.220273
0.338993
0.465023
0.588986
0.697812
0.789903
0.869232
0.927506
0.95846
0.940813
0.883686
0.818314
0.805577
-0.34725
-0.329846
-0.273965
-0.198654
-0.108528
-0.0101587
0.0950633
0.206465
0.325
0.45088
0.574748
0.683207
0.773895
0.849158
0.902141
0.906466
0.868469
0.788909
0.713061
0.688857
-0.360208
-0.343136
-0.28709
-0.211854
-0.121818
-0.023673
0.081233
0.192221
0.310195
0.435355
0.55828
0.664877
0.750376
0.814123
0.842307
0.827077
0.765388
0.662007
0.573503
0.550079
-0.372885
-0.356197
-0.300093
-0.225089
-0.135269
-0.0374715
0.06697
0.177327
0.294408
0.418294
0.539335
0.642212
0.720377
0.768068
0.762293
0.725729
0.611729
0.487667
0.379142
0.350887
-0.386166
-0.369883
-0.313671
-0.238943
-0.149414
-0.0520213
0.0518655
0.161441
0.277372
0.399469
0.517625
0.614868
0.685705
0.708485
0.674798
0.584801
0.427223
0.273318
0.142898
0.11436
-0.400546
-0.384483
-0.328121
-0.253685
-0.164465
-0.0674639
0.035836
0.144527
0.25909
0.378918
0.493143
0.583747
0.643818
0.637819
0.585543
0.434193
0.233687
0.0205022
-0.160072
-0.209335
-0.416179
-0.400224
-0.343525
-0.269292
-0.180358
-0.0837564
0.0189045
0.126602
0.239595
0.356678
0.465836
0.550205
0.595299
0.557467
0.470043
0.281679
0.0505986
-0.237961
-0.558657
-0.707471
-0.433103
-0.417056
-0.359979
-0.285915
-0.19721
-0.100984
0.00100599
0.107615
0.21885
0.332843
0.436154
0.513796
0.540765
0.472695
0.336021
0.130923
-0.102333
-0.445265
-1.0302
-1.60113
-0.451454
-0.435243
-0.37759
-0.303551
-0.214985
-0.11912
-0.0178301
0.0876298
0.197003
0.307726
0.405076
0.474602
0.482649
0.398277
0.20696
-0.0256908
-0.227426
-0.460706
-1.01283
-2.51942
-0.471204
-0.45466
-0.396426
-0.322409
-0.233915
-0.138394
-0.0378432
0.0663794
0.173734
0.281042
0.372385
0.432029
0.419484
0.339968
0.113989
-0.122852
-0.269779
-0.306151
-0.294481
-0.680199
-0.492336
-0.475701
-0.416716
-0.342697
-0.254322
-0.159274
-0.0596591
0.0430847
0.148111
0.251407
0.337089
0.386263
0.35772
0.290201
0.0643666
-0.136498
-0.246456
-0.253925
-0.200526
-0.240474
-0.514683
-0.497933
-0.438386
-0.364584
-0.276396
-0.181937
-0.0834435
0.0175819
0.119917
0.218728
0.29934
0.338471
0.303415
0.23638
0.0324374
-0.126737
-0.208288
-0.216092
-0.26412
-0.268002
-0.538285
-0.52162
-0.461455
-0.38795
-0.300019
-0.206361
-0.109241
-0.0101994
0.089138
0.183357
0.258929
0.288563
0.256441
0.175727
0.00433794
-0.117101
-0.186579
-0.163938
-0.184195
-0.185819
-0.562778
-0.545853
-0.485661
-0.412827
-0.32518
-0.232527
-0.136985
-0.0401451
0.0559065
0.145564
0.216217
0.2353
0.215558
0.107781
-0.0306923
-0.11218
-0.150202
-0.198594
-0.172948
-0.181529
-0.588114
-0.570801
-0.510976
-0.4389
-0.351511
-0.260224
-0.166497
-0.0720592
0.0203243
0.105647
0.172254
0.180988
0.172948
0.0474776
-0.0673279
-0.130868
-0.107117
-0.167032
-0.147986
-0.152904
-0.613044
-0.595621
-0.537206
-0.46599
-0.378822
-0.289281
-0.197503
-0.105619
-0.0173687
0.0640488
0.128082
0.129285
0.121163
-0.00397873
-0.0942382
-0.144837
-0.133483
-0.147997
-0.153551
-0.151681
-0.637432
-0.620129
-0.563696
-0.493259
-0.40661
-0.319299
-0.229614
-0.140431
-0.0566553
0.0211071
0.0839498
0.0815775
0.0636772
-0.0461879
-0.107723
-0.138846
-0.177878
-0.149032
-0.154788
-0.149153
-0.660058
-0.64346
-0.589077
-0.519866
-0.434678
-0.349799
-0.262291
-0.175967
-0.0966397
-0.0227826
0.0395876
0.0380557
0.00829936
-0.0816227
-0.121879
-0.113598
-0.186851
-0.129339
-0.144568
-0.136698
-0.680469
-0.664982
-0.612623
-0.544642
-0.462525
-0.379958
-0.294879
-0.211602
-0.136371
-0.0672935
-0.00538671
-0.00232925
-0.0373351
-0.100393
-0.129087
-0.0889867
-0.133182
-0.115969
-0.122219
-0.119141
-0.696857
-0.683022
-0.633273
-0.567369
-0.489126
-0.408744
-0.326523
-0.246571
-0.175001
-0.111539
-0.0510607
-0.0406194
-0.0690527
-0.101897
-0.119832
-0.0961998
-0.110562
-0.11393
-0.114995
-0.115276
-0.708574
-0.696902
-0.650447
-0.587067
-0.512762
-0.43532
-0.356384
-0.279983
-0.211677
-0.154217
-0.0955623
-0.0766229
-0.0935868
-0.0971082
-0.110555
-0.123866
-0.11569
-0.120521
-0.11766
-0.118394
-0.714044
-0.704807
-0.662531
-0.602606
-0.53224
-0.458446
-0.383297
-0.310757
-0.245607
-0.193698
-0.136793
-0.112998
-0.12229
-0.098077
-0.0976646
-0.13238
-0.112101
-0.124204
-0.118087
-0.120489
-0.713456
-0.706372
-0.668426
-0.612385
-0.546368
-0.476969
-0.406158
-0.337609
-0.275806
-0.228063
-0.173167
-0.14952
-0.154964
-0.117997
-0.0728583
-0.109269
-0.0929316
-0.117145
-0.12043
-0.12405
-0.705706
-0.69836
-0.665526
-0.615091
-0.554246
-0.489646
-0.423471
-0.359002
-0.300526
-0.255535
-0.203964
-0.183466
-0.188467
-0.170061
-0.106669
-0.123868
-0.142004
-0.155596
-0.159269
-0.160355
-0.685484
-0.677075
-0.652366
-0.609308
-0.554732
-0.495752
-0.434541
-0.373605
-0.317527
-0.273766
-0.225604
-0.209728
-0.240102
-0.332022
-0.481195
-0.572713
-0.593489
-0.555186
-0.510736
-0.478531
-0.643112
-0.635087
-0.626141
-0.595175
-0.548516
-0.49517
-0.438706
-0.380334
-0.324624
-0.279826
-0.233566
-0.206275
-0.297637
-0.468788
-0.714846
-0.840636
-0.853719
-0.813019
-0.766172
-0.715923
-0.60193
-0.598978
-0.598268
-0.574029
-0.536395
-0.489554
-0.43654
-0.379169
-0.320427
-0.269759
-0.21995
-0.153662
-0.142822
-0.165209
-0.236017
-0.221154
-0.140226
-0.0753701
-0.00301113
0.0365808
-0.579966
-0.581588
-0.571736
-0.556479
-0.525464
-0.481711
-0.42981
-0.3717
-0.306688
-0.240639
-0.175751
-0.0500519
0.108118
0.366734
0.624885
0.843644
1.00352
1.09688
1.13664
1.16849
-0.548515
-0.548366
-0.544905
-0.542346
-0.516465
-0.47502
-0.421933
-0.3607
-0.288631
-0.20499
-0.116394
0.0281807
0.247925
0.585409
0.926619
1.20686
1.4001
1.51586
1.57183
1.59171
-0.534489
-0.532713
-0.535423
-0.529288
-0.509802
-0.470796
-0.416225
-0.350636
-0.27279
-0.177312
-0.0735494
0.0595357
0.298342
0.61685
0.937074
1.20826
1.40929
1.53039
1.5842
1.5996
-0.521689
-0.520569
-0.524365
-0.517266
-0.505289
-0.466208
-0.410591
-0.342694
-0.262106
-0.161545
-0.053049
0.0512691
0.270225
0.543138
0.812803
1.04607
1.22756
1.33649
1.38436
1.39766
-0.504375
-0.504134
-0.505458
-0.502473
-0.500201
-0.463865
-0.409351
-0.339892
-0.257982
-0.158871
-0.0543885
0.0228261
0.202869
0.433655
0.650438
0.835451
0.983351
1.07318
1.11202
1.12181
-0.489071
-0.488405
-0.485365
-0.483249
-0.481581
-0.459026
-0.410202
-0.340731
-0.260441
-0.167738
-0.0688653
-0.00861903
0.12783
0.319892
0.491711
0.632192
0.744293
0.813461
0.843096
0.850765
-0.494299
-0.491848
-0.485945
-0.485259
-0.48088
-0.462011
-0.411494
-0.341824
-0.263975
-0.180882
-0.0878829
-0.0362459
0.0595337
0.214618
0.350129
0.455654
0.537838
0.590069
0.611614
0.615932
-0.520348
-0.518597
-0.517484
-0.524568
-0.520312
-0.489538
-0.420127
-0.343732
-0.265462
-0.191786
-0.10563
-0.0578222
0.00543696
0.127385
0.232299
0.310901
0.371506
0.410266
0.425224
0.430305
-0.55839
-0.561288
-0.568974
-0.579065
-0.570261
-0.51264
-0.427048
-0.342423
-0.262279
-0.196732
-0.118525
-0.0734232
-0.032235
0.0635001
0.142325
0.199208
0.244413
0.274744
0.284973
0.287875
-0.539308
-0.543979
-0.554929
-0.568484
-0.554782
-0.49469
-0.409962
-0.327679
-0.25018
-0.192287
-0.124486
-0.0830497
-0.0557307
0.0203043
0.0779268
0.117666
0.151428
0.172697
0.181912
0.184583
-0.426926
-0.432991
-0.44614
-0.453254
-0.445399
-0.406055
-0.348985
-0.288464
-0.225649
-0.175856
-0.123086
-0.0874036
-0.0675072
-0.0085455
0.0324609
0.0608471
0.0837469
0.0972727
0.10346
0.105029
-0.265752
-0.27003
-0.275344
-0.281568
-0.281784
-0.270108
-0.248947
-0.22142
-0.183984
-0.149441
-0.114133
-0.0868151
-0.0691734
-0.0274559
0.00108667
0.0208617
0.0350746
0.0427147
0.045314
0.0451893
-0.123558
-0.125573
-0.129547
-0.136243
-0.142251
-0.146805
-0.149082
-0.146128
-0.132742
-0.117207
-0.0977578
-0.0798476
-0.0643879
-0.0375209
-0.0192255
-0.00711995
0.000377586
0.00319105
0.0030809
0.00210352
-0.0221215
-0.0232647
-0.0259927
-0.0333833
-0.0452892
-0.0592924
-0.0726745
-0.0822652
-0.0846027
-0.0841179
-0.0763349
-0.0670184
-0.0565236
-0.0408549
-0.031078
-0.0254653
-0.0229856
-0.0234502
-0.025195
-0.0265313
0.0348248
0.0339748
0.0318428
0.024668
0.0106721
-0.00737762
-0.0245906
-0.0388884
-0.0480959
-0.055534
-0.0546795
-0.0507987
-0.0475609
-0.0404443
-0.0369739
-0.0360235
-0.0368554
-0.0391674
-0.0414025
-0.0428087
0.0595226
0.058927
0.0571609
0.0508619
0.0379747
0.0203826
0.00278065
-0.013144
-0.0249063
-0.0347859
-0.0368114
-0.0367574
-0.0385621
-0.0371462
-0.0377256
-0.0398668
-0.0425952
-0.045661
-0.0478725
-0.0492175
0.0658433
0.0653833
0.0639658
0.058915
0.0484358
0.0335505
0.0175866
0.00186826
-0.0105977
-0.0210102
-0.0239791
-0.0265378
-0.0304593
-0.0323976
-0.0354524
-0.0391403
-0.0425029
-0.0454397
-0.0473754
-0.0485913
0.0627107
0.0623833
0.061297
0.0574799
0.0495181
0.0379612
0.02479
0.0107351
-0.00108509
-0.0116731
-0.0153816
-0.0189072
-0.0235935
-0.0269785
-0.0310185
-0.0351288
-0.0385254
-0.0411767
-0.0426984
-0.0437654
0.0554653
0.0552467
0.0544529
0.0516881
0.0458511
0.0372132
0.0269748
0.0153794
0.0053721
-0.00484898
-0.00933789
-0.0126967
-0.0174603
-0.0212256
-0.0256682
-0.0297499
-0.0329081
-0.0352282
-0.0363576
-0.0372596
0.0469749
0.0468448
0.0462753
0.0443469
0.0402309
0.0339533
0.0262452
0.0170502
0.00924202
-4.83668e-06
-0.00474464
-0.00758849
-0.0118143
-0.015613
-0.0201845
-0.0241111
-0.0269966
-0.0290392
-0.0298325
-0.030563
0.0385002
0.0384421
0.0380536
0.0367305
0.0338692
0.0294393
0.0238375
0.0167612
0.0109923
0.00312348
-0.00113113
-0.00378258
-0.00759806
-0.0109925
-0.0151491
-0.0186105
-0.0211585
-0.0229574
-0.0235658
-0.0241681
0.0305455
0.0305086
0.030242
0.0293586
0.0273954
0.0242493
0.0201895
0.0148612
0.0108476
0.00455435
0.0012147
-0.00119523
-0.00486365
-0.00775024
-0.0111659
-0.0139685
-0.0160523
-0.0175493
-0.018
-0.0184688
0.0234564
0.0234333
0.0232518
0.0226591
0.0213428
0.0191797
0.0162213
0.012167
0.00939743
0.00449833
0.00203429
0.00011042
-0.00308034
-0.00539339
-0.00811566
-0.0103256
-0.011902
-0.0130144
-0.0133506
-0.0137358
0.0171814
0.0171653
0.0170705
0.0166953
0.0158464
0.0144243
0.0124495
0.00944622
0.00762483
0.00372747
0.00195585
0.000364961
-0.00225228
-0.00379215
-0.00578656
-0.00733384
-0.00840297
-0.00916209
-0.00939391
-0.00969992
0.0115398
0.011523
0.0114641
0.0112665
0.010791
0.00994839
0.00882954
0.00675513
0.00578751
0.00263592
0.00138918
6.41573e-05
-0.00194661
-0.00253117
-0.00389874
-0.00489957
-0.00551197
-0.00594087
-0.00608187
-0.00637361
0.00654547
0.00652319
0.00649252
0.00644973
0.00628012
0.00589219
0.00545698
0.00409769
0.00387024
0.00152776
0.00080493
-0.000212627
-0.00164378
-0.00162076
-0.00270714
-0.00321138
-0.00345078
-0.00360515
-0.00354675
-0.00379283
0.00223699
0.00225205
0.00228915
0.0023405
0.00236573
0.00221924
0.00222225
0.00146609
0.00177031
0.000461106
0.00048118
0.000259124
-0.000733172
-0.000540403
-0.00189419
-0.0024256
-0.00301579
-0.00344581
-0.00321713
-0.00323177
-1.07292
-0.235902
0.0340283
0.309256
0.489463
0.643818
0.767684
0.894092
1.03407
1.11793
-0.0954605
0.309887
0.325195
0.512653
0.63501
0.744801
0.839065
0.923224
0.950262
0.908614
0.279006
0.491827
0.52577
0.661624
0.74637
0.825208
0.890273
0.939156
0.941027
0.955344
0.506809
0.648687
0.683357
0.784118
0.840717
0.897589
0.942033
0.974176
0.983132
1.00689
0.683447
0.783998
0.813701
0.880483
0.92485
0.965347
0.99725
1.02143
1.03113
1.06277
0.82583
0.894147
0.92436
0.966835
1.00272
1.03263
1.05677
1.07748
1.09154
1.11989
0.944415
0.994705
1.02016
1.04794
1.07543
1.0991
1.11898
1.13821
1.15306
1.17961
1.04783
1.0847
1.10569
1.12624
1.14693
1.16626
1.18364
1.20174
1.21661
1.24028
1.1416
1.17064
1.18693
1.20215
1.21821
1.23425
1.24979
1.26669
1.28031
1.30263
1.22975
1.25018
1.265
1.27815
1.2917
1.30546
1.31896
1.33355
1.34509
1.36473
1.31513
1.33091
1.34472
1.35653
1.36844
1.38007
1.39121
1.40289
1.41056
1.42736
1.40035
1.41288
1.4266
1.43834
1.44898
1.45877
1.4676
1.47586
1.47942
1.49066
1.48909
1.49991
1.51339
1.52291
1.53048
1.53777
1.54496
1.55144
1.55253
1.55989
1.5875
1.59211
1.6003
1.60504
1.60843
1.61291
1.61891
1.62657
1.63047
1.64035
1.70079
1.68769
1.6804
1.67468
1.67195
1.67329
1.67963
1.69199
1.70682
1.73649
1.82277
1.76674
1.73571
1.71852
1.7103
1.71023
1.71907
1.73869
1.77049
1.83975
)
;

boundaryField
{
    wall-4
    {
        type            zeroGradient;
    }
    pressure-outlet-7
    {
        type            fixedValue;
        value           uniform 0;
    }
    velocity-inlet-6
    {
        type            zeroGradient;
    }
    velocity-inlet-5
    {
        type            zeroGradient;
    }
    frontAndBackPlanes
    {
        type            empty;
    }
}


// ************************************************************************* //
