/*--------------------------------*- C++ -*----------------------------------*\
  =========                 |
  \\      /  F ield         | OpenFOAM: The Open Source CFD Toolbox
   \\    /   O peration     | Website:  https://openfoam.org
    \\  /    A nd           | Version:  10
     \\/     M anipulation  |
\*---------------------------------------------------------------------------*/
FoamFile
{
    format      ascii;
    class       surfaceScalarField;
    location    "60";
    object      phi;
}
// * * * * * * * * * * * * * * * * * * * * * * * * * * * * * * * * * * * * * //

dimensions      [0 3 -1 0 0 0 0];

internalField   nonuniform List<scalar> 
4262
(
0.107131
0.470857
0.0955518
0.705165
0.0693524
0.858502
0.0473256
1.02079
0.0309376
1.2149
0.0197293
1.44943
0.0123176
1.73328
0.00708595
2.07627
0.00308013
2.48925
-0.000614538
2.98599
-0.00416945
2.98585
-0.00794094
2.48902
-0.0129832
2.07608
-0.0201614
1.73304
-0.0310997
1.44916
-0.0471536
1.21457
-0.068899
1.02051
-0.0951778
0.858582
-0.10706
0.705468
0.470929
0.112883
0.357974
0.135316
0.682733
0.120448
0.87337
0.0979231
1.04332
0.0746894
1.23814
0.0529495
1.47117
0.034531
1.75169
0.0203175
2.09048
0.00912209
2.50044
-0.000872679
2.99598
-0.0111483
2.99612
-0.0223721
2.50024
-0.0363884
2.09009
-0.0546913
1.75134
-0.0765384
1.471
-0.100315
1.23835
-0.123529
1.04372
-0.137027
0.87208
-0.113566
0.682006
0.357363
0.0920346
0.26594
0.124947
0.64982
0.12106
0.877257
0.104787
1.05959
0.0861476
1.25678
0.0670286
1.49029
0.0480909
1.77063
0.0300464
2.10853
0.013423
2.51707
-0.00268507
3.01209
-0.018341
3.01178
-0.0342863
2.51618
-0.05183
2.10764
-0.0702128
1.76973
-0.0885247
1.48932
-0.105697
1.25552
-0.119754
1.05778
-0.125195
0.877521
-0.0923357
0.649147
0.265027
0.0640007
0.201939
0.104852
0.608969
0.106639
0.87547
0.0952416
1.07099
0.0812825
1.27074
0.0665135
1.50506
0.0503586
1.78679
0.0331865
2.1257
0.015558
2.5347
-0.00302354
3.03067
-0.0215325
3.03029
-0.0388991
2.53355
-0.0553372
2.12408
-0.0706361
1.78503
-0.0845265
1.50321
-0.0982739
1.26927
-0.110052
1.06956
-0.107069
0.874539
-0.0649212
0.606999
0.200106
0.0374957
0.164443
0.0807411
0.565723
0.0910281
0.865183
0.0838358
1.07818
0.0712284
1.28334
0.0593695
1.51691
0.0463477
1.79981
0.0313895
2.14066
0.014393
2.55169
-0.00495943
3.05002
-0.0236819
3.04901
-0.0396024
2.54947
-0.0535191
2.13799
-0.0655443
1.79705
-0.0767284
1.51439
-0.08864
1.28118
-0.0950236
1.07594
-0.0831907
0.862706
-0.0383899
0.562198
0.161716
0.0194505
0.144993
0.0571687
0.528005
0.0725411
0.849811
0.0704349
1.08028
0.0616503
1.29213
0.050818
1.52775
0.0396713
1.81095
0.0270058
2.15332
0.0119131
2.56679
-0.00559064
3.06753
-0.0229358
3.06636
-0.0373726
2.56391
-0.0489516
2.14957
-0.0589753
1.80708
-0.0688405
1.52426
-0.0764545
1.28879
-0.0772393
1.07673
-0.0600455
0.845512
-0.0203869
0.522539
0.141329
0.0106131
0.13438
0.0423367
0.496282
0.0584509
0.833696
0.0587326
1.08
0.05258
1.29828
0.0431844
1.53714
0.0328008
1.82134
0.0214734
2.16465
0.00818332
2.58008
-0.00795538
3.08367
-0.0233878
3.08179
-0.035184
2.5757
-0.0449256
2.15931
-0.0537495
1.8159
-0.0616251
1.53213
-0.0661904
1.29336
-0.0643005
1.07484
-0.045926
0.827138
-0.0117148
0.488328
0.129614
0.00658452
0.127795
0.032977
0.469889
0.0492531
0.81742
0.050737
1.07852
0.0456082
1.30341
0.0372109
1.54554
0.027553
1.831
0.0166369
2.17557
0.00456629
2.59215
-0.00912307
3.09736
-0.0224189
3.09508
-0.0333486
2.58663
-0.0426064
2.16857
-0.0503756
1.82367
-0.0569606
1.53872
-0.0601704
1.29657
-0.0564373
1.0711
-0.0372614
0.807962
-0.00787699
0.458943
0.121737
0.00470863
0.123086
0.0265451
0.448053
0.0423507
0.801615
0.0444569
1.07641
0.0398185
1.30805
0.0321491
1.55321
0.0229952
1.84015
0.0124587
2.1861
0.000758293
2.60385
-0.0123617
3.11048
-0.0243677
3.10709
-0.0339639
2.59623
-0.0421788
2.17679
-0.0490809
1.83057
-0.0544858
1.54412
-0.0567243
1.29881
-0.0516855
1.06606
-0.0320118
0.788288
-0.00637526
0.433307
0.115362
0.00375481
0.119332
0.0217177
0.43009
0.0368932
0.786439
0.039668
1.07364
0.0352975
1.31242
0.0279044
1.5606
0.0190666
1.84899
0.00896218
2.19621
-0.00228201
2.61509
-0.0144155
3.12261
-0.0257546
3.11843
-0.0351812
2.60566
-0.0427268
2.18433
-0.048723
1.83657
-0.0534095
1.54881
-0.0546028
1.3
-0.048222
1.05968
-0.0282836
0.76835
-0.00576212
0.410785
0.1096
0.00304779
0.116284
0.0175346
0.415603
0.0314406
0.772533
0.0343831
1.0707
0.0302806
1.31652
0.0232143
1.56767
0.0146728
1.85753
0.00462543
2.20625
-0.0068313
2.62655
-0.0190483
3.13483
-0.0300247
3.12941
-0.0381696
2.6138
-0.0445879
2.19075
-0.0497592
1.84174
-0.0534406
1.55249
-0.0535651
1.30012
-0.0457532
1.05187
-0.0256159
0.748212
-0.00551698
0.390686
0.104083
0.00238418
0.1139
0.0138804
0.404107
0.0265082
0.759905
0.0296288
1.06757
0.0255875
1.32056
0.0184682
1.57479
0.0100024
1.866
0.000441655
2.21581
-0.0102348
2.63722
-0.0221178
3.14671
-0.0327039
3.13999
-0.0408663
2.62196
-0.0467566
2.19664
-0.0509389
1.84592
-0.0536719
1.55522
-0.0530249
1.29948
-0.0438621
1.04271
-0.0236673
0.728018
-0.00538208
0.372401
0.098701
0.00170467
0.112195
0.010549
0.395262
0.0213755
0.749079
0.0239891
1.06496
0.0199013
1.32465
0.0128772
1.58181
0.00432476
1.87455
-0.00558937
2.22573
-0.0168207
2.64846
-0.0286709
3.15856
-0.0385438
3.14986
-0.0449742
2.62839
-0.0495348
2.2012
-0.0532117
1.8496
-0.0549886
1.557
-0.0534414
1.29793
-0.0429268
1.03219
-0.0224207
0.707511
-0.005299
0.35528
0.093402
0.000825776
0.111369
0.00706527
0.389023
0.0162115
0.739933
0.018471
1.0627
0.0140533
1.32907
0.00660215
1.58926
-0.00214959
1.8833
-0.0118111
2.23539
-0.0222865
2.65893
-0.0335199
3.16979
-0.0430459
3.15939
-0.049481
2.63483
-0.0534881
2.20521
-0.0561581
1.85227
-0.0569442
1.55779
-0.054415
1.2954
-0.0425487
1.02033
-0.021683
0.686646
-0.00527951
0.338876
0.0881225
0.000168878
0.1112
0.00428472
0.384907
0.0110966
0.733121
0.0121514
1.06165
0.00730922
1.33391
-0.000345369
1.59692
-0.00965636
1.89261
-0.0201188
2.24585
-0.0314861
2.6703
-0.0428859
3.18119
-0.0512737
3.16778
-0.055883
2.63944
-0.058731
2.20806
-0.0607029
1.85424
-0.0605953
1.55768
-0.0564157
1.29122
-0.0429086
1.00682
-0.021426
0.665163
-0.00531727
0.322767
0.0828052
-0.00081353
0.112014
0.000555323
0.383538
0.00537421
0.728302
0.00575296
1.06127
0.000336712
1.33933
-0.00817687
1.60543
-0.0181005
1.90253
-0.0287824
2.25653
-0.0397905
2.68131
-0.0504271
3.19183
-0.0585367
3.17589
-0.0631517
2.64405
-0.0652347
2.21014
-0.0662244
1.85523
-0.065088
1.55654
-0.0593279
1.28546
-0.044066
0.991559
-0.0216859
0.642783
-0.00546147
0.306543
0.0773437
-0.00167326
0.113687
-0.00253076
0.384396
-0.000606375
0.726377
-0.00235116
1.06301
-0.00889967
1.34587
-0.0181491
1.61468
-0.028934
1.91332
-0.0407551
2.26836
-0.0527784
2.69333
-0.0636738
3.20272
-0.0703875
3.1826
-0.0733891
2.64705
-0.0745452
2.2113
-0.0740944
1.85478
-0.0713282
1.55378
-0.0636252
1.27776
-0.0462159
0.97415
-0.0225066
0.619074
-0.00573656
0.289773
0.0716072
-0.00303621
0.116723
-0.00626675
0.387626
-0.00792096
0.728032
-0.0111248
1.06622
-0.0185733
1.35332
-0.0288488
1.62496
-0.0404606
1.92493
-0.0527034
2.2806
-0.0648509
2.70548
-0.0753283
3.2132
-0.0817263
3.189
-0.0842
2.64953
-0.0838676
2.21096
-0.0826153
1.85353
-0.0790166
1.55018
-0.0692561
1.268
-0.0492782
0.954172
-0.0238311
0.593627
-0.00611691
0.272059
0.0654903
-0.00430962
0.121033
-0.010455
0.393772
-0.0154597
0.733036
-0.0216099
1.07237
-0.0306863
1.3624
-0.042592
1.63686
-0.055806
1.93814
-0.069789
2.29458
-0.0832586
2.71895
-0.0940049
3.22395
-0.09881
3.1938
-0.0993213
2.65004
-0.0981339
2.20978
-0.0948804
1.85027
-0.0888186
1.54412
-0.0764871
1.25567
-0.0534378
0.931123
-0.025669
0.565858
-0.00660029
0.25299
0.05889
-0.00575703
0.12679
-0.015472
0.403487
-0.0244922
0.742057
-0.0334992
1.08137
-0.0444333
1.37333
-0.0579503
1.65038
-0.072551
1.95275
-0.0872945
2.30932
-0.101009
2.73266
-0.111897
3.23484
-0.116654
3.19856
-0.116204
2.64959
-0.11245
2.20602
-0.107917
1.84574
-0.100702
1.5369
-0.0851767
1.24014
-0.058444
0.90439
-0.0278544
0.535268
-0.0071159
0.232252
0.0517741
-0.00807637
0.134866
-0.0222872
0.417697
-0.0365705
0.75634
-0.048957
1.09376
-0.0619004
1.38628
-0.077564
1.66604
-0.0945113
1.96969
-0.111974
2.32679
-0.127789
2.74848
-0.138101
3.24515
-0.139838
3.2003
-0.136937
2.64669
-0.132675
2.20176
-0.125873
1.83894
-0.115098
1.52613
-0.0959125
1.22095
-0.064712
0.873189
-0.0304627
0.501019
-0.00768505
0.209474
0.044089
-0.0105227
0.145389
-0.0295968
0.436771
-0.0500156
0.776759
-0.0674096
1.11115
-0.0837531
1.40262
-0.102232
1.68452
-0.12158
1.98904
-0.139846
2.34505
-0.154448
2.76308
-0.163492
3.25419
-0.165413
3.20222
-0.161272
2.64255
-0.153423
2.19391
-0.144385
1.8299
-0.13157
1.51331
-0.107656
1.19704
-0.0711826
0.836716
-0.0330074
0.462844
-0.00815368
0.18462
0.0359353
-0.0152154
0.160604
-0.0417385
0.463295
-0.0690307
0.804051
-0.0913327
1.13346
-0.111276
1.42256
-0.133318
1.70656
-0.155263
2.01099
-0.175858
2.36565
-0.192429
2.77965
-0.200966
3.26273
-0.197797
3.19905
-0.189416
2.63417
-0.180486
2.18498
-0.168713
1.81813
-0.15092
1.49552
-0.121809
1.16793
-0.0790621
0.793969
-0.0357294
0.419511
-0.00856541
0.157456
0.0273699
-0.0193175
0.179922
-0.0546057
0.498583
-0.0916349
0.84108
-0.12184
1.16366
-0.147894
1.44862
-0.174506
1.73318
-0.199306
2.03579
-0.219908
2.38625
-0.233113
2.79286
-0.235818
3.26543
-0.230302
3.19353
-0.220682
2.62455
-0.207484
2.17178
-0.193144
1.80379
-0.172455
1.47483
-0.13626
1.13174
-0.0857989
0.743508
-0.0376501
0.371362
-0.00859694
0.128403
0.018773
-0.0325669
0.212489
-0.0817723
0.547788
-0.129587
0.888895
-0.166245
1.20032
-0.197482
1.47985
-0.228013
1.76371
-0.253337
2.06111
-0.27285
2.40576
-0.284423
2.80443
-0.285983
3.26699
-0.275126
3.18268
-0.258759
2.60818
-0.243104
2.15613
-0.224351
1.78503
-0.196147
1.44662
-0.152136
1.08772
-0.0936268
0.684998
-0.0396065
0.317342
-0.00851341
0.09731
0.0102596
-0.0469202
0.259409
-0.120472
0.62134
-0.183929
0.952353
-0.229367
1.24576
-0.266826
1.51731
-0.298015
1.7949
-0.321066
2.08416
-0.336634
2.42133
-0.342282
2.81008
-0.334106
3.25882
-0.315735
3.16431
-0.296726
2.58917
-0.27643
2.13583
-0.253718
1.76232
-0.22052
1.41343
-0.166255
1.03346
-0.0970466
0.61579
-0.038896
0.259191
-0.00828712
0.0667011
0.00197245
-0.0339326
0.293341
-0.0974555
0.684863
-0.156102
1.011
-0.203658
1.29331
-0.246802
1.56046
-0.285633
1.83373
-0.321871
2.1204
-0.354305
2.45376
-0.378987
2.83476
-0.393272
3.2731
-0.393747
3.16478
-0.381004
2.57643
-0.362238
2.11707
-0.332739
1.73282
-0.280486
1.36117
-0.20075
0.953724
-0.109309
0.524349
-0.0419585
0.19184
-0.00948522
0.0342278
-0.00751276
-0.0126953
0.306037
-0.0476599
0.719827
-0.0895801
1.05292
-0.129187
1.33292
-0.168487
1.59976
-0.203378
1.86862
-0.235686
2.15271
-0.263497
2.48158
-0.283514
2.85477
-0.290754
3.28034
-0.27918
3.15321
-0.259118
2.55637
-0.234733
2.09268
-0.202116
1.70021
-0.159183
1.31824
-0.102623
0.897164
-0.0470234
0.46875
-0.0170229
0.16184
-0.00413518
0.0213401
-0.0116479
0.000172419
0.305864
-0.0245828
0.744583
-0.0540753
1.08241
-0.0842807
1.36313
-0.11598
1.63146
-0.14674
1.89938
-0.17519
2.18116
-0.198905
2.50529
-0.21414
2.87001
-0.214742
3.28095
-0.199328
3.13779
-0.177314
2.53435
-0.150797
2.06616
-0.121595
1.671
-0.0825608
1.27921
-0.0404779
0.855082
-0.0122938
0.440566
-0.00351282
0.153059
-0.00123297
0.0190602
-0.0128809
0.000614666
0.30525
-0.0129734
0.758171
-0.0343103
1.10375
-0.0588452
1.38766
-0.0847864
1.6574
-0.110682
1.92527
-0.134789
2.20526
-0.154589
2.52509
-0.166072
2.88149
-0.163624
3.2785
-0.148017
3.12218
-0.12462
2.51096
-0.0961415
2.03769
-0.0618538
1.63672
-0.0300789
1.24743
-0.00496927
0.829972
0.00636365
0.429233
0.00452651
0.154896
0.000945004
0.0226417
-0.0119359
0.00430984
0.30094
-0.00467679
0.767157
-0.0227201
1.12179
-0.0434945
1.40844
-0.0652547
1.67916
-0.087015
1.94703
-0.107524
2.22577
-0.123869
2.54144
-0.132317
2.88994
-0.128329
3.27451
-0.1109
3.10475
-0.0859569
2.48601
-0.0574169
2.00915
-0.0306628
1.60996
-0.00229431
1.21906
0.0172719
0.810406
0.0188002
0.427704
0.010322
0.163374
0.00267907
0.0302846
-0.00925684
0.00516532
0.295774
-0.000839195
0.773162
-0.0165042
1.13746
-0.0346504
1.42658
-0.0537381
1.69825
-0.0726981
1.96599
-0.0904791
2.24355
-0.10501
2.55597
-0.112891
2.89782
-0.108334
3.26995
-0.0901259
3.08655
-0.0656578
2.46154
-0.0385601
1.98205
-0.00910131
1.5805
0.0126898
1.19727
0.023836
0.799259
0.0227302
0.42881
0.0124981
0.173606
0.00342501
0.0393577
-0.00583183
0.00433767
0.291437
0.000237445
0.777262
-0.0130101
1.1507
-0.0294747
1.44305
-0.0465845
1.71536
-0.0637362
1.98314
-0.080119
2.25994
-0.0934343
2.56928
-0.0998164
2.9042
-0.0947424
3.26488
-0.0778684
3.06967
-0.0536984
2.43737
-0.0273381
1.95569
-0.00517295
1.55834
0.0151973
1.1769
0.026446
0.788011
0.0228599
0.432396
0.0126804
0.183786
0.00360359
0.0484345
-0.00222824
0.00265615
0.288781
-0.00084198
0.78076
-0.0124567
1.16232
-0.0271068
1.4577
-0.0431677
1.73142
-0.0592622
1.99924
-0.074497
2.27517
-0.0869767
2.58176
-0.0933777
2.91061
-0.089634
3.26113
-0.0725902
3.05263
-0.050756
2.41554
-0.0283271
1.93326
-0.00279725
1.53281
0.0145822
1.15952
0.0221913
0.780402
0.0201932
0.434394
0.0112944
0.192685
0.00332844
0.0564005
0.00110021
0.000803218
0.287977
-0.00235883
0.783922
-0.0129827
1.17294
-0.0264552
1.47117
-0.0414423
1.7464
-0.05657
2.01437
-0.0712084
2.28981
-0.0835765
2.59413
-0.0906033
2.91763
-0.0883261
3.25886
-0.074104
3.03841
-0.0535967
2.39503
-0.0294129
1.90907
-0.0102763
1.51367
0.0072846
1.14196
0.0176952
0.769991
0.0156027
0.436487
0.00895938
0.199328
0.00269945
0.0626604
0.00379966
-0.000507177
0.288485
-0.00516596
0.788581
-0.014588
1.18237
-0.0267856
1.48337
-0.0410115
1.76063
-0.0556937
2.02905
-0.0700909
2.30421
-0.082757
2.6068
-0.0907549
2.92563
-0.0894225
3.25752
-0.0756678
3.02465
-0.0567866
2.37615
-0.0382558
1.89054
-0.0161736
1.49159
0.000382297
1.1254
0.00813004
0.762243
0.00971739
0.4349
0.00575224
0.203293
0.00193104
0.0664816
0.0057307
-0.00168255
0.290167
-0.00662247
0.793521
-0.0159608
1.1917
-0.0277179
1.49512
-0.0412167
1.77413
-0.0553021
2.04313
-0.0696055
2.31851
-0.0826958
2.61989
-0.091786
2.93472
-0.0928371
3.25858
-0.0828571
3.01467
-0.0643016
2.3576
-0.04223
1.86847
-0.0258326
1.47519
-0.010299
1.10987
0.00136189
0.750582
0.00356838
0.432693
0.00281741
0.204044
0.00114777
0.0681513
0.00687846
-0.00321286
0.29338
-0.00875997
0.799068
-0.017564
1.20051
-0.0286045
1.50616
-0.041587
1.78711
-0.0555245
2.05707
-0.0700001
2.33299
-0.0837781
2.63366
-0.0943908
2.94533
-0.0973157
3.2615
-0.0876183
3.00497
-0.0709806
2.34096
-0.0542947
1.85179
-0.0334396
1.45434
-0.0176072
1.09404
-0.00747372
0.740449
-0.00144112
0.42666
-0.000159836
0.202763
0.000241309
0.0677501
0.00711977
-0.0039408
0.297321
-0.00962206
0.804749
-0.0185818
1.20947
-0.0295666
1.51715
-0.042185
1.79973
-0.0557238
2.07061
-0.0701797
2.34744
-0.0844468
2.64793
-0.0963449
2.95723
-0.101838
3.26699
-0.0958304
2.99897
-0.0805474
2.32568
-0.058774
1.83001
-0.042089
1.43765
-0.0253835
1.07733
-0.0116883
0.726754
-0.00564367
0.420616
-0.00169735
0.198816
-0.000143028
0.0661958
0.00697675
-0.00430223
0.301623
-0.0108956
0.811343
-0.019643
1.21821
-0.0300924
1.5276
-0.042354
1.81199
-0.0558235
2.08408
-0.0704885
2.36211
-0.0855046
2.66295
-0.0991095
2.97084
-0.107226
3.27511
-0.102951
2.99469
-0.0885012
2.31123
-0.071312
1.81282
-0.0482139
1.41455
-0.029544
1.05866
-0.0165486
0.713758
-0.00746788
0.411535
-0.00270451
0.194053
-0.000468979
0.0639603
0.00650777
-0.00429772
0.305921
-0.0110858
0.818131
-0.0200315
1.22716
-0.0305208
1.53809
-0.0425643
1.82403
-0.055708
2.09722
-0.0703375
2.37674
-0.0858235
2.67843
-0.100672
2.98568
-0.111252
3.28569
-0.110685
2.99413
-0.098046
2.29859
-0.0758167
1.79059
-0.0547925
1.39353
-0.033273
1.03714
-0.0159975
0.696483
-0.00760409
0.403142
-0.00249535
0.188944
-0.000609618
0.0620746
0.00589815
-0.00446813
0.310389
-0.01177
0.825432
-0.020434
1.23582
-0.0304258
1.54808
-0.0421212
1.83573
-0.055206
2.11031
-0.0700346
2.39156
-0.0861544
2.69455
-0.102424
3.00195
-0.115618
3.29888
-0.117635
2.99614
-0.106782
2.28773
-0.0887915
1.7726
-0.0598744
1.36461
-0.0335629
1.01083
-0.0151121
0.678032
-0.00290104
0.390931
0.00114359
0.1849
0.00116765
0.0620505
0.0070658
-0.00444566
0.314835
-0.011578
0.832565
-0.0202361
1.24448
-0.0302389
1.55808
-0.041747
1.84724
-0.0545329
2.12309
-0.0692548
2.40629
-0.0856768
2.71098
-0.103029
3.01931
-0.1185
3.31436
-0.124508
3.00215
-0.116346
2.27957
-0.0935788
1.74984
-0.066049
1.33708
-0.0332244
0.978007
-0.00709431
0.651902
0.00586691
0.377969
0.00581074
0.184956
-0.00101286
0.0688741
0.00605294
-0.00454741
0.319382
-0.011862
0.839879
-0.0201366
1.25276
-0.0296106
1.56756
-0.0407192
1.85835
-0.0533859
2.13576
-0.0681989
2.4211
-0.0850846
2.72786
-0.10349
3.03771
-0.120914
3.33178
-0.129967
3.0112
-0.124828
2.27443
-0.107631
1.73264
-0.072323
1.30177
-0.0314087
0.937093
0.0053334
0.61516
0.0331305
0.350172
0.0420248
0.176062
0.0271135
0.0837854
0.0331664
-0.00439755
0.32378
-0.0113832
0.846865
-0.0195475
1.26092
-0.0289553
1.57696
-0.0398371
1.86923
-0.0521678
2.14809
-0.0667633
2.43569
-0.0837648
2.74486
-0.102919
3.05687
-0.122364
3.35122
-0.134765
3.02361
-0.134007
2.27368
-0.113638
1.71227
-0.0807058
1.26884
-0.0318994
0.888287
0.0161686
0.567092
0.0557755
0.310565
0.0508183
0.181019
0.0223336
0.11227
0.0555001
-0.00431349
0.328093
-0.011361
0.853913
-0.0191162
1.26868
-0.0279485
1.5858
-0.0383991
1.87968
-0.0505339
2.16023
-0.0651144
2.45028
-0.0823772
2.76212
-0.102197
3.07669
-0.123073
3.3721
-0.137714
3.03825
-0.140972
2.27693
-0.129432
1.70073
-0.0925089
1.23192
-0.0384978
0.834276
0.0330919
0.495502
0.130879
0.212779
0.199752
0.112145
0.183939
0.128083
0.239439
-0.00413898
0.332232
-0.010896
0.86067
-0.0187182
1.2765
-0.0277839
1.59486
-0.0385381
1.89043
-0.0510653
2.17275
-0.066436
2.46565
-0.0851551
2.78084
-0.107572
3.0991
-0.133069
3.3976
-0.154182
3.05936
-0.163412
2.28616
-0.150644
1.68796
-0.117952
1.19923
-0.0548083
0.771132
0.00363359
0.43706
-0.0570567
0.273469
-0.355448
0.410537
-0.943776
0.716411
0.901286
-1.60562
-0.00401704
0.336249
-0.0108271
0.86748
-0.0183468
1.28402
-0.0270389
1.60355
-0.0375782
1.90097
-0.0502875
2.18546
-0.0662296
2.48159
-0.086057
2.80067
-0.110404
3.12345
-0.139145
3.42634
-0.164856
3.08507
-0.179382
2.30069
-0.184678
1.69326
-0.159854
1.1744
-0.127659
0.738937
-0.224474
0.533875
-0.693761
0.742757
-1.44858
1.16535
-2.05466
1.3225
1.21622
-2.3696
-0.00377011
0.340019
-0.0101348
0.873844
-0.0175361
1.29142
-0.0262708
1.61229
-0.0368383
1.91154
-0.0496013
2.19823
-0.0658289
2.49782
-0.0864269
2.82127
-0.112605
3.14963
-0.145434
3.45917
-0.178291
3.11793
-0.202132
2.32453
-0.20769
1.69882
-0.191636
1.15835
-0.277081
0.824382
-0.753119
1.00991
-1.55218
1.54181
-2.11358
1.72676
-2.35187
1.56078
1.33008
-2.46573
-0.00365535
0.343675
-0.00989037
0.880079
-0.0169171
1.29845
-0.0252243
1.6206
-0.0354958
1.92181
-0.0483501
2.21108
-0.0650357
2.5145
-0.0866396
2.84287
-0.114701
3.17769
-0.150949
3.49542
-0.189244
3.15622
-0.219678
2.35496
-0.244401
1.72354
-0.319455
1.2334
-0.6799
1.18483
-1.44167
1.77169
-2.02944
2.12958
-2.26849
1.96581
-2.3813
1.6736
1.39388
-2.4451
-0.00332656
0.347001
-0.00902129
0.885774
-0.0158287
1.30525
-0.0240984
1.62887
-0.0344065
1.93212
-0.0472563
2.22393
-0.0640987
2.53134
-0.0863038
2.86508
-0.116036
3.20742
-0.156444
3.53582
-0.202992
3.20277
-0.246088
2.39806
-0.28468
1.76213
-0.465291
1.41401
-1.09533
1.81487
-1.79099
2.46734
-2.10948
2.44807
-2.25709
2.11342
-2.33897
1.75548
1.45984
-2.40493
-0.00333213
0.350333
-0.00914045
0.891582
-0.0158268
1.31194
-0.0239226
1.63696
-0.0343019
1.9425
-0.0474909
2.23712
-0.065
2.54885
-0.0883752
2.88845
-0.120076
3.23912
-0.163959
3.57971
-0.216283
3.25509
-0.262427
2.44421
-0.349726
1.84943
-0.743145
1.80743
-1.49189
2.56361
-1.96323
2.93869
-2.16291
2.64775
-2.26892
2.21943
-2.34605
1.8326
1.52315
-2.40936
-0.00337995
0.353713
-0.0092066
0.897409
-0.0163733
1.31911
-0.0251667
1.64576
-0.036263
1.9536
-0.0501008
2.25096
-0.0683663
2.56712
-0.0928285
2.91292
-0.126496
3.27279
-0.174728
3.62794
-0.232832
3.3132
-0.294521
2.50589
-0.481065
2.03597
-1.04582
2.37219
-1.67933
3.19711
-1.95319
3.21255
-2.09976
2.79432
-2.21349
2.33316
-2.30704
1.92616
1.58471
-2.3686
-0.00353201
0.357245
-0.00999613
0.903873
-0.0174483
1.32656
-0.0264166
1.65472
-0.0377969
1.96498
-0.0523154
2.26548
-0.0716531
2.58646
-0.0976996
2.93896
-0.133607
3.3087
-0.185584
3.67992
-0.248771
3.37638
-0.333912
2.59103
-0.615513
2.31757
-1.26418
3.02085
-1.75201
3.68494
-1.95891
3.41946
-2.09838
2.93378
-2.22205
2.45683
-2.33223
2.03634
1.64326
-2.39079
-0.00343822
0.360683
-0.00981037
0.910245
-0.0179038
1.33465
-0.0278003
1.66462
-0.0400687
1.97724
-0.0553118
2.28072
-0.0754319
2.60658
-0.102543
2.96607
-0.140312
3.34647
-0.195725
3.73533
-0.263951
3.44461
-0.38808
2.71516
-0.774368
2.70386
-1.41031
3.6568
-1.7618
4.03643
-1.93439
3.59205
-2.036
3.03539
-2.12437
2.54521
-2.19122
2.10319
1.63592
-2.18388
-0.00348921
0.364173
-0.0106616
0.917418
-0.019045
1.34304
-0.0290469
1.67462
-0.0415706
1.98977
-0.057533
2.29668
-0.0788111
2.62785
-0.107604
2.99487
-0.147596
3.38646
-0.205278
3.79301
-0.284206
3.52354
-0.453544
2.8845
-0.906124
3.15644
-1.46218
4.21286
-1.72321
4.29745
-1.87438
3.74323
-1.96754
3.12855
-1.9685
2.54616
-1.89882
2.03351
1.59922
-1.86212
-0.00321315
0.367386
-0.010011
0.924216
-0.0190742
1.3521
-0.0301216
1.68567
-0.0435713
2.00322
-0.0600618
2.31317
-0.0816117
2.6494
-0.110513
3.02377
-0.150748
3.42669
-0.207819
3.85008
-0.293579
3.6093
-0.497916
3.08884
-0.988428
3.64695
-1.42894
4.65337
-1.59341
4.46192
-1.66022
3.81003
-1.66445
3.13279
-1.51662
2.39833
-1.01668
1.53357
0.582532
-0.00287241
0.370258
-0.0107616
0.932105
-0.020105
1.36144
-0.0312402
1.6968
-0.0451678
2.01715
-0.0629298
2.33093
-0.0866055
2.67308
-0.118663
3.05583
-0.163191
3.47122
-0.227551
3.91444
-0.330853
3.7126
-0.584475
3.34246
-1.12396
4.18644
-1.48157
5.01099
-1.5806
4.56095
-1.5782
3.80763
-1.47419
3.02878
-1.2354
2.15954
-0.631211
0.929382
-0.0486794
-0.00250981
0.372768
-0.00926009
0.938855
-0.0193168
1.3715
-0.0319763
1.70946
-0.0475463
2.03272
-0.0667797
2.35017
-0.0921301
2.69843
-0.126448
3.09014
-0.175115
3.51989
-0.245035
3.98436
-0.367432
3.835
-0.682086
3.65711
-1.24239
4.74675
-1.50223
5.27082
-1.56039
4.61911
-1.53795
3.78519
-1.33616
2.82698
-0.782135
1.60552
-0.108501
0.255748
-0.15718
-0.00168379
0.374452
-0.00966485
0.946836
-0.0198092
1.38164
-0.0322511
1.72191
-0.047962
2.04843
-0.068318
2.37052
-0.0958495
2.72596
-0.133598
3.12789
-0.186321
3.57261
-0.265127
4.06317
-0.414373
3.98424
-0.786218
4.02896
-1.32064
5.28117
-1.49631
5.44648
-1.5275
4.65031
-1.43914
3.69683
-1.10121
2.48905
-0.312607
0.816917
0.0247371
-0.0815964
-0.132443
-0.000778509
0.37523
-0.00664229
0.9527
-0.0172718
1.39227
-0.0314507
1.73609
-0.0489948
2.06597
-0.070899
2.39243
-0.100037
2.7551
-0.13963
3.16748
-0.195023
3.628
-0.281397
4.14954
-0.45617
4.15902
-0.894494
4.46728
-1.36584
5.75252
-1.48191
5.56254
-1.4844
4.65281
-1.25909
3.47151
-0.685569
1.91554
-0.0625999
0.193947
0.0301725
-0.174369
-0.102271
3.56899e-05
0.375195
-0.00605482
0.95879
-0.0163935
1.40261
-0.0299651
1.74966
-0.046991
2.083
-0.0696919
2.41513
-0.100747
2.78615
-0.143446
3.21018
-0.202542
3.6871
-0.298836
4.24584
-0.500835
4.36101
-0.988881
4.95533
-1.36153
6.12517
-1.42519
5.6262
-1.37879
4.60641
-1.09008
3.1828
-0.321923
1.14738
0.00501769
-0.132993
0.0150789
-0.18443
-0.0871918
0.00332074
0.371874
0.000489304
0.961622
-0.010611
1.41371
-0.0261277
1.76517
-0.0449106
2.10178
-0.0692122
2.43943
-0.10153
2.81847
-0.145235
3.25389
-0.20653
3.7484
-0.31006
4.34937
-0.537134
4.58809
-1.04969
5.46788
-1.32527
6.40075
-1.36639
5.66732
-1.22555
4.46557
-0.770606
2.72785
-0.0680652
0.44484
0.0446296
-0.245688
0.0243272
-0.164128
-0.0628646
0.00436847
0.367505
0.00231218
0.963678
-0.00753828
1.42356
-0.0211936
1.77883
-0.0384867
2.11907
-0.0629904
2.46393
-0.096441
2.85192
-0.142639
3.30009
-0.207071
3.81283
-0.319498
4.46179
-0.577902
4.84649
-1.07328
5.96326
-1.26255
6.59002
-1.27073
5.6755
-1.05093
4.24577
-0.459843
2.13676
-0.018562
0.00355942
-0.00668296
-0.257567
0.00482358
-0.175634
-0.058041
0.00868048
0.358825
0.0100253
0.962333
0.00276911
1.43082
-0.0115768
1.79317
-0.0307858
2.13828
-0.0564916
2.48964
-0.090402
2.88583
-0.136041
3.34573
-0.201359
3.87815
-0.318899
4.57933
-0.597614
5.12521
-1.04843
6.41407
-1.17219
6.71379
-1.15789
5.6612
-0.896903
3.98478
-0.262942
1.5028
-0.0707533
-0.18863
-0.0389156
-0.289404
-0.014354
-0.200196
-0.072395
0.0113813
0.347444
0.0158427
0.957872
0.0107428
1.43592
0.000603708
1.80331
-0.0174927
2.15638
-0.0416833
2.51383
-0.0750179
2.91917
-0.121678
3.39239
-0.188406
3.94487
-0.311229
4.70216
-0.598765
5.41274
-0.986614
6.80192
-1.05169
6.77886
-0.979275
5.58879
-0.676071
3.68158
-0.0705907
0.897323
0.0148971
-0.274118
0.000130842
-0.274638
-0.00167009
-0.198395
-0.0740651
0.0185158
0.328928
0.0301579
0.94623
0.0288479
1.43723
0.0174811
1.81468
-0.000887958
2.17475
-0.0240116
2.53695
-0.0564444
2.9516
-0.100601
3.43654
-0.164866
4.00914
-0.285741
4.82303
-0.564848
5.69185
-0.871844
7.10892
-0.905416
6.81243
-0.805278
5.48865
-0.445641
3.32194
0.0681872
0.383495
0.0777954
-0.283726
0.057873
-0.254716
0.022423
-0.162945
-0.051642
0.0242716
0.304656
0.0422289
0.928273
0.0451746
1.43428
0.0385331
1.82132
0.0263618
2.18692
0.00516312
2.55815
-0.0245132
2.98128
-0.0668061
3.47883
-0.128691
4.07102
-0.24501
4.93935
-0.494708
5.94155
-0.715465
7.32968
-0.746574
6.84354
-0.638975
5.38105
-0.306976
2.98994
-0.00214572
0.0786645
0.0183093
-0.304181
0.0303284
-0.266735
0.0158032
-0.14842
-0.0358388
0.0352403
0.269416
0.0653734
0.898139
0.0763368
1.42332
0.0727566
1.8249
0.0614698
2.19821
0.0419427
2.57768
0.0146227
3.0086
-0.0230177
3.51648
-0.0777452
4.12575
-0.176374
5.03798
-0.378881
6.14406
-0.535459
7.48626
-0.555695
6.86378
-0.459748
5.28511
-0.180931
2.71112
-0.0678873
-0.0343793
-0.0523773
-0.319691
-0.0218614
-0.297251
-0.00344788
-0.166833
-0.0392867
0.0446688
0.224747
0.0870342
0.855774
0.107001
1.40335
0.111468
1.82044
0.107413
2.20226
0.0936688
2.59142
0.0729289
3.02934
0.0409955
3.54841
-0.00952301
4.17627
-0.0846088
5.11307
-0.221708
6.28116
-0.312317
7.57686
-0.326817
6.87828
-0.269016
5.2273
-0.0627315
2.50484
-0.0837316
-0.0133792
-0.0725422
-0.33088
-0.0291573
-0.340636
0.00697329
-0.202964
-0.0323134
0.0581077
0.166639
0.120703
0.793178
0.157295
1.36676
0.169607
1.80812
0.16941
2.20246
0.159156
2.60168
0.144261
3.04423
0.122471
3.5702
0.088439
4.2103
0.0427342
5.15877
-0.0103117
6.3342
-0.0469975
7.61355
-0.0526719
6.88395
-0.0368396
5.21147
0.000342624
2.46766
-0.153117
0.14008
-0.137956
-0.346041
-0.0576002
-0.420992
0.0192563
-0.27982
-0.0130571
0.0602623
0.106377
0.150612
0.702829
0.206887
1.31049
0.233556
1.78145
0.245128
2.19089
0.244496
2.60231
0.238597
3.05013
0.227083
3.58171
0.210421
4.22696
0.191569
5.17762
0.247381
6.27839
0.295424
7.56551
0.278914
6.90046
0.121745
5.36864
-0.170337
2.75974
-0.456773
0.426516
-0.469018
-0.333795
-0.345135
-0.544875
-0.150677
-0.474278
-0.163734
0.0503364
0.0560407
0.183926
0.56924
0.279431
1.21498
0.325132
1.73575
0.344905
2.17111
0.35212
2.59509
0.352713
3.04954
0.356132
3.57829
0.361781
4.22131
0.381485
5.15792
0.531365
6.12851
0.688815
7.40806
0.688226
6.90105
0.536549
5.52032
0.0281624
3.26813
-0.524291
0.978969
-0.721126
-0.13696
-0.574275
-0.691725
-0.308204
-0.74035
-0.471938
0.0345157
0.021525
0.218886
0.384869
0.344646
1.08922
0.421135
1.65926
0.462318
2.12993
0.486077
2.57133
0.494294
3.04132
0.509972
3.56262
0.540023
4.19126
0.604169
5.09377
0.875188
5.85749
1.27207
7.01118
1.53981
6.63331
1.69789
5.36223
1.30471
3.66131
0.544954
1.73872
-0.0233011
0.431295
-0.297897
-0.417129
-0.24236
-0.795888
-0.714297
0.0309113
-0.00938634
0.237272
0.178509
0.447198
0.879295
0.561132
1.54533
0.611637
2.07942
0.644698
2.53827
0.6669
3.01912
0.695143
3.53437
0.750455
4.13595
0.871494
4.97273
1.24738
5.48161
1.91721
6.34134
2.28814
6.26238
2.5159
5.13448
2.37932
3.7979
1.76964
2.3484
1.15381
1.04713
0.515295
0.221385
0.155871
-0.436464
-0.558426
0.0259865
-0.0353729
0.163446
0.0410494
0.492839
0.549903
0.686909
1.35126
0.786652
1.97968
0.83608
2.48885
0.870466
2.98473
0.899049
3.50579
0.974838
4.06016
1.11753
4.83004
1.50281
5.09633
2.29058
5.55357
2.67857
5.87438
2.86585
4.9472
2.75423
3.90951
2.26511
2.83752
1.6159
1.69634
1.03692
0.800363
0.444278
0.156176
-0.114148
0.00471797
-0.0400908
0.0832349
-0.0374676
0.414313
0.218825
0.705394
1.06018
0.837815
1.84726
0.879509
2.44715
0.889744
2.9745
0.874458
3.52108
0.872374
4.06225
0.915179
4.78724
1.0649
4.94661
1.49896
5.11951
1.67152
5.70182
1.70812
4.9106
1.62722
3.99041
1.39901
3.06573
1.02333
2.07202
0.640468
1.18323
0.259232
0.537412
0.145083
0.00373746
-0.0438283
0.0451893
-0.0789194
0.224462
0.039552
0.536477
0.748163
0.705627
1.67811
0.759254
2.39352
0.775591
2.95816
0.77134
3.52533
0.755394
4.07819
0.776206
4.76643
0.84728
4.87554
1.13171
4.83507
1.3216
5.51194
1.3276
4.90459
1.26544
4.05257
1.10788
3.2233
0.823826
2.35607
0.514247
1.49281
0.217819
0.83384
0.362902
0.00430424
-0.0481325
0.0239265
-0.0985417
0.0975847
-0.0341063
0.367624
0.478124
0.557622
1.48811
0.642834
2.30831
0.658097
2.9429
0.655362
3.52806
0.63021
4.10334
0.626562
4.77008
0.655686
4.84641
0.821687
4.66907
0.999342
5.33429
0.993121
4.91081
0.932677
4.11302
0.813856
3.34212
0.61689
2.55304
0.380679
1.72902
0.152515
1.062
0.515417
-0.00891742
-0.0392151
-0.00894989
-0.0985092
0.02498
-0.0680362
0.235638
0.267466
0.418009
1.30574
0.51103
2.21529
0.537683
2.91625
0.540063
3.52568
0.514609
4.1288
0.495431
4.78925
0.499171
4.84267
0.598426
4.56982
0.728983
5.20373
0.720834
4.91896
0.65722
4.17663
0.561565
3.43777
0.422249
2.69235
0.249762
1.90151
0.0899767
1.22179
0.605394
-0.0132291
-0.025986
-0.00511044
-0.106628
0.0242738
-0.0974205
0.158344
0.133396
0.322449
1.14163
0.389053
2.14869
0.407597
2.8977
0.412518
3.52076
0.401148
4.14017
0.383117
4.80729
0.371544
4.85425
0.42531
4.51605
0.513603
5.11544
0.505655
4.92691
0.448062
4.23422
0.373102
3.51273
0.273913
2.79154
0.154731
2.02069
0.0453153