/*--------------------------------*- C++ -*----------------------------------*\
  =========                 |
  \\      /  F ield         | OpenFOAM: The Open Source CFD Toolbox
   \\    /   O peration     | Website:  https://openfoam.org
    \\  /    A nd           | Version:  10
     \\/     M anipulation  |
\*---------------------------------------------------------------------------*/
FoamFile
{
    format      ascii;
    class       volVectorField;
    location    "60";
    object      U;
}
// * * * * * * * * * * * * * * * * * * * * * * * * * * * * * * * * * * * * * //

dimensions      [0 1 -1 0 0 0 0];

internalField   nonuniform List<vector> 
2200
(
(0.878856 -0.0304106 0)
(1.0058 -0.0512786 0)
(1.00331 -0.0353817 0)
(1.00032 -0.0244245 0)
(0.999914 -0.0166361 0)
(1.00002 -0.0107087 0)
(1.00001 -0.00681392 0)
(0.999994 -0.00417481 0)
(0.999962 -0.00214317 0)
(1.00019 -0.000586972 0)
(1.00001 0.0011133 0)
(1.00009 0.00258505 0)
(1.00025 0.00450052 0)
(1.00018 0.00708102 0)
(1.00013 0.0108396 0)
(1.00007 0.0166533 0)
(1.00037 0.0243727 0)
(1.00348 0.0348637 0)
(1.00599 0.0513783 0)
(0.879054 0.0302971 0)
(0.712005 -0.0327669 0)
(0.996647 -0.0630162 0)
(1.03331 -0.056183 0)
(1.02487 -0.0464479 0)
(1.01585 -0.0361586 0)
(1.00965 -0.0264181 0)
(1.00594 -0.0181819 0)
(1.0038 -0.0114495 0)
(1.00265 -0.00611962 0)
(1.00207 -0.0016911 0)
(1.00196 0.00248211 0)
(1.00227 0.00705424 0)
(1.00334 0.0123256 0)
(1.00556 0.0189163 0)
(1.00933 0.0271979 0)
(1.01544 0.0369502 0)
(1.02456 0.0474549 0)
(1.03316 0.0579907 0)
(0.996708 0.0631394 0)
(0.711778 0.0330349 0)
(0.535567 -0.0238898 0)
(0.96992 -0.0569242 0)
(1.05644 -0.0547025 0)
(1.05228 -0.048731 0)
(1.03629 -0.0403986 0)
(1.02447 -0.0322407 0)
(1.0159 -0.0239602 0)
(1.01037 -0.0161038 0)
(1.0071 -0.00879346 0)
(1.0056 -0.00208231 0)
(1.00581 0.00435939 0)
(1.00734 0.0107644 0)
(1.01046 0.0177816 0)
(1.01578 0.0254626 0)
(1.02421 0.0334306 0)
(1.03624 0.0414068 0)
(1.0523 0.0493964 0)
(1.05633 0.0532502 0)
(0.969222 0.0576457 0)
(0.534414 0.0239353 0)
(0.392329 -0.0136507 0)
(0.91181 -0.0463932 0)
(1.0575 -0.0469154 0)
(1.06951 -0.0443099 0)
(1.05483 -0.0381675 0)
(1.03932 -0.0314663 0)
(1.02757 -0.0246731 0)
(1.01911 -0.0174314 0)
(1.01379 -0.00996443 0)
(1.01112 -0.00245985 0)
(1.01064 0.00501235 0)
(1.01284 0.0125192 0)
(1.01808 0.0197843 0)
(1.02654 0.0266312 0)
(1.03839 0.0330694 0)
(1.0539 0.0395474 0)
(1.06811 0.0456416 0)
(1.05548 0.0483295 0)
(0.909886 0.0469963 0)
(0.389927 0.0137804 0)
(0.307707 -0.00451636 0)
(0.846748 -0.0323872 0)
(1.04943 -0.0399381 0)
(1.07953 -0.0381902 0)
(1.06828 -0.0335328 0)
(1.05174 -0.0279366 0)
(1.03834 -0.0225224 0)
(1.02809 -0.0164663 0)
(1.02096 -0.00954791 0)
(1.01711 -0.00186985 0)
(1.01722 0.00609778 0)
(1.02085 0.0133059 0)
(1.02752 0.0197788 0)
(1.03739 0.0254431 0)
(1.05037 0.0303569 0)
(1.06678 0.0356598 0)
(1.07782 0.0399873 0)
(1.04741 0.0417211 0)
(0.843058 0.0329486 0)
(0.303781 0.00473344 0)
(0.264284 0.000104056 0)
(0.789014 -0.0200626 0)
(1.0334 -0.0314443 0)
(1.08355 -0.0320073 0)
(1.0773 -0.0287361 0)
(1.06086 -0.0238489 0)
(1.04724 -0.0193958 0)
(1.03637 -0.0142864 0)
(1.02857 -0.00821165 0)
(1.02419 -0.00123048 0)
(1.02345 0.00601035 0)
(1.027 0.0128689 0)
(1.03438 0.0185768 0)
(1.04495 0.0231487 0)
(1.05856 0.0271501 0)
(1.07484 0.0315592 0)
(1.08027 0.03427 0)
(1.02913 0.0333378 0)
(0.782602 0.0207346 0)
(0.25877 0.000120387 0)
(0.240369 0.00106935 0)
(0.738412 -0.012279 0)
(1.01374 -0.024985 0)
(1.08408 -0.0267545 0)
(1.08304 -0.0244759 0)
(1.06782 -0.0203311 0)
(1.05429 -0.0163107 0)
(1.04342 -0.0118026 0)
(1.0352 -0.00643352 0)
(1.03017 5.94934e-06 0)
(1.03001 0.00684441 0)
(1.03425 0.0126555 0)
(1.04164 0.0173149 0)
(1.05182 0.0212497 0)
(1.06481 0.024595 0)
(1.0795 0.0280252 0)
(1.08002 0.0296517 0)
(1.00767 0.0272105 0)
(0.729014 0.0131403 0)
(0.233165 -0.000837981 0)
(0.226034 0.000956098 0)
(0.69551 -0.0080449 0)
(0.993104 -0.0207567 0)
(1.08222 -0.0231269 0)
(1.08686 -0.0212631 0)
(1.07339 -0.0176766 0)
(1.05991 -0.0138664 0)
(1.04934 -0.00956551 0)
(1.04143 -0.00458202 0)
(1.03663 0.00102804 0)
(1.03557 0.00681644 0)
(1.03885 0.0121555 0)
(1.04582 0.0165255 0)
(1.05588 0.019953 0)
(1.06921 0.0230263 0)
(1.08195 0.0258051 0)
(1.07566 0.0267473 0)
(0.983313 0.0234168 0)
(0.6819 0.00910795 0)
(0.216722 -0.000715759 0)
(0.216463 0.000623009 0)
(0.660134 -0.00567012 0)
(0.972624 -0.0176182 0)
(1.0796 -0.020206 0)
(1.09033 -0.0186298 0)
(1.07829 -0.0154847 0)
(1.06489 -0.011811 0)
(1.05436 -0.00762576 0)
(1.04638 -0.0028199 0)
(1.04114 0.0026039 0)
(1.04043 0.00804592 0)
(1.04419 0.012722 0)
(1.0508 0.0163699 0)
(1.06018 0.0196552 0)
(1.07267 0.0223442 0)
(1.08353 0.0245013 0)
(1.07099 0.0249842 0)
(0.959415 0.0209856 0)
(0.641936 0.00706607 0)
(0.204673 -0.000335298 0)
(0.209267 0.000297228 0)
(0.631538 -0.0042195 0)
(0.953688 -0.0150215 0)
(1.0764 -0.0179702 0)
(1.09338 -0.0166406 0)
(1.08296 -0.0136952 0)
(1.06952 -0.0100739 0)
(1.05907 -0.00597807 0)
(1.05134 -0.00130564 0)
(1.04651 0.00366575 0)
(1.04499 0.00870618 0)
(1.04717 0.0130616 0)
(1.05322 0.0169027 0)
(1.06266 0.0196694 0)
(1.07561 0.0220862 0)
(1.08444 0.0238368 0)
(1.06399 0.0237497 0)
(0.934614 0.0190877 0)
(0.607007 0.005911 0)
(0.194227 3.69849e-05 0)
(0.203433 8.34588e-05 0)
(0.608256 -0.00315575 0)
(0.935759 -0.012568 0)
(1.07334 -0.0155761 0)
(1.09675 -0.0144238 0)
(1.08765 -0.0116939 0)
(1.07413 -0.00818986 0)
(1.06334 -0.00411683 0)
(1.05513 0.00059759 0)
(1.04958 0.00576887 0)
(1.04809 0.0105534 0)
(1.0512 0.0148271 0)
(1.05722 0.0177366 0)
(1.06613 0.0204134 0)
(1.07805 0.0224492 0)
(1.08483 0.0236114 0)
(1.05728 0.0230036 0)
(0.910947 0.0175589 0)
(0.576844 0.00525866 0)
(0.184657 0.000318354 0)
(0.198851 4.79506e-06 0)
(0.590023 -0.00230428 0)
(0.920362 -0.0102705 0)
(1.07034 -0.0134948 0)
(1.10002 -0.0124332 0)
(1.09251 -0.009691 0)
(1.07898 -0.00610093 0)
(1.06815 -0.00221409 0)
(1.05999 0.00224988 0)
(1.05459 0.00705414 0)
(1.05233 0.0119189 0)
(1.05348 0.0157481 0)
(1.05869 0.0190815 0)
(1.06773 0.021081 0)
(1.08025 0.0227661 0)
(1.08457 0.0236709 0)
(1.04812 0.0223878 0)
(0.886291 0.0163284 0)
(0.549219 0.00488186 0)
(0.17522 0.000489404 0)
(0.195253 2.46646e-05 0)
(0.575275 -0.00156544 0)
(0.905743 -0.00813623 0)
(1.06757 -0.0110603 0)
(1.10367 -0.00997127 0)
(1.09748 -0.00725225 0)
(1.08371 -0.00371979 0)
(1.07222 0.000304869 0)
(1.06316 0.00494328 0)
(1.05662 0.0100335 0)
(1.05412 0.0145303 0)
(1.05649 0.0182037 0)
(1.06216 0.020296 0)
(1.07079 0.0222683 0)
(1.08178 0.023643 0)
(1.08381 0.0240462 0)
(1.03929 0.0222117 0)
(0.862636 0.0154732 0)
(0.524294 0.00469183 0)
(0.166141 0.000573476 0)
(0.193152 6.69508e-05 0)
(0.564773 -0.000772613 0)
(0.894506 -0.00589725 0)
(1.06526 -0.00874077 0)
(1.10724 -0.00750363 0)
(1.10266 -0.00462316 0)
(1.08896 -0.000856037 0)
(1.07742 0.00305077 0)
(1.06841 0.00746451 0)
(1.06186 0.0121056 0)
(1.05829 0.0166389 0)
(1.05847 0.0199602 0)
(1.06285 0.0224881 0)
(1.07171 0.0237234 0)
(1.08288 0.0246471 0)
(1.08193 0.0246721 0)
(1.02722 0.0223323 0)
(0.837137 0.0149181 0)
(0.49991 0.00463083 0)
(0.156911 0.000614829 0)
(0.192262 0.000104641 0)
(0.557255 -0.000231319 0)
(0.884139 -0.00396079 0)
(1.06356 -0.00608833 0)
(1.11131 -0.00463257 0)
(1.10808 -0.00158675 0)
(1.09422 0.00221793 0)
(1.08182 0.00645389 0)
(1.07154 0.0111945 0)
(1.0636 0.0162768 0)
(1.05979 0.0205094 0)
(1.06088 0.0233087 0)
(1.06605 0.0247594 0)
(1.07432 0.0259202 0)
(1.08296 0.0264085 0)
(1.07944 0.0258909 0)
(1.01562 0.0228239 0)
(0.812603 0.0146951 0)
(0.477087 0.00466611 0)
(0.147931 0.000632056 0)
(0.192835 8.34167e-05 0)
(0.55294 0.000823888 0)
(0.877918 -0.00157951 0)
(1.06292 -0.00344113 0)
(1.11566 -0.00164622 0)
(1.11386 0.00161669 0)
(1.10005 0.00579308 0)
(1.08765 0.0101627 0)
(1.07748 0.0149133 0)
(1.06932 0.0196046 0)
(1.06387 0.0236355 0)
(1.06258 0.0264653 0)
(1.06558 0.0279369 0)
(1.07384 0.0284378 0)
(1.0828 0.0285876 0)
(1.07481 0.0275601 0)
(1.0001 0.0236532 0)
(0.785457 0.0148494 0)
(0.453414 0.00480697 0)
(0.138496 0.000653649 0)
(0.194876 0.000231106 0)
(0.553163 0.00152302 0)
(0.873026 0.000486182 0)
(1.06354 -7.74797e-05 0)
(1.12066 0.00211931 0)
(1.11997 0.00578722 0)
(1.10602 0.0102158 0)
(1.09264 0.0151033 0)
(1.08082 0.020322 0)
(1.07074 0.0253864 0)
(1.06494 0.029271 0)
(1.06437 0.0310905 0)
(1.06848 0.0320792 0)
(1.07573 0.0323692 0)
(1.08104 0.0315951 0)
(1.06967 0.0298314 0)
(0.985034 0.0250627 0)
(0.758804 0.0153491 0)
(0.430299 0.00507292 0)
(0.129025 0.000683363 0)
(0.199038 0.00066917 0)
(0.555797 0.00232543 0)
(0.873354 0.0033388 0)
(1.0661 0.00328056 0)
(1.12661 0.00615357 0)
(1.12695 0.0101206 0)
(1.11267 0.0150741 0)
(1.099 0.0202075 0)
(1.08715 0.0255301 0)
(1.07696 0.0305158 0)
(1.06906 0.0340894 0)
(1.06525 0.0360389 0)
(1.06622 0.0365099 0)
(1.07324 0.0359289 0)
(1.07943 0.0352638 0)
(1.06199 0.0328489 0)
(0.965154 0.0268691 0)
(0.728447 0.0162379 0)
(0.405026 0.00544531 0)
(0.118638 0.000715195 0)
(0.205394 0.000870601 0)
(0.562472 0.00342905 0)
(0.877082 0.00577453 0)
(1.07078 0.00743397 0)
(1.1335 0.0109612 0)
(1.13473 0.0157477 0)
(1.1201 0.0213087 0)
(1.10532 0.0272297 0)
(1.09155 0.0332681 0)
(1.07855 0.0386056 0)
(1.06943 0.0420601 0)
(1.06651 0.0429339 0)
(1.0687 0.0426701 0)
(1.07431 0.0420348 0)
(1.07536 0.0399749 0)
(1.05329 0.0365105 0)
(0.945119 0.0293837 0)
(0.69768 0.0174657 0)
(0.379242 0.00591703 0)
(0.107867 0.000751333 0)
(0.213788 0.00105209 0)
(0.573669 0.00472716 0)
(0.885267 0.00890689 0)
(1.07837 0.0120144 0)
(1.14199 0.0166239 0)
(1.14372 0.021938 0)
(1.12805 0.0283341 0)
(1.11205 0.0346466 0)
(1.09717 0.0408683 0)
(1.08345 0.0462579 0)
(1.07235 0.0497318 0)
(1.06582 0.0506272 0)
(1.06458 0.0497583 0)
(1.06942 0.047436 0)
(1.07176 0.0456796 0)
(1.04146 0.0410638 0)
(0.918935 0.0322831 0)
(0.661774 0.0190343 0)
(0.350093 0.0064368 0)
(0.0958403 0.000775504 0)
(0.226054 0.00139987 0)
(0.591803 0.00667705 0)
(0.900014 0.013197 0)
(1.08907 0.0181821 0)
(1.15196 0.0236393 0)
(1.1539 0.0299636 0)
(1.13727 0.0372241 0)
(1.11981 0.0446785 0)
(1.10284 0.0520451 0)
(1.08612 0.0581183 0)
(1.07225 0.0605382 0)
(1.06574 0.0600416 0)
(1.06546 0.0583132 0)
(1.06908 0.0563384 0)
(1.06458 0.0524807 0)
(1.02753 0.0465036 0)
(0.891845 0.0361009 0)
(0.624256 0.0209211 0)
(0.319505 0.00701035 0)
(0.0832676 0.00079804 0)
(0.241697 0.00193993 0)
(0.614971 0.00851563 0)
(0.920528 0.0178657 0)
(1.10423 0.0252014 0)
(1.16432 0.032484 0)
(1.16577 0.0398794 0)
(1.14733 0.0485135 0)
(1.12771 0.0566142 0)
(1.10812 0.0639381 0)
(1.08861 0.0690588 0)
(1.07272 0.0715659 0)
(1.06338 0.0711074 0)
(1.05981 0.0685581 0)
(1.06123 0.0642525 0)
(1.05751 0.0602901 0)
(1.00953 0.0528695 0)
(0.856455 0.0399253 0)
(0.579662 0.0229354 0)
(0.28457 0.00750715 0)
(0.0693445 0.000794722 0)
(0.263673 0.00280954 0)
(0.648193 0.0122707 0)
(0.949799 0.0247149 0)
(1.124 0.0348306 0)
(1.17944 0.0432478 0)
(1.17984 0.0527075 0)
(1.15919 0.0623674 0)
(1.137 0.0716294 0)
(1.11454 0.079947 0)
(1.09236 0.0859339 0)
(1.07336 0.0871645 0)
(1.06193 0.0840362 0)
(1.05823 0.0800717 0)
(1.05884 0.0761165 0)
(1.04616 0.0696346 0)
(0.987946 0.0600517 0)
(0.819342 0.0450143 0)
(0.532819 0.0251814 0)
(0.248049 0.00795623 0)
(0.0551455 0.000775438 0)
(0.294703 0.00369077 0)
(0.692743 0.0153982 0)
(0.988063 0.0326903 0)
(1.1502 0.0464079 0)
(1.19812 0.0578719 0)
(1.19576 0.0694086 0)
(1.17143 0.0809634 0)
(1.14577 0.0909439 0)
(1.11953 0.0987021 0)
(1.09262 0.102306 0)
(1.06978 0.101197 0)
(1.05692 0.0982406 0)
(1.05113 0.0933749 0)
(1.0478 0.0865843 0)
(1.03404 0.0799067 0)
(0.961202 0.0683104 0)
(0.770793 0.049503 0)
(0.475682 0.0270168 0)
(0.206355 0.0081169 0)
(0.0397509 0.000675118 0)
(0.331098 0.00708619 0)
(0.750886 0.0247018 0)
(1.0377 0.0466444 0)
(1.18247 0.0646382 0)
(1.22058 0.0774834 0)
(1.21399 0.0921377 0)
(1.18501 0.104395 0)
(1.15508 0.114345 0)
(1.1245 0.121344 0)
(1.09446 0.124521 0)
(1.07003 0.123219 0)
(1.05387 0.116519 0)
(1.04563 0.108845 0)
(1.04244 0.101736 0)
(1.01644 0.0918515 0)
(0.927851 0.0767295 0)
(0.719193 0.0550475 0)
(0.418004 0.0290889 0)
(0.164928 0.00809883 0)
(0.0256366 0.00060498 0)
(0.411008 0.0106414 0)
(0.838311 0.0356734 0)
(1.10361 0.0672682 0)
(1.22285 0.0899997 0)
(1.24768 0.10622 6.25271e-34)
(1.23393 0.122597 -2.82074e-34)
(1.19848 0.134881 0)
(1.16366 0.143634 0)
(1.12884 0.14885 0)
(1.09422 0.148785 0)
(1.06348 0.142039 0)
(1.04528 0.133468 0)
(1.03693 0.12499 0)
(1.02668 0.115024 0)
(0.996762 0.103723 0)
(0.888406 0.0859936 0)
(0.652962 0.0588575 0)
(0.344535 0.0291773 0)
(0.115456 0.00757996 0)
(0.00984857 0.000755034 0)
(0.481863 0.0258533 4.59553e-20)
(0.940535 0.0597119 -3.48073e-20)
(1.17471 0.101892 0)
(1.26419 0.128899 2.69974e-20)
(1.2757 0.144318 -2.18935e-20)
(1.25264 0.162731 2.97615e-34)
(1.21015 0.173155 0)
(1.16987 0.179824 1.58774e-20)
(1.12905 0.182106 -5.21592e-20)
(1.08883 0.178977 1.06523e-20)
(1.05764 0.171518 0)
(1.03799 0.161025 -2.70722e-20)
(1.02504 0.148829 -3.25208e-20)
(1.01539 0.137254 5.69306e-20)
(0.963128 0.121542 -4.49656e-20)
(0.823947 0.0955869 0)
(0.561475 0.0624821 -1.61817e-20)
(0.259974 0.0282143 0)
(0.0654775 0.00723554 -8.93406e-20)
(-0.00701906 0.000475754 1.05292e-19)
(0.518194 0.0536353 -6.04433e-21)
(1.00548 0.102453 1.0347e-19)
(1.22544 0.152282 -5.5964e-21)
(1.29808 0.176705 -6.61775e-20)
(1.30053 0.194158 -4.6331e-20)
(1.26836 0.21065 7.53853e-20)
(1.21934 0.218199 0)
(1.1735 0.222013 0)
(1.128 0.221907 8.29556e-20)
(1.08441 0.216175 0)
(1.04688 0.204523 9.76875e-20)
(1.02092 0.188936 2.90489e-20)
(1.00672 0.175358 4.6519e-22)
(0.981305 0.160742 -6.18814e-20)
(0.921998 0.140165 0)
(0.762946 0.110482 0)
(0.487136 0.0666487 -2.63701e-19)
(0.201477 0.0269619 6.63035e-19)
(0.0340625 0.00545609 -3.91931e-19)
(-0.0184457 -0.00129569 -4.61711e-19)
(0.525588 0.0760922 -5.73711e-20)
(1.04176 0.159499 2.21265e-20)
(1.26167 0.212507 1.22321e-20)
(1.32453 0.235884 1.15256e-19)
(1.31977 0.251722 1.45439e-20)
(1.28023 0.263747 -1.9633e-19)
(1.22561 0.267342 6.70437e-20)
(1.17441 0.267848 0)
(1.12286 0.264093 -1.75319e-19)
(1.07227 0.254259 1.55909e-19)
(1.02945 0.237745 -2.63624e-19)
(1.00302 0.22094 1.2358e-19)
(0.985564 0.205552 -8.01354e-20)
(0.964757 0.189296 1.80606e-19)
(0.889234 0.166301 0)
(0.717841 0.12486 -6.58636e-20)
(0.443027 0.0732667 0)
(0.183298 0.0284061 3.62236e-19)
(0.0266205 0.00467179 -8.5882e-19)
(-0.0218003 -0.00306875 5.37881e-19)
(0.521927 0.108001 1.54352e-19)
(1.06408 0.216726 -6.8098e-20)
(1.28416 0.278067 -1.46814e-20)
(1.34173 0.300697 0)
(1.33203 0.314337 -8.54546e-20)
(1.28731 0.321174 1.05515e-19)
(1.22797 0.31996 -7.16794e-20)
(1.17184 0.316231 0)
(1.11583 0.308451 1.24545e-19)
(1.06201 0.294341 -1.09506e-19)
(1.01711 0.274983 2.28066e-19)
(0.985981 0.256072 0)
(0.964126 0.238236 -1.70223e-19)
(0.930408 0.216763 9.59075e-20)
(0.856416 0.187663 2.41588e-19)
(0.686598 0.143297 -2.12567e-19)
(0.425304 0.0843273 3.36143e-19)
(0.180478 0.0334898 -7.43214e-19)
(0.0281219 0.00517215 4.70491e-19)
(-0.021693 -0.00446906 -5.88555e-19)
(0.509462 0.13201 -4.96436e-20)
(1.06966 0.26964 3.53248e-20)
(1.29431 0.343256 -4.89324e-20)
(1.35076 0.366232 9.92841e-20)
(1.33783 0.377783 -9.48e-20)
(1.28945 0.379552 3.31526e-20)
(1.22665 0.373659 3.71872e-21)
(1.16699 0.365589 -1.40364e-19)
(1.10702 0.353108 -1.30346e-19)
(1.04793 0.334209 -2.35004e-19)
(0.997302 0.311036 -4.90505e-19)
(0.962575 0.288844 -1.51317e-19)
(0.939477 0.268037 2.22376e-21)
(0.91224 0.24708 -3.28579e-19)
(0.832233 0.21672 -5.38032e-21)
(0.664387 0.162712 3.09372e-19)
(0.417288 0.0969723 -9.30291e-20)
(0.185545 0.0413356 -5.3855e-20)
(0.0364116 0.00707447 0)
(-0.0182416 -0.00477178 1.2515e-18)
(0.493709 0.153082 0)
(1.06633 0.320345 -1.72162e-21)
(1.29716 0.407037 -7.46018e-21)
(1.35295 0.430372 -1.28961e-20)
(1.33749 0.440715 9.10151e-20)
(1.28677 0.438078 -7.76277e-20)
(1.22138 0.427662 7.80773e-20)
(1.15827 0.41512 2.30578e-19)
(1.09427 0.398592 -7.26346e-20)
(1.031 0.375898 1.15953e-19)
(0.977488 0.348679 2.63725e-19)
(0.942452 0.32353 3.29936e-19)
(0.91613 0.300512 -1.98828e-19)
(0.877597 0.275377 3.55925e-19)
(0.802866 0.23869 -2.82102e-19)
(0.644827 0.18553 0)
(0.413318 0.113521 -7.06384e-19)
(0.196077 0.0518738 9.5076e-19)
(0.049046 0.0119484 7.09647e-20)
(-0.0124587 -0.00404577 -1.32408e-18)
(0.478035 0.172756 -5.08724e-21)
(1.05621 0.367218 -1.04179e-20)
(1.29349 0.467202 5.40359e-20)
(1.3502 0.492205 -7.69448e-20)
(1.33291 0.501579 7.62578e-20)
(1.28036 0.494854 -7.48167e-20)
(1.21276 0.480602 1.54368e-19)
(1.14707 0.464247 -6.89275e-20)
(1.08008 0.443373 -2.92907e-19)
(1.01387 0.415896 -1.76253e-22)
(0.958406 0.385265 -2.86845e-19)
(0.917874 0.356382 -3.55289e-19)
(0.889237 0.330841 2.1973e-19)
(0.859765 0.30582 -1.2806e-19)
(0.780883 0.269996 3.06997e-19)
(0.628698 0.206131 0)
(0.410537 0.131176 -4.39174e-19)
(0.205219 0.0634365 6.48659e-19)
(0.0607067 0.0180582 1.22695e-18)
(-0.00654301 -0.00263025 -1.44283e-18)
(0.464413 0.190691 -8.09252e-20)
(1.04547 0.412782 3.4922e-20)
(1.28696 0.525296 -3.32345e-20)
(1.34348 0.551373 7.93002e-20)
(1.32441 0.560148 1.21422e-20)
(1.27045 0.550095 -1.46394e-19)
(1.20122 0.532324 -8.98508e-20)
(1.13348 0.512022 -8.86486e-20)
(1.06421 0.487317 -1.65546e-19)
(0.995633 0.456068 2.66412e-19)
(0.935831 0.421459 2.89668e-19)
(0.894855 0.388892 5.63757e-19)
(0.865922 0.362738 0)
(0.825443 0.333621 6.51635e-21)
(0.754318 0.291119 -8.44358e-19)
(0.61166 0.230206 1.97983e-19)
(0.40752 0.148951 9.52745e-19)
(0.213296 0.0761741 -2.81179e-19)
(0.0716804 0.0251908 5.83628e-19)
(-0.000635348 -0.000610906 -4.8636e-20)
(0.453302 0.208139 5.82986e-21)
(1.03186 0.454214 5.45811e-20)
(1.27684 0.57954 -1.09696e-20)
(1.33396 0.607868 8.13774e-20)
(1.31359 0.616064 -1.46367e-19)
(1.25861 0.602705 1.44999e-19)
(1.1882 0.581768 9.29816e-20)
(1.1191 0.558275 2.64442e-19)
(1.04772 0.529935 3.31929e-19)
(0.975993 0.49498 -3.08268e-19)
(0.913819 0.45686 0)
(0.870038 0.42242 -2.13585e-19)
(0.838311 0.39171 2.4522e-19)
(0.80743 0.362213 3.09885e-19)
(0.733642 0.321999 -1.79309e-19)
(0.5958 0.250317 -4.36444e-19)
(0.402887 0.166792 -1.30091e-19)
(0.218742 0.0888217 -1.94359e-21)
(0.0801902 0.0324634 0)
(0.00425044 0.00151729 0)
(0.445328 0.22444 -8.00796e-20)
(1.02076 0.495332 0)
(1.26601 0.631868 4.04111e-21)
(1.32241 0.661553 -1.46087e-20)
(1.30082 0.669028 1.67643e-19)
(1.24502 0.653019 -4.23219e-20)
(1.17361 0.629355 9.44519e-20)
(1.10307 0.602668 -1.78775e-19)
(1.02977 0.571303 2.51764e-19)
(0.956392 0.533234 -1.01785e-19)
(0.892046 0.490759 1.66216e-19)
(0.847201 0.452587 6.77865e-19)
(0.815078 0.42124 1.43782e-20)
(0.773904 0.38836 -3.23397e-19)
(0.707273 0.340514 5.99153e-19)
(0.577412 0.273739 3.7343e-21)
(0.39643 0.183308 1.39178e-19)
(0.220658 0.101185 -6.63558e-19)
(0.0854132 0.0389157 6.83881e-19)
(0.00782026 0.00346389 -8.05681e-19)
(0.437944 0.241519 2.71711e-23)
(1.00758 0.53214 0)
(1.25318 0.680042 0)
(1.30949 0.712451 2.06209e-22)
(1.28703 0.719408 -4.89327e-20)
(1.23057 0.700663 6.74134e-20)
(1.1584 0.674393 -1.75133e-19)
(1.08689 0.645145 0)
(1.01192 0.610847 -3.71438e-19)
(0.935795 0.5695 4.46865e-19)
(0.868973 0.524061 4.74885e-19)
(0.820942 0.483944 -2.48868e-19)
(0.787627 0.447528 -3.01669e-19)
(0.756563 0.412844 7.07569e-19)
(0.68583 0.369156 -2.13035e-19)
(0.559491 0.290279 -2.54043e-19)
(0.38613 0.198545 -1.51947e-19)
(0.218424 0.111002 -7.16849e-19)
(0.0871841 0.044163 1.05104e-19)
(0.0100631 0.00490861 8.71964e-19)
(0.433404 0.259344 -3.91163e-20)
(0.997504 0.569353 -5.22155e-20)
(1.24059 0.726489 2.36661e-20)
(1.29568 0.760404 -1.96554e-22)
(1.27237 0.766591 -5.26393e-20)
(1.21531 0.745764 1.07441e-19)
(1.1424 0.717408 0)
(1.06972 0.685666 1.08349e-19)
(0.993226 0.649121 -8.54339e-20)
(0.915737 0.605463 7.45995e-19)
(0.847129 0.556369 -1.07508e-19)
(0.798208 0.511684 1.2334e-19)
(0.764578 0.474644 0)
(0.723109 0.437022 -3.83237e-19)
(0.659435 0.382582 4.64516e-19)
(0.539371 0.309983 0)
(0.37508 0.211254 -3.27227e-19)
(0.213919 0.119473 9.63102e-19)
(0.0858914 0.0478724 1.14166e-19)
(0.0108545 0.00578752 -1.07448e-18)
(0.430311 0.276393 -9.80829e-20)
(0.986153 0.602475 1.2524e-19)
(1.22686 0.768921 0)
(1.28137 0.805537 2.01065e-20)
(1.25735 0.811448 0)
(1.19975 0.788421 -1.40605e-19)
(1.12633 0.757919 0)
(1.0531 0.724161 0)
(0.97549 0.685437 -1.13573e-19)
(0.895448 0.638977 -7.09235e-19)
(0.823837 0.587148 -8.78081e-19)
(0.771895 0.539994 1.44515e-19)
(0.73663 0.497732 5.21913e-19)
(0.705105 0.457207 4.2242e-19)
(0.637696 0.40759 -1.49067e-18)
(0.519747 0.320626 -5.96681e-19)
(0.361379 0.22189 3.49719e-19)
(0.206536 0.12553 0)
(0.0831762 0.049772 9.78466e-19)
(0.0106079 0.00628201 -1.15783e-18)
(0.428606 0.291979 1.16753e-19)
(0.977495 0.636089 -1.45182e-19)
(1.21393 0.810001 0)
(1.26687 0.847863 -1.12484e-20)
(1.24214 0.853075 -2.36837e-21)
(1.18409 0.828465 0)
(1.11027 0.796408 5.40797e-20)
(1.03625 0.760763 7.54608e-20)
(0.957297 0.720464 -2.13326e-19)
(0.875633 0.672465 9.38874e-20)
(0.801836 0.618199 0)
(0.749109 0.566082 5.98803e-19)
(0.712712 0.52241 5.72409e-21)
(0.671405 0.478091 2.27958e-19)
(0.610901 0.414822 2.70587e-19)
(0.498929 0.335016 0)
(0.348118 0.228906 -5.70036e-19)
(0.198023 0.12925 1.11699e-18)
(0.0791711 0.0506764 -1.18369e-18)
(0.00983825 0.00636336 2.49273e-18)
(0.427112 0.30689 0)
(0.967346 0.665712 0)
(1.20045 0.847192 -7.12938e-20)
(1.25241 0.887549 0)
(1.22705 0.892723 0)
(1.16864 0.866388 -1.14425e-19)
(1.09457 0.832592 5.53233e-20)
(1.0202 0.795384 1.77729e-20)
(0.940149 0.753521 -4.86506e-20)
(0.85596 0.703419 0)
(0.778875 0.64646 -1.34009e-19)
(0.722326 0.591942 -4.8849e-19)
(0.683624 0.543216 -5.88709e-19)
(0.652105 0.493142 -2.36912e-19)
(0.588278 0.43513 2.9303e-19)
(0.478727 0.33845 -6.90419e-19)
(0.333678 0.23343 1.22687e-18)
(0.189433 0.130245 1.72907e-21)
(0.0750469 0.0507822 -1.13243e-18)
(0.00905354 0.00637476 -1.68112e-19)
(0.426063 0.321231 0)
(0.959684 0.696332 -1.17979e-19)
(1.1881 0.883456 8.68743e-20)
(1.23822 0.924737 0)
(1.21225 0.929232 0)
(1.15354 0.901705 2.28357e-19)
(1.07928 0.866829 0)
(1.00424 0.828253 0)
(0.922878 0.785289 -4.68304e-19)
(0.837238 0.73431 1.3029e-19)
(0.757596 0.675961 -1.18826e-18)
(0.69905 0.617911 0)
(0.659042 0.566412 -6.40321e-19)
(0.616227 0.51096 1.03961e-20)
(0.5595 0.434217 -9.43006e-19)
(0.457276 0.345518 3.71342e-19)
(0.321365 0.232729 1.31021e-21)
(0.183378 0.127761 -1.2796e-18)
(0.0724572 0.0490859 6.09342e-19)
(0.00706984 0.00447146 1.79821e-19)
(0.424902 0.335343 0)
(0.950725 0.723109 -1.61696e-19)
(1.17544 0.91605 9.15858e-20)
(1.22437 0.959534 1.23935e-19)
(1.19784 0.964126 -8.72966e-21)
(1.13886 0.935247 2.27341e-20)
(1.06446 0.89898 -3.20918e-20)
(0.98915 0.859235 4.45484e-19)
(0.906884 0.8152 5.00952e-19)
(0.818744 0.762901 9.91923e-19)
(0.735213 0.702653 9.87265e-19)
(0.671969 0.642441 1.73809e-19)
(0.627433 0.585153 9.21118e-19)
(0.594136 0.521311 5.69642e-19)
(0.533735 0.44883 6.76818e-19)
(0.43638 0.337962 -4.06347e-19)
(0.307335 0.225696 -4.69412e-19)
(0.182015 0.123334 5.49927e-19)
(0.0779279 0.0549774 -3.27571e-19)
(0.0134428 0.0128945 5.82512e-19)
(0.424093 0.348959 2.26746e-19)
(0.944122 0.75104 2.53359e-19)
(1.16397 0.948152 5.28854e-20)
(1.21096 0.992159 1.57466e-20)
(1.18389 0.996016 -5.79445e-21)
(1.12472 0.966215 -6.31301e-20)
(1.05027 0.929258 3.07547e-20)
(0.974471 0.888615 -1.95074e-20)
(0.891012 0.843897 -5.83409e-19)
(0.801475 0.791222 -1.07671e-18)
(0.715593 0.730486 6.85486e-20)
(0.649256 0.668247 0)
(0.602176 0.608135 0)
(0.554044 0.537819 -2.97151e-19)
(0.499477 0.43891 -1.10927e-18)
(0.412575 0.333718 8.75421e-19)
(0.303313 0.207025 5.13663e-19)
(0.192022 0.103469 0)
(0.0939233 0.0266991 1.04844e-18)
(0.00733104 -0.0132577 -6.2125e-19)
(0.423135 0.36213 -1.20286e-19)
(0.936198 0.774977 1.06271e-19)
(1.1522 0.976699 -1.26771e-19)
(1.19799 1.0226 -1.04901e-19)
(1.17045 1.02662 -1.78937e-20)
(1.11108 0.995752 -2.01376e-20)
(1.03661 0.957688 0)
(0.96068 0.916219 -5.6008e-19)
(0.876449 0.87081 7.08764e-20)
(0.784545 0.817448 0)
(0.694757 0.756112 0)
(0.622741 0.692779 1.1127e-19)
(0.567961 0.626225 1.49733e-19)
(0.527417 0.545166 -3.21314e-19)
(0.466941 0.450203 7.96179e-19)
(0.382922 0.310788 -9.54122e-19)
(0.283122 0.182412 -1.10107e-18)
(0.209712 0.0894348 9.7566e-19)
(0.158638 0.0758968 -3.72772e-19)
(0.111673 0.0769399 2.16875e-19)
(0.42243 0.37444 1.50096e-19)
(0.930358 0.800147 0)
(1.14159 1.00509 0)
(1.18552 1.05115 -2.9176e-20)
(1.15755 1.05437 2.36201e-20)
(1.09811 1.02277 -2.01202e-20)
(1.02374 0.984329 1.39179e-19)
(0.947444 0.942352 5.73229e-19)
(0.86215 0.896601 1.05895e-18)
(0.769128 0.84332 -8.12829e-20)
(0.677409 0.782371 1.68294e-19)
(0.601348 0.718221 -9.95959e-19)
(0.543102 0.650612 -9.94658e-19)
(0.481619 0.564396 -1.72719e-19)
(0.418361 0.434081 0)
(0.345357 0.302904 -5.32771e-21)
(0.262316 0.110297 6.07707e-19)
(0.249141 -0.0136164 -1.02069e-18)
(0.214793 -0.102695 7.7572e-19)
(0.0874074 -0.0982132 6.42254e-19)
(0.421344 0.386457 -3.31293e-19)
(0.923022 0.821243 -1.49268e-19)
(1.13057 1.03008 6.934e-21)
(1.17343 1.07789 5.93115e-20)
(1.14504 1.08144 0)
(1.08546 1.04908 -5.73218e-20)
(1.01111 1.00984 -2.01344e-19)
(0.93473 0.967393 -1.98007e-21)
(0.848847 0.921407 -5.54848e-19)
(0.753651 0.868043 -7.98152e-20)
(0.657812 0.807707 7.41356e-20)
(0.575718 0.744536 8.75064e-19)
(0.505715 0.671224 9.70339e-19)
(0.449004 0.571883 1.68555e-19)
(0.377494 0.453343 8.60754e-19)
(0.280769 0.269593 0)
(0.154256 0.0938764 0)
(-0.00626648 0.185291 6.98956e-19)
(-0.0786419 0.630126 -2.79391e-20)
(0.0088475 1.54197 -8.65402e-19)
(0.420618 0.397695 1.82886e-19)
(0.917741 0.844087 4.2025e-19)
(1.12067 1.05557 -5.79417e-19)
(1.16172 1.10341 2.93249e-19)
(1.1329 1.10628 -9.39682e-21)
(1.07325 1.07354 -8.69648e-21)
(0.999011 1.03443 0)
(0.922282 0.992087 -4.77525e-19)
(0.835387 0.94643 0)
(0.739109 0.893907 1.12263e-18)
(0.641328 0.835017 -9.06446e-20)
(0.55463 0.772434 1.0164e-19)
(0.481424 0.701867 1.11542e-18)
(0.3943 0.605891 -3.66185e-19)
(0.285895 0.440434 -4.37254e-19)
(0.187853 0.321207 0)
(0.0786587 0.474545 0)
(0.024963 1.35077 0)
(0.0714239 2.47 -3.96816e-19)
(0.0983105 2.91394 -2.44857e-19)
(0.419179 0.408454 0)
(0.910854 0.862612 0)
(1.11032 1.07761 2.11134e-19)
(1.15043 1.1273 -2.38484e-19)
(1.12119 1.13084 1.08706e-19)
(1.06138 1.09776 1.6897e-20)
(0.987127 1.05827 2.62481e-20)
(0.910352 1.01597 -2.04359e-20)
(0.823036 0.970758 7.86043e-20)
(0.724683 0.919022 -1.28842e-18)
(0.622622 0.86209 1.64144e-19)
(0.530043 0.803392 8.77942e-19)
(0.44038 0.730482 -1.11082e-18)
(0.357418 0.615489 -1.22536e-18)
(0.265499 0.49866 4.11845e-19)
(0.183456 0.640563 0)
(0.116081 1.57753 5.63802e-19)
(0.119706 2.69856 6.11698e-19)
(0.127391 3.0897 -6.83575e-19)
(0.119816 3.22303 7.30043e-19)
(0.418208 0.418938 0)
(0.906084 0.883221 3.69589e-19)
(1.10119 1.1005 -5.29118e-20)
(1.13958 1.15013 3.31927e-19)
(1.10992 1.1531 -1.14105e-19)
(1.05006 1.11993 0)
(0.975964 1.08098 0)
(0.898908 1.03933 0)
(0.8107 0.995075 4.40992e-19)
(0.711519 0.945035 5.93071e-20)
(0.607888 0.890641 0)
(0.510509 0.833136 -8.72679e-19)
(0.423877 0.765858 0)
(0.303325 0.661853 8.76662e-19)
(0.201782 0.71482 -5.93316e-19)
(0.148037 1.46471 -4.76083e-19)
(0.151518 2.68545 -1.10117e-18)
(0.174416 3.12632 -5.79318e-19)
(0.165151 3.26596 -7.81612e-19)
(0.151915 3.30617 5.75787e-19)
(0.416625 0.428374 -1.28888e-19)
(0.899579 0.899204 1.50543e-20)
(1.09152 1.11978 -5.87786e-20)
(1.12919 1.17141 -2.56996e-19)
(1.0991 1.17536 0)
(1.0391 1.1422 0)
(0.96497 1.10318 0)
(0.88794 1.06192 3.35763e-20)
(0.799548 1.01864 -5.57647e-19)
(0.698626 0.970165 0)
(0.591163 0.918797 0)
(0.490772 0.867531 0)
(0.38002 0.79563 0)
(0.30854 0.753772 6.42654e-19)
(0.267624 1.14793 1.57837e-18)
(0.241588 2.39531 4.64693e-19)
(0.25763 3.08211 9.32152e-19)
(0.252223 3.28009 -7.14366e-19)
(0.203855 3.34556 2.62267e-19)
(0.171913 3.35857 0)
(0.415492 0.43767 1.32562e-19)
(0.895147 0.918299 -8.19497e-19)
(1.08293 1.14099 -2.20712e-19)
(1.11898 1.19243 -4.87746e-20)
(1.0885 1.19584 2.64889e-20)
(1.0285 1.16278 -9.97852e-20)
(0.954603 1.12461 -1.66091e-21)
(0.877394 1.0844 -3.70358e-19)
(0.788264 1.04255 0)
(0.686937 0.996556 -7.56807e-20)
(0.578913 0.948759 6.8847e-20)
(0.473982 0.897794 0)
(0.380919 0.841401 0)
(0.320937 0.943933 -8.04997e-19)
(0.268277 1.85343 1.00365e-19)
(0.264787 2.94452 -3.49421e-19)
(0.288961 3.28358 7.30556e-19)
(0.260603 3.38182 5.25867e-19)
(0.195828 3.40631 -7.12996e-19)
(0.171333 3.41629 3.52359e-19)
(0.413422 0.447226 2.6001e-19)
(0.888035 0.933486 7.98152e-19)
(1.0728 1.15972 2.65329e-19)
(1.10838 1.21344 0)
(1.07755 1.21811 0)
(1.01749 1.18515 7.7535e-20)
(0.943652 1.14692 5.98905e-20)
(0.866671 1.10714 3.29954e-19)
(0.777757 1.06648 2.16821e-20)
(0.675281 1.02244 9.6566e-19)
(0.564679 0.978018 -1.14685e-18)
(0.454052 0.930615 0)
(0.376625 0.915006 0)
(0.333799 1.31629 -5.48842e-19)
(0.330878 2.49376 -6.59631e-19)
(0.374937 3.1956 0)
(0.399716 3.36456 -7.39423e-19)
(0.329248 3.42732 4.95089e-20)
(0.260699 3.47261 3.44522e-19)
(0.238501 3.49799 -1.13098e-19)
(0.411659 0.457091 -4.94286e-19)
(0.882936 0.954657 -3.83083e-19)
(1.06309 1.183 0)
(1.09696 1.23598 0)
(1.06585 1.23972 0)
(1.00599 1.20668 0)
(0.932666 1.16929 -7.14967e-20)
(0.855787 1.13063 2.88266e-19)
(0.766447 1.09147 0)
(0.664361 1.05031 -8.79063e-19)
(0.554721 1.00999 2.05774e-18)
(0.445631 0.971863 8.4246e-20)
(0.395709 1.04088 1.13189e-19)
(0.385494 1.74566 8.94333e-19)
(0.396879 2.9018 -4.814e-19)
(0.436263 3.31577 0)
(0.419484 3.43764 2.07769e-19)
(0.333847 3.52647 9.1258e-20)
(0.25965 3.59034 1.48224e-19)
(0.184236 3.56981 -1.32251e-20)
(0.408638 0.467525 2.34924e-19)
(0.873917 0.970731 -3.90742e-19)
(1.051 1.20312 0)
(1.08471 1.25874 -7.14179e-20)
(1.05337 1.26395 2.45959e-19)
(0.993612 1.23087 0)
(0.92056 1.19311 0)
(0.844271 1.15459 -4.99893e-19)
(0.755762 1.11648 -5.6147e-20)
(0.653458 1.07721 8.61977e-19)
(0.539647 1.03926 -9.77653e-19)
(0.449061 1.01926 5.73191e-19)
(0.409929 1.22292 0)
(0.420264 2.18689 -4.74187e-19)
(0.462913 3.1439 3.11009e-19)
(0.527385 3.4182 1.95538e-19)
(0.51861 3.51382 0)
(0.456119 3.59534 -3.65946e-20)
(0.386978 3.63542 -4.08966e-19)
(0.306577 3.60735 -9.61119e-20)
(0.405956 0.478107 -4.67444e-19)
(0.86761 0.994969 5.59398e-19)