/*--------------------------------*- C++ -*----------------------------------*\
  =========                 |
  \\      /  F ield         | OpenFOAM: The Open Source CFD Toolbox
   \\    /   O peration     | Website:  https://openfoam.org
    \\  /    A nd           | Version:  10
     \\/     M anipulation  |
\*---------------------------------------------------------------------------*/
FoamFile
{
    format      ascii;
    class       volScalarField;
    location    "47";
    object      p;
}
// * * * * * * * * * * * * * * * * * * * * * * * * * * * * * * * * * * * * * //

dimensions      [0 2 -2 0 0 0 0];

internalField   nonuniform List<scalar> 
8800
(
0.85311
0.805322
0.76663
0.737632
0.716764
0.701926
0.691321
0.68383
0.678996
0.676919
0.678165
0.682336
0.688967
0.698273
0.711044
0.728772
0.753545
0.787483
0.83003
0.888732
0.684365
0.692044
0.699513
0.702819
0.701312
0.69623
0.689736
0.683649
0.678912
0.67605
0.675749
0.678233
0.682704
0.688635
0.695393
0.701666
0.705301
0.704562
0.699138
0.690445
0.662778
0.668937
0.673061
0.676001
0.678044
0.678641
0.677524
0.675407
0.673373
0.672444
0.673381
0.67574
0.678522
0.680689
0.681285
0.680078
0.677729
0.674331
0.669771
0.66601
0.656988
0.659637
0.662385
0.664782
0.66641
0.667562
0.668291
0.668393
0.668078
0.668003
0.668727
0.669872
0.67069
0.670738
0.670115
0.669013
0.667189
0.664611
0.662205
0.660701
0.651633
0.653057
0.654831
0.656856
0.658632
0.659962
0.660936
0.661715
0.662306
0.66284
0.663458
0.663923
0.663996
0.663687
0.662972
0.66171
0.660002
0.658146
0.656834
0.656002
0.646592
0.647511
0.648747
0.650305
0.651927
0.653438
0.654705
0.655749
0.656685
0.657543
0.658192
0.658481
0.658406
0.657938
0.657035
0.655817
0.654474
0.653203
0.652375
0.651824
0.641729
0.642398
0.643354
0.644646
0.646042
0.647484
0.648903
0.650198
0.651363
0.652426
0.653196
0.653515
0.653388
0.652842
0.652006
0.651034
0.650001
0.649063
0.648472
0.648067
0.636999
0.637515
0.638293
0.639412
0.640674
0.642029
0.64345
0.64489
0.646276
0.647557
0.6485
0.648908
0.648827
0.648394
0.647751
0.646993
0.646191
0.645489
0.645049
0.644734
0.632335
0.632745
0.633394
0.634388
0.635576
0.63688
0.638296
0.639813
0.641384
0.642913
0.644078
0.644655
0.644746
0.644514
0.644078
0.64352
0.642914
0.642398
0.642067
0.641811
0.627652
0.627986
0.628546
0.629459
0.630596
0.631882
0.633326
0.634932
0.636674
0.638472
0.639927
0.64077
0.641114
0.641113
0.640888
0.640537
0.640112
0.639748
0.639501
0.639288
0.622867
0.623144
0.623642
0.624507
0.625624
0.626929
0.628438
0.63017
0.632122
0.634227
0.636051
0.637242
0.637889
0.63815
0.638154
0.638007
0.63776
0.637529
0.637348
0.637165
0.617894
0.618126
0.618585
0.619434
0.620569
0.621937
0.623554
0.625466
0.627691
0.63018
0.632456
0.634064
0.635063
0.635622
0.635877
0.635937
0.635864
0.635751
0.635625
0.635463
0.61265
0.612846
0.613285
0.614147
0.615344
0.616819
0.618598
0.620756
0.623334
0.626308
0.629135
0.631236
0.632643
0.633538
0.634072
0.634345
0.634454
0.634453
0.634373
0.634227
0.607041
0.607209
0.607645
0.608549
0.609847
0.611479
0.613487
0.615972
0.619001
0.622584
0.626079
0.628767
0.630651
0.63193
0.632776
0.633309
0.633596
0.633696
0.633655
0.63352
0.600958
0.601101
0.601548
0.602523
0.603969
0.605816
0.608127
0.611026
0.614621
0.618953
0.623261
0.626659
0.629115
0.630846
0.632047
0.632854
0.633343
0.633552
0.633547
0.633419
0.594273
0.59439
0.594864
0.595941
0.597586
0.599719
0.602419
0.605847
0.610149
0.615396
0.620696
0.624949
0.628086
0.630348
0.631962
0.633083
0.633798
0.634119
0.634149
0.634025
0.586824
0.586916
0.587431
0.588645
0.590544
0.59304
0.596239
0.600341
0.605533
0.611915
0.618415
0.623684
0.627621
0.630512
0.632622
0.634106
0.635071
0.63551
0.635574
0.635449
0.578385
0.57848
0.579046
0.580414
0.582642
0.585609
0.589447
0.594399
0.6007
0.608475
0.616425
0.622911
0.627797
0.631423
0.634126
0.636042
0.637287
0.637853
0.637951
0.637823
0.568679
0.568754
0.569407
0.570991
0.573641
0.577211
0.581854
0.587873
0.595552
0.605041
0.614741
0.622677
0.628693
0.633198
0.63659
0.639013
0.640584
0.641291
0.641421
0.641286
0.557333
0.557389
0.558136
0.560032
0.563225
0.567569
0.573247
0.580625
0.590027
0.601603
0.613415
0.623074
0.630417
0.635958
0.640145
0.643171
0.645111
0.645969
0.64613
0.645985
0.543818
0.54386
0.544752
0.547052
0.550961
0.556328
0.563363
0.572501
0.584093
0.59825
0.61256
0.624211
0.633084
0.639827
0.644953
0.648669
0.651017
0.652031
0.652219
0.65206
0.527379
0.527409
0.528513
0.531386
0.536282
0.543035
0.551875
0.563293
0.577621
0.594896
0.612171
0.626156
0.636796
0.644919
0.651131
0.655635
0.65843
0.6596
0.659807
0.659629
0.506918
0.506945
0.508381
0.512104
0.518412
0.527111
0.538433
0.552883
0.570699
0.591757
0.612457
0.629055
0.641677
0.651348
0.658764
0.664171
0.667436
0.66875
0.668961
0.668761
0.480658
0.480705
0.48272
0.487836
0.496345
0.507927
0.522762
0.541249
0.563428
0.588964
0.613558
0.633048
0.647836
0.659217
0.667942
0.674312
0.678036
0.679457
0.679649
0.679421
0.445573
0.445721
0.448932
0.456626
0.468877
0.484862
0.5047
0.528486
0.556008
0.586732
0.61563
0.638228
0.655299
0.66848
0.678649
0.685977
0.690086
0.691541
0.69168
0.691422
0.395912
0.396874
0.403291
0.416306
0.435081
0.457897
0.484653
0.515158
0.549004
0.585512
0.618971
0.644753
0.664141
0.679134
0.690739
0.698918
0.703259
0.704642
0.704701
0.704411
0.322748
0.329951
0.344867
0.367864
0.396372
0.428337
0.463557
0.50181
0.542698
0.585532
0.623966
0.653253
0.675221
0.692276
0.705446
0.714466
0.719018
0.720356
0.720377
0.720122
0.243827
0.260902
0.285118
0.318737
0.357404
0.398691
0.442494
0.488755
0.537162
0.587112
0.631557
0.665333
0.690681
0.710347
0.725529
0.735487
0.740091
0.741281
0.741334
0.741202
0.178123
0.198268
0.230216
0.272788
0.320429
0.370507
0.42263
0.476735
0.532506
0.589367
0.639558
0.677541
0.706007
0.728032
0.744753
0.755231
0.759742
0.761036
0.761179
0.761126
0.124305
0.14612
0.183569
0.232543
0.287248
0.344723
0.404208
0.465513
0.528207
0.591642
0.647277
0.689187
0.720498
0.744578
0.762654
0.77395
0.779159
0.780387
0.78053
0.780519
0.0794043
0.10241
0.143645
0.197702
0.258099
0.321677
0.387471
0.455167
0.524178
0.593727
0.65445
0.700018
0.733948
0.759996
0.779497
0.791793
0.797427
0.79872
0.798923
0.798942
0.0411467
0.0648436
0.108927
0.167026
0.232198
0.300963
0.372234
0.445599
0.520347
0.59554
0.661003
0.709948
0.746293
0.774107
0.794835
0.80795
0.814032
0.81557
0.815859
0.815909
0.00752767
0.0316986
0.0780553
0.139459
0.208666
0.281934
0.358058
0.436529
0.516532
0.596977
0.666864
0.718935
0.757454
0.786797
0.808533
0.822244
0.828693
0.830577
0.830935
0.830987
-0.0229184
0.00167242
0.0498962
0.114132
0.186813
0.26402
0.344486
0.427607
0.512478
0.597854
0.67192
0.726901
0.767381
0.798066
0.820606
0.834741
0.841511
0.843618
0.844009
0.844044
-0.0511158
-0.0261343
0.0237156
0.0903576
0.166105
0.246799
0.331163
0.41854
0.507953
0.598011
0.676085
0.733848
0.776155
0.807993
0.831058
0.845489
0.852449
0.854712
0.855129
0.855144
-0.0778308
-0.0524154
-0.00106102
0.0676806
0.146147
0.229952
0.317836
0.409123
0.502788
0.597323
0.679314
0.739835
0.783924
0.816757
0.840224
0.854791
0.861878
0.864263
0.864665
0.864649
-0.103385
-0.0775291
-0.0250261
0.0457868
0.126665
0.213259
0.304332
0.399215
0.496866
0.595715
0.681609
0.744943
0.790823
0.824596
0.848422
0.863116
0.870276
0.87267
0.873074
0.873026
-0.128174
-0.101745
-0.0481773
0.024449
0.107477
0.196576
0.290543
0.38873
0.490113
0.593136
0.682974
0.749239
0.796979
0.8317
0.855871
0.870661
0.877821
0.880165
0.88055
0.880485
-0.152313
-0.125436
-0.0706855
0.00353299
0.0884838
0.17983
0.276412
0.377628
0.482497
0.58956
0.683409
0.752773
0.802503
0.838235
0.862779
0.877632
0.884742
0.887015
0.887318
0.887208
-0.175908
-0.148481
-0.0926943
-0.0170311
0.0696477
0.163001
0.261932
0.365899
0.474009
0.584965
0.682887
0.755561
0.807482
0.844358
0.869319
0.884183
0.891116
0.893233
0.893446
0.89329
-0.199073
-0.171046
-0.11426
-0.0372668
0.0509539
0.146098
0.247132
0.35358
0.464668
0.579336
0.681358
0.757574
0.811979
0.850209
0.875617
0.890378
0.897009
0.898876
0.89899
0.898803
-0.221809
-0.193101
-0.135372
-0.0571608
0.0324423
0.129162
0.232065
0.340723
0.454514
0.572664
0.678763
0.758748
0.816008
0.855921
0.881855
0.896325
0.902438
0.903969
0.903979
0.903774
-0.243954
-0.214606
-0.155973
-0.0766751
0.0141541
0.112265
0.216797
0.327409
0.443615
0.564977
0.675035
0.758981
0.819517
0.86161
0.888302
0.902278
0.907514
0.908534
0.908428
0.908222
-0.265483
-0.235529
-0.176044
-0.0957558
-0.00384742
0.0954718
0.201425
0.313722
0.432053
0.556308
0.670125
0.758139
0.822389
0.867307
0.8953
0.908743
0.912559
0.91265
0.912353
0.912199
-0.286459
-0.255828
-0.195555
-0.114368
-0.0214977
0.0788671
0.186037
0.299767
0.419924
0.54672
0.663988
0.756079
0.824413
0.872864
0.90311
0.916561
0.918539
0.916765
0.915853
0.91596
-0.306707
-0.275477
-0.214444
-0.132444
-0.0387353
0.0625347
0.17073
0.285657
0.407345
0.536311
0.656617
0.752641
0.825303
0.877872
0.911565
0.926634
0.92759
0.923087
0.920012
0.919397
-0.326318
-0.294467
-0.232728
-0.150011
-0.0555924
0.0464293
0.155445
0.271331
0.394244
0.525002
0.647875
0.747551
0.824731
0.881732
0.919844
0.938999
0.941847
0.936249
0.927278
0.912427
-0.345215
-0.312785
-0.250528
-0.167268
-0.0723604
0.0302141
0.139764
0.256303
0.380079
0.51215
0.637105
0.740004
0.82207
0.883561
0.925913
0.95081
0.956555
0.944909
0.92554
0.912495
-0.363221
-0.330569
-0.267647
-0.183989
-0.0887098
0.0142374
0.123915
0.240901
0.36516
0.49802
0.624403
0.72958
0.816612
0.882225
0.925204
0.949721
0.958899
0.93701
0.868679
0.837674
-0.379671
-0.349054
-0.28375
-0.199605
-0.103895
-0.000995267
0.108205
0.225351
0.349704
0.48274
0.609722
0.716022
0.807091
0.877153
0.913043
0.931017
0.924617
0.872145
0.802875
0.760122
-0.436071
-0.36534
-0.298467
-0.215186
-0.119484
-0.0169283
0.0925693
0.209374
0.333348
0.465865
0.59248
0.698783
0.789849
0.866683
0.872764
0.879477
0.834847
0.766748
0.690675
0.648228
-0.397422
-0.381188
-0.320333
-0.236731
-0.142261
-0.0398429
0.0686699
0.184836
0.307818
0.438814
0.56317
0.667353
0.750139
0.830165
0.82067
0.711654
0.608499
0.536686
0.463955
0.495783
-0.428939
-0.399296
-0.33742
-0.254576
-0.160051
-0.0578598
0.0509286
0.166469
0.288408
0.417595
0.539033
0.638915
0.713268
0.75543
0.708647
0.563374
0.437614
0.347455
0.24915
0.300449
-0.453285
-0.420696
-0.357534
-0.274436
-0.179812
-0.077705
0.0310269
0.145763
0.266349
0.393157
0.510836
0.604705
0.670078
0.678898
0.574554
0.403503
0.25217
0.134387
0.00363876
0.0371419
-0.477147
-0.442998
-0.378632
-0.294619
-0.199809
-0.0978007
0.0104534
0.124274
0.243329
0.367407
0.480465
0.567332
0.61729
0.595127
0.438823
0.243805
0.0542119
-0.113331
-0.302071
-0.319359
-0.500389
-0.465809
-0.400532
-0.315729
-0.22068
-0.118833
-0.0111749
0.101621
0.218907
0.339902
0.447704
0.527182
0.558593
0.500752
0.309758
0.10025
-0.116698
-0.306017
-0.548586
-0.849805
-0.52394
-0.489363
-0.423527
-0.338192
-0.242888
-0.141146
-0.0340043
0.0777489
0.193178
0.310872
0.413198
0.484337
0.496078
0.387467
0.197641
-0.0113954
-0.215371
-0.387638
-0.456206
-0.536818
-0.548733
-0.514121
-0.447972
-0.362358
-0.266937
-0.165385
-0.0588434
0.0517099
0.164988
0.278893
0.375382
0.43581
0.423174
0.280927
0.0982875
-0.091843
-0.254078
-0.346545
-0.370492
-0.386539
-0.575092
-0.540396
-0.474041
-0.388316
-0.29296
-0.19176
-0.0860497
0.0230168
0.133748
0.243256
0.33342
0.380387
0.350172
0.182154
0.00836412
-0.156673
-0.28273
-0.321542
-0.334587
-0.335868
-0.60322
-0.568353
-0.501794
-0.416055
-0.320902
-0.220276
-0.115641
-0.00838123
0.0993891
0.203955
0.286976
0.319977
0.271346
0.0908384
-0.0739608
-0.221704
-0.297927
-0.314801
-0.316121
-0.315908
-0.633168
-0.598019
-0.53125
-0.445564
-0.350772
-0.250917
-0.147618
-0.0424999
0.061918
0.161064
0.236073
0.257652
0.173597
0.00735741
-0.14941
-0.271203
-0.307488
-0.30604
-0.305054
-0.304452
-0.664647
-0.629283
-0.562296
-0.476752
-0.382479
-0.283625
-0.18195
-0.0793163
0.0213587
0.114684
0.181563
0.18717
0.0838504
-0.0705076
-0.209136
-0.284837
-0.294917
-0.297244
-0.297823
-0.29743
-0.697077
-0.661592
-0.594677
-0.50939
-0.41583
-0.318238
-0.218483
-0.118703
-0.0221389
0.0651282
0.123804
0.115002
0.00318578
-0.136925
-0.253106
-0.283665
-0.292227
-0.29377
-0.29338
-0.292898
-0.730005
-0.69442
-0.627906
-0.543073
-0.45047
-0.35443
-0.256938
-0.16038
-0.0683301
0.0130462
0.0619263
0.0471257
-0.0704919
-0.192631
-0.284495
-0.300197
-0.291646
-0.290128
-0.289847
-0.289488
-0.762545
-0.727124
-0.661123
-0.577161
-0.485848
-0.391718
-0.296863
-0.20389
-0.116763
-0.0410863
-0.00140438
-0.0147292
-0.132365
-0.239948
-0.293198
-0.29965
-0.292807
-0.287396
-0.285354
-0.284814
-0.79309
-0.758467
-0.693367
-0.61073
-0.521177
-0.429382
-0.337593
-0.248578
-0.166646
-0.0968388
-0.0596149
-0.0840951
-0.176177
-0.277863
-0.303661
-0.306352
-0.294552
-0.283544
-0.279459
-0.278012
-0.820092
-0.786489
-0.723502
-0.642622
-0.555397
-0.466449
-0.378233
-0.293594
-0.216953
-0.153507
-0.115526
-0.152858
-0.204594
-0.260938
-0.329519
-0.310176
-0.299411
-0.295157
-0.292566
-0.290738
-0.841428
-0.809602
-0.749324
-0.671374
-0.587167
-0.501735
-0.417636
-0.337849
-0.266718
-0.210141
-0.174249
-0.219214
-0.220607
-0.179771
-0.224968
-0.290061
-0.343684
-0.365907
-0.36611
-0.363031
-0.854863
-0.825735
-0.769122
-0.695042
-0.61491
-0.533807
-0.454472
-0.379993
-0.314863
-0.265878
-0.232532
-0.303687
-0.306676
-0.15845
-0.212109
-0.369006
-0.464953
-0.488414
-0.484593
-0.483832
-0.857719
-0.832635
-0.780825
-0.71176
-0.636816
-0.561033
-0.487131
-0.418429
-0.359867
-0.31894
-0.287874
-0.430281
-0.64367
-0.733476
-0.678438
-0.632034
-0.592635
-0.568186
-0.558962
-0.55879
-0.848077
-0.827745
-0.782246
-0.719873
-0.651289
-0.581708
-0.513869
-0.451204
-0.399487
-0.367104
-0.352256
-0.558822
-0.928022
-1.52877
-1.45404
-0.970785
-0.691138
-0.596787
-0.571506
-0.564318
-0.823642
-0.8081
-0.771563
-0.718007
-0.657113
-0.59451
-0.532932
-0.475998
-0.430084
-0.403711
-0.405588
-0.507046
-0.655659
-0.936297
-0.984199
-0.638011
-0.43487
-0.375484
-0.364873
-0.362288
-0.786464
-0.776285
-0.749205
-0.706162
-0.654046
-0.598849
-0.543173
-0.490832
-0.447342
-0.421536
-0.406542
-0.278967
0.0634409
0.550243
0.63674
0.341849
0.0270358
-0.0903216
-0.10969
-0.100585
-0.742555
-0.736774
-0.719643
-0.686853
-0.643836
-0.595308
-0.544697
-0.494605
-0.450924
-0.420827
-0.405235
-0.227673
0.0806616
0.365805
0.225717
-0.154304
-0.265179
-0.234305
-0.179506
-0.190626
-0.70092
-0.697522
-0.688692
-0.665209
-0.629432
-0.586175
-0.538674
-0.48921
-0.441393
-0.407748
-0.403095
-0.433895
-0.68364
-1.18804
-1.72388
-2.13172
-2.11094
-1.86343
-1.58705
-1.41832
-0.668633
-0.666507
-0.661963
-0.646051
-0.615681
-0.574926
-0.527788
-0.475067
-0.420555
-0.369466
-0.344978
-0.416336
-0.76905
-1.24858
-1.58411
-1.58821
-1.37624
-1.09032
-0.861397
-0.753381
-0.642207
-0.641346
-0.639919
-0.6312
-0.60552
-0.565407
-0.51525
-0.457051
-0.390717
-0.312658
-0.23514
-0.159171
-0.167716
-0.118617
0.00803846
0.217796
0.534089
0.801747
0.963406
1.02211
-0.625423
-0.624914
-0.624374
-0.62042
-0.599734
-0.558587
-0.503707
-0.437152
-0.357966
-0.26114
-0.136194
0.0394331
0.257992
0.569368
0.961547
1.41229
1.79891
2.05057
2.17353
2.21032
-0.614512
-0.614199
-0.613668
-0.612533
-0.596882
-0.555456
-0.495345
-0.420922
-0.329943
-0.218492
-0.0823144
0.0557155
0.296851
0.718038
1.26319
1.75972
2.13546
2.35152
2.44658
2.47103
-0.60773
-0.606997
-0.605252
-0.604339
-0.595551
-0.557574
-0.492736
-0.410536
-0.312241
-0.197788
-0.0685804
0.0696554
0.245215
0.643688
1.11562
1.54414
1.85626
2.02757
2.09958
2.11678
-0.613399
-0.61047
-0.604779
-0.603053
-0.602818
-0.568889
-0.49614
-0.404731
-0.30245
-0.18769
-0.0697422
0.050919
0.173219
0.459721
0.830097
1.14138
1.37306
1.49756
1.54894
1.5605
-0.646578
-0.643748
-0.643069
-0.646648
-0.646494
-0.595281
-0.502776
-0.3984
-0.292423
-0.181417
-0.0776979
0.0187014
0.107509
0.30035
0.552675
0.766127
0.921552
1.00505
1.03931
1.04618
-0.697405
-0.703806
-0.719359
-0.727013
-0.705802
-0.620088
-0.500431
-0.383879
-0.277769
-0.176243
-0.0907427
-0.0178515
0.0437715
0.180469
0.347223
0.483084
0.579636
0.630398
0.65066
0.654202
-0.684202
-0.696723
-0.716955
-0.72308
-0.689164
-0.588
-0.463706
-0.351181
-0.254982
-0.169457
-0.102768
-0.0524105
-0.0101174
0.0802571
0.191121
0.280186
0.337567
0.366801
0.379306
0.380964
-0.529278
-0.541572
-0.557807
-0.561954
-0.532763
-0.459337
-0.374724
-0.292717
-0.219193
-0.15411
-0.106003
-0.0750107
-0.0489404
0.0206409
0.0906761
0.142954
0.177508
0.195354
0.202385
0.202826
-0.29157
-0.297723
-0.307428
-0.315453
-0.309852
-0.287381
-0.253986
-0.214158
-0.172029
-0.130127
-0.101479
-0.0894299
-0.0813011
-0.0284092
0.0260471
0.0623054
0.0815627
0.0898284
0.0927039
0.0926904
-0.0865988
-0.0895299
-0.0972311
-0.110886
-0.127785
-0.140218
-0.14356
-0.137066
-0.122119
-0.101762
-0.0876577
-0.0853927
-0.0828681
-0.0460386
-0.0102728
0.0133837
0.0267059
0.0325816
0.034587
0.0343415
0.0350816
0.0332966
0.0263115
0.0099833
-0.0155439
-0.0425098
-0.0636769
-0.0755194
-0.0771521
-0.0706132
-0.0633976
-0.0624512
-0.0585785
-0.0314626
-0.00765622
0.00454284
0.00895695
0.0103571
0.0108281
0.0105138
0.0859552
0.084637
0.0787467
0.0640115
0.0398938
0.0123437
-0.0125928
-0.0309865
-0.0404679
-0.0405599
-0.034648
-0.0282526
-0.0200357
0.000280053
0.0101354
0.0141833
0.0149818
0.0151678
0.0153837
0.0148513
0.0968093
0.095843
0.0914725
0.0803105
0.0615977
0.0389831
0.0166276
-0.00180448
-0.0132825
-0.0150649
-0.00618954
0.00913444
0.0272096
0.0391348
0.0384868
0.0358665
0.0340484
0.0340428
0.0334621
0.032666
0.0898175
0.0891859
0.0862328
0.0785116
0.0651952
0.0483165
0.0306148
0.0151833
0.00503113
0.00402459
0.0160736
0.0388502
0.0626767
0.067603
0.0608886
0.0558032
0.0545182
0.0544186
0.0542355
0.0530956
0.076217
0.0758485
0.0739706
0.0688943
0.0598497
0.0479173
0.0347628
0.0227198
0.0145359
0.0143112
0.0274384
0.0515657
0.0754053
0.0752248
0.0671366
0.0640862
0.0644237
0.0662515
0.0662152
0.0647884
0.0608524
0.0606753
0.0595249
0.0562931
0.0503188
0.0420944
0.032622
0.0235117
0.0168336
0.016182
0.0267109
0.0462661
0.0633642
0.0595628
0.0536062
0.0540465
0.0578098
0.060876
0.0610037
0.0594924
0.0458465
0.0457213
0.0450401
0.0430573
0.0392139
0.0336276
0.0268086
0.0196735
0.0135405
0.0108126
0.0153902
0.0255427
0.0327204
0.026765
0.0244209
0.027895
0.0329727
0.0357858
0.0358463
0.0346025
0.0322561
0.0321578
0.0317336
0.0305324
0.0280912
0.024282
0.0192145
0.0132285
0.00677473
0.000677004
-0.00324616
-0.00571877
-0.0103176
-0.0174976
-0.0164492
-0.00900922
-0.00268967
-0.000297836
-0.000280189
-0.00119392
0.0206899
0.0205932
0.0202887
0.0195761
0.01806
0.0154244
0.0114667
0.00601414
-0.00126051
-0.0111902
-0.0244093
-0.0403203
-0.0586111
-0.0665284
-0.0581349
-0.0476861
-0.0411478
-0.0391963
-0.0390802
-0.0395454
0.0116484
0.0115336
0.0112933
0.0108389
0.00987437
0.00797867
0.00472463
-0.000449315
-0.0085254
-0.0217386
-0.0426623
-0.0715601
-0.0961356
-0.0999999
-0.0883481
-0.077248
-0.0721141
-0.0706178
-0.0703549
-0.0705342
0.00528095
0.00514819
0.00492247
0.00456281
0.00398378
0.00251855
-0.000236345
-0.00497763
-0.0131734
-0.0279998
-0.0529503
-0.0856949
-0.115909
-0.113986
-0.100657
-0.0913443
-0.0883133
-0.0879846
-0.0876423
-0.08761
0.00142082
0.00130937
0.001109
0.000845616
0.000362681
-0.000755468
-0.00300062
-0.00715583
-0.0145596
-0.0284949
-0.0527964
-0.0854844
-0.108268
-0.102752
-0.0925478
-0.0873813
-0.0872691
-0.0878603
-0.0874826
-0.0873472
-0.000386763
-0.000490857
-0.000655114
-0.000867375
-0.00121347
-0.00199659
-0.00363158
-0.00676788
-0.0124917
-0.0234228
-0.0421602
-0.0661749
-0.0797552
-0.0739049
-0.0682621
-0.0682643
-0.0698587
-0.0707937
-0.0705786
-0.0705445
-0.000707817
-0.000790047
-0.000905369
-0.00102258
-0.00121442
-0.00164219
-0.00257476
-0.00435244
-0.00765233
-0.014005
-0.024408
-0.0365272
-0.0414946
-0.037133
-0.0378788
-0.0397921
-0.0417772
-0.0424295
-0.0423068
-0.0424374
4.42155e-05
1.85535e-05
4.50304e-06
-7.36266e-05
-0.000201893
-0.000205362
-0.00028244
-0.000485632
-0.000953431
-0.00163283
-0.00285675
-0.00454516
-0.00575731
-0.00570718
-0.00909026
-0.0123467
-0.013824
-0.012433
-0.0114773
-0.0108266
-0.070854
0.0972908
0.293931
0.465437
0.602844
0.711508
0.801589
0.878108
0.912733
0.889425
0.235117
0.3568
0.487758
0.601094
0.69679
0.776118
0.840341
0.88588
0.908681
0.920714
0.456076
0.539596
0.629102
0.708281
0.776426
0.833452
0.878785
0.911885
0.935778
0.953726
0.618185
0.677837
0.740216
0.797756
0.847853
0.89039
0.925314
0.953157
0.976052
0.994333
0.744543
0.78802
0.834308
0.878427
0.917402
0.951434
0.980551
1.00477
1.02522
1.04305
0.849424
0.882515
0.920843
0.956592
0.989396
1.01879
1.04447
1.06604
1.08394
1.10128
0.942324
0.97114
1.00526
1.03752
1.06758
1.09484
1.11866
1.13844
1.15398
1.17105
1.03113
1.06041
1.0945
1.12663
1.1563
1.18294
1.20586
1.22438
1.23777
1.25481
1.12657
1.15983
1.19652
1.23015
1.26024
1.28646
1.30845
1.32575
1.33763
1.35503
1.24164
1.27951
1.31818
1.35245
1.38183
1.4066
1.42699
1.44289
1.45437
1.47244
1.38663
1.4252
1.46136
1.49206
1.51776
1.53987
1.55893
1.57447
1.58691
1.60491
1.56175
1.59337
1.61956
1.64203
1.66201
1.68074
1.69846
1.71495
1.7303
1.74837
1.75038
1.76758
1.78262
1.79886
1.81477
1.82931
1.84252
1.85645
1.87399
1.89415
1.9321
1.94164
1.95319
1.964
1.97329
1.98287
1.99366
2.00503
2.0164
2.03175
2.13935
2.14301
2.12807
2.11326
2.10698
2.11266
2.13114
2.16146
2.19363
2.22029
2.44567
2.3108
2.23417
2.19179
2.17437
2.17834
2.20573
2.26215
2.36477
2.58913
0.74371
0.74158
0.737095
0.728468
0.716239
0.704104
0.693867
0.685958
0.680323
0.677046
0.676661
0.67937
0.684451
0.691655
0.701028
0.712559
0.725203
0.736233
0.742342
0.745394
0.66817
0.674016
0.680349
0.684837
0.687302
0.68697
0.684224
0.680401
0.676872
0.674587
0.674408
0.676574
0.680211
0.684479
0.688271
0.690143
0.689199
0.685711
0.680544
0.673923
0.659758
0.662055
0.665456
0.668447
0.670516
0.672004
0.672747
0.672415
0.671369
0.670459
0.670599
0.67199
0.673776
0.675058
0.67522
0.674316
0.672757
0.670413
0.667144
0.664221
0.654267
0.655353
0.657183
0.659555
0.661571
0.662988
0.663995
0.664729
0.665107
0.665298
0.665748
0.666514
0.667076
0.667114
0.666679
0.665813
0.664331
0.662237
0.660143
0.658758
0.649088
0.649751
0.650856
0.652554
0.654326
0.655946
0.657225
0.65822
0.659074
0.659826
0.660507
0.66101
0.66116
0.660959
0.660364
0.659287
0.657841
0.656285
0.654958
0.654176
0.644143
0.644604
0.645386
0.646677
0.648153
0.649656
0.651102
0.652375
0.653477
0.654487
0.655345
0.655851
0.655944
0.655626
0.654893
0.653874
0.652726
0.651576
0.650651
0.650131
0.639354
0.639698
0.640306
0.641366
0.642647
0.644004
0.645421
0.646838
0.648171
0.649396
0.650436
0.651052
0.651162
0.65083
0.650185
0.649371
0.64849
0.647603
0.646917
0.646537
0.634667
0.634935
0.635425
0.636325
0.63748
0.638757
0.640125
0.641579
0.643072
0.644527
0.645788
0.646564
0.646781
0.646588
0.646137
0.64553
0.644842
0.644174
0.643667
0.643377
0.630004
0.630217
0.630624
0.631412
0.632486
0.633711
0.635065
0.636559
0.638173
0.63985
0.641377
0.642388
0.642821
0.642849
0.64261
0.642208
0.641714
0.641229
0.640859
0.640631
0.62528
0.625452
0.6258
0.626515
0.62754
0.628741
0.630117
0.631685
0.633442
0.635353
0.637196
0.638533
0.639261
0.639551
0.639543
0.639351
0.639052
0.63873
0.638472
0.638291
0.620412
0.620551
0.620857
0.621527
0.622533
0.623755
0.625191
0.626874
0.628824
0.631022
0.63325
0.634996
0.636078
0.636671
0.636922
0.63695
0.636842
0.636674
0.636509
0.636363
0.615315
0.615427
0.615705
0.616355
0.617377
0.618664
0.620205
0.622058
0.624268
0.626832
0.629539
0.631776
0.633273
0.634212
0.634752
0.635014
0.635099
0.635081
0.634999
0.634881
0.609901
0.60999
0.610251
0.610905
0.61198
0.613375
0.615074
0.617163
0.619714
0.62275
0.626049
0.628872
0.630857
0.632193
0.633054
0.633589
0.633882
0.634005
0.633993
0.633897
0.604069
0.604137
0.60439
0.605071
0.606237
0.607786
0.609707
0.61211
0.615092
0.618715
0.62274
0.626274
0.628841
0.630645
0.631875
0.632708
0.63323
0.633502
0.633557
0.63348
0.5977
0.597748
0.598002
0.598733
0.600029
0.601788
0.604001
0.606806
0.610334
0.614688
0.6196
0.623994
0.627259
0.629615
0.631276
0.632444
0.633229
0.63366
0.633782
0.63372
0.590655
0.590684
0.590943
0.591745
0.593215
0.595245
0.597834
0.601152
0.60537
0.610623
0.616619
0.622055
0.626157
0.629169
0.631337
0.632893
0.633978
0.634583
0.634771
0.634723
0.582748
0.582763
0.583022
0.583923
0.585619
0.587988
0.591065
0.595042
0.600135
0.606517
0.613839
0.620515
0.625597
0.629376
0.632145
0.634174
0.635596
0.636388
0.636646
0.636609
0.573688
0.573672
0.57399
0.575023
0.577001
0.579816
0.583512
0.588315
0.594493
0.602263
0.611198
0.619372
0.625633
0.630326
0.633807
0.636399
0.638212
0.639216
0.639545
0.639517
0.563204
0.563161
0.563523
0.564745
0.567082
0.570468
0.574954
0.58081
0.588357
0.597845
0.608741
0.618706
0.626356
0.632129
0.63645
0.639692
0.641963
0.643204
0.64361
0.643589
0.550822
0.550752
0.55119
0.552653
0.555465
0.559599
0.565109
0.572319
0.581607
0.593233
0.606504
0.618595
0.627866
0.634897
0.640212
0.644208
0.647004
0.648505
0.648988
0.64897
0.535911
0.535812
0.536369
0.538177
0.541626
0.546765
0.553639
0.56263
0.57415
0.588437
0.604559
0.619127
0.630282
0.63876
0.645225
0.650094
0.65348
0.655257
0.655813
0.655793
0.517561
0.517433
0.518183
0.520491
0.52483
0.531358
0.54009
0.551445
0.565827
0.583387
0.60291
0.620364
0.633674
0.643815
0.651587
0.657454
0.661502
0.663567
0.664185
0.664155
0.49437
0.494224
0.495303
0.498389
0.504072
0.51264
0.524024
0.538624
0.556746
0.578362
0.601861
0.622542
0.638218
0.650188
0.659397
0.666383
0.671131
0.673472
0.674128
0.674077
0.464004
0.463879
0.465562
0.470006
0.477954
0.489709
0.504984
0.524028
0.546911
0.573385
0.601438
0.625721
0.643976
0.657913
0.668686
0.676888
0.682317
0.68488
0.685534
0.685449
0.422338
0.422375
0.425402
0.4327
0.444839
0.461814
0.482863
0.507913
0.53676
0.568939
0.602042
0.630126
0.651055
0.667025
0.679424
0.688852
0.694854
0.697511
0.698103
0.697974
0.361678
0.36286
0.370304
0.383958
0.40379
0.429077
0.458261
0.490961
0.526862
0.565406
0.603875
0.635865
0.659477
0.677445
0.691417
0.7019
0.708308
0.710847
0.711269
0.711099
0.289333
0.291085
0.305367
0.328923
0.359566
0.394681
0.43277
0.473676
0.517205
0.562851
0.607647
0.644579
0.671805
0.692497
0.708474
0.72027
0.727094
0.729628
0.730071
0.730008
0.214533
0.220681
0.241801
0.275504
0.316456
0.361141
0.408124
0.457304
0.508564
0.561447
0.612779
0.654862
0.685826
0.709455
0.727731
0.740781
0.747773
0.750013
0.750281
0.750293
0.153396
0.161823
0.187546
0.228254
0.277214
0.330049
0.385047
0.441963
0.500595
0.560448
0.618037
0.664977
0.699401
0.725587
0.745677
0.75977
0.766867
0.769132
0.769739
0.769833
0.103622
0.112642
0.141915
0.187844
0.242903
0.302303
0.364071
0.427815
0.49317
0.559527
0.623014
0.674503
0.712131
0.740676
0.762469
0.777662
0.785426
0.788264
0.788997
0.789118
0.0618304
0.0711369
0.10287
0.152798
0.21284
0.277691
0.345188
0.414891
0.486274
0.558597
0.627563
0.683289
0.723875
0.754592
0.778061
0.794332
0.802972
0.806209
0.807059
0.807178
0.0256633
0.0350968
0.0686918
0.121818
0.18597
0.255461
0.327951
0.402924
0.479751
0.557556
0.631627
0.691285
0.73459
0.76725
0.792115
0.809335
0.81866
0.822236
0.823206
0.823333
-0.00652645
0.00296394
0.0379936
0.0938285
0.161429
0.234909
0.31181
0.39152
0.473325
0.556219
0.635076
0.698412
0.744194
0.778585
0.804604
0.822569
0.83243
0.836346
0.837351
0.837478
-0.0359818
-0.0264304
0.00977406
0.0679458
0.138526
0.215495
0.296309
0.380307
0.466699
0.554368
0.637769
0.704594
0.752684
0.788617
0.815593
0.834051
0.844292
0.848426
0.849478
0.84959
-0.0635291
-0.0539176
-0.0166482
0.0435138
0.116753
0.19681
0.28112
0.369014
0.459654
0.551831
0.639602
0.709816
0.760141
0.797488
0.825214
0.843954
0.854354
0.858662
0.859802
0.859894
-0.0897123
-0.0800072
-0.0417464
0.0201096
0.0957443
0.178548
0.266006
0.357452
0.452031
0.548481
0.640505
0.714108
0.766679
0.805379
0.833728
0.852722
0.863217
0.867601
0.868725
0.868809
-0.114984
-0.105086
-0.0659765
-0.00249315
0.0752505
0.16051
0.250809
0.345494
0.443731
0.544237
0.640447
0.717514
0.772403
0.812458
0.841403
0.86061
0.871197
0.875562
0.876647
0.876661
-0.139561
-0.129428
-0.0895391
-0.0244844
0.0551184
0.142573
0.235434
0.333075
0.434693
0.539057
0.639412
0.720061
0.777403
0.818872
0.848434
0.867836
0.878449
0.882759
0.883786
0.883796
-0.163531
-0.153172
-0.112432
-0.0460144
0.0352644
0.124689
0.219846
0.320165
0.424898
0.532908
0.637376
0.721763
0.781741
0.824755
0.855004
0.874605
0.885187
0.889365
0.890292
0.89026
-0.187022
-0.176342
-0.134847
-0.067135
0.0156554
0.106838
0.204046
0.306778
0.414358
0.525796
0.634305
0.722586
0.785453
0.830228
0.86127
0.881028
0.891461
0.895423
0.896197
0.896111
-0.21
-0.199026
-0.156766
-0.0878651
-0.00370286
0.0890432
0.188079
0.292962
0.403113
0.517729
0.630167
0.722468
0.78853
0.835382
0.86738
0.887228
0.897323
0.900921
0.901516
0.901386
-0.232506
-0.221209
-0.178138
-0.108169
-0.0227777
0.0713471
0.171995
0.278785
0.391227
0.508742
0.62493
0.721327
0.790905
0.840272
0.873529
0.893412
0.902892
0.905912
0.906282
0.906114
-0.254354
-0.242807
-0.198953
-0.128002
-0.0415122
0.0538299
0.15587
0.264325
0.378781
0.4989
0.618577
0.71907
0.792468
0.844885
0.879924
0.899953
0.908449
0.910492
0.91051
0.910313
-0.27568
-0.263776
-0.219186
-0.147336
-0.05987
0.0365364
0.139798
0.249669
0.365869
0.488288
0.611119
0.715591
0.793053
0.849083
0.886681
0.907398
0.914672
0.915029
0.914261
0.91401
-0.296315
-0.284086
-0.238802
-0.16612
-0.0777683
0.0195542
0.123864
0.234941
0.352604
0.476974
0.6026
0.710797
0.792459
0.852588
0.893644
0.916261
0.922896
0.920874
0.918116
0.916989
-0.316316
-0.303778
-0.257742
-0.184296
-0.0951656
0.00295483
0.108153
0.220221
0.3391
0.465097
0.593093
0.704603
0.790467
0.854979
0.900198
0.926385
0.934565
0.931399
0.924631
0.915707
-0.335598
-0.322808
-0.276106
-0.202022
-0.112273
-0.0135439
0.0923251
0.205102
0.324896
0.452139
0.582049
0.696419
0.786527
0.855771
0.905457
0.936704
0.949735
0.947871
0.93772
0.931244
-0.354106
-0.341092
-0.293883
-0.219256
-0.129084
-0.0299427
0.0763978
0.189567
0.309951
0.437988
0.569283
0.685884
0.77991
0.854177
0.907254