/*--------------------------------*- C++ -*----------------------------------*\
  =========                 |
  \\      /  F ield         | OpenFOAM: The Open Source CFD Toolbox
   \\    /   O peration     | Website:  https://openfoam.org
    \\  /    A nd           | Version:  10
     \\/     M anipulation  |
\*---------------------------------------------------------------------------*/
FoamFile
{
    format      ascii;
    class       volScalarField;
    location    "8.5";
    object      p;
}
// * * * * * * * * * * * * * * * * * * * * * * * * * * * * * * * * * * * * * //

dimensions      [1 -1 -2 0 0 0 0];

internalField   nonuniform List<scalar> 
16128
(
1
1
1
1
1
1
1
1
1
1
1
1
1
1
1
1
1
1
1
1
1
1
1
1
4.9862
10.2962
10.5148
10.6095
10.7242
10.831
10.9352
11.0353
11.1309
11.2215
11.3087
11.3937
11.4738
11.5461
11.6131
11.6792
11.745
11.8056
11.8577
11.901
11.9412
11.9739
11.9968
12.0177
1
1
1
1
1
1
1
1
1
1
1
1
1
1
1
1
1
1
1
1
1
1
1
1
4.9032
10.256
10.5102
10.606
10.7208
10.8273
10.931
11.0306
11.1257
11.216
11.3027
11.3865
11.4655
11.5377
11.6052
11.6711
11.7349
11.7929
11.8436
11.8873
11.9284
11.9608
11.9819
12.0002
1
1
1
1
1
1
1
1
1
1
1
1
1
1
1
1
1
1
1
1
1
1
1
1
4.7261
10.2086
10.4987
10.5946
10.71
10.8168
10.9204
11.0199
11.1151
11.2055
11.2915
11.3739
11.4522
11.5252
11.5939
11.6589
11.7196
11.7742
11.8236
11.8677
11.9089
11.9397
11.9559
11.9715
1
1
1
1
1
1
1
1
1
1
1
1
1
1
1
1
1
1
1
1
1
1
1
1
4.46824
10.1342
10.485
10.5804
10.6959
10.8022
10.9051
11.0036
11.098
11.1877
11.2726
11.3534
11.4307
11.5042
11.5736
11.6378
11.6963
11.7485
11.7971
11.8413
11.8806
11.9085
11.9158
11.9308
1
1
1
1
1
1
1
1
1
1
1
1
1
1
1
1
1
1
1
1
1
1
1
1
4.13611
10.0249
10.4686
10.5627
10.6778
10.7832
10.8848
10.9818
11.0746
11.163
11.2463
11.3253
11.4009
11.4733
11.5423
11.6056
11.6623
11.7126
11.7603
11.804
11.8406
11.866
11.8703
11.8865
1
1
1
1
1
1
1
1
1
1
1
1
1
1
1
1
1
1
1
1
1
1
1
1
3.73373
9.86779
10.4509
10.5436
10.6582
10.7625
10.863
10.9587
11.0501
11.1371
11.219
11.2959
11.369
11.4388
11.5057
11.5675
11.6227
11.671
11.716
11.7558
11.7858
11.806
11.8102
11.8437
1
1
1
1
1
1
1
1
1
1
1
1
1
1
1
1
1
1
1
1
1
1
1
1
3.28199
9.63825
10.4303
10.5191
10.6324
10.7344
10.8332
10.9272
11.0166
11.1015
11.1815
11.2561
11.3265
11.3931
11.4573
11.5174
11.5715
11.6184
11.662
11.7002
11.7264
11.7404
11.724
11.7871
1
1
1
1
1
1
1
1
1
1
1
1
1
1
1
1
1
1
1
1
1
1
1
1
2.79597
9.31886
10.4153
10.495
10.6047
10.7014
10.7959
10.8863
10.9723
11.0539
11.1314
11.2041
11.2723
11.3358
11.3972
11.4555
11.5085
11.5537
11.594
11.6283
11.6513
11.6677
11.6371
11.6977
1
1
1
1
1
1
1
1
1
1
1
1
1
1
1
1
1
1
1
1
1
1
1
1
2.3027
8.8894
10.4209
10.4735
10.5798
10.6699
10.7611
10.8485
10.9312
11.0089
11.0824
11.1509
11.2149
11.2735
11.3297
11.3837
11.433
11.4743
11.5099
11.5401
11.5601
11.5758
11.5352
11.6033
1
1
1
1
1
1
1
1
1
1
1
1
1
1
1
1
1
1
1
1
1
1
1
1
1.81176
8.31797
10.4213
10.4482
10.5514
10.6314
10.7177
10.8022
10.883
10.9578
11.0277
11.0917
11.1509
11.2039
11.2535
11.3009
11.3444
11.3809
11.412
11.438
11.4534
11.4638
11.4142
11.4773
1
1
1
1
1
1
1
1
1
1
1
1
1
1
1
1
1
1
1
1
1
1
1
1
1.35267
7.6715
10.4636
10.4006
10.4926
10.5703
10.6596
10.7444
10.8234
10.8964
10.9635
11.0237
11.0782
11.1261
11.1689
11.2083
11.2433
11.2715
11.2931
11.3103
11.3186
11.3216
11.2657
11.3335
1
1
1
1
1
1
1
1
1
1
1
1
1
1
1
1
1
1
1
1
1
1
1
1
1.0227
6.88269
10.3175
10.3285
10.4189
10.4992
10.5842
10.67
10.7521
10.8248
10.889
10.9454
10.9948
11.0372
11.073
11.1034
11.1273
11.1458
11.1578
11.1674
11.1657
11.1521
11.0811
11.1329
1
1
1
1
1
1
1
1
1
1
1
1
1
1
1
1
1
1
1
1
1
1
1
1
1.00013
5.86144
10.1016
10.2331
10.3419
10.438
10.5252
10.6024
10.6713
10.7398
10.8015
10.8544
10.8988
10.9351
10.9637
10.9851
10.9975
11.0036
10.998
10.9869
10.9575
10.9208
10.8332
10.897
1
1
1
1
1
1
1
1
1
1
1
1
1
1
1
1
1
1
1
1
1
1
1
1
0.999999
4.80681
9.82712
10.1418
10.2553
10.3581
10.4402
10.5138
10.5834
10.6449
10.6985
10.7465
10.7858
10.8157
10.8371
10.8496
10.8476
10.837
10.8098
10.7779
10.7278
10.668
10.5414
10.5208
1
1
1
1
1
1
1
1
1
1
1
1
1
1
1
1
1
1
1
1
1
1
1
1
1
3.71521
9.40491
10.0951
10.222
10.3127
10.3832
10.4417
10.4938
10.542
10.5877
10.6283
10.6597
10.6823
10.6949
10.6952
10.6787
10.65
10.5973
10.5307
10.422
10.2712
10.0567
9.99319
1
1
1
1
1
1
1
1
1
1
1
1
1
1
1
1
1
1
1
1
1
1
1
1
1
2.62967
8.74545
10.084
10.165
10.2442
10.3132
10.3681
10.4128
10.4498
10.4801
10.5061
10.527
10.5393
10.5372
10.5233
10.4896
10.4374
10.3493
10.2342
10.0638
9.86761
9.54886
9.49771
1
1
1
1
1
1
1
1
1
1
1
1
1
1
1
1
1
1
1
1
1
1
1
1
1
1.60548
7.94185
10.1677
10.1153
10.1874
10.2451
10.2882
10.3237
10.3535
10.3749
10.3882
10.3946
10.3948
10.3734
10.3413
10.2847
10.2048
10.0797
9.92054
9.6624
9.29503
8.38621
6.34186
1
1
1
1
1
1
1
1
1
1
1
1
1
1
1
1
1
1
1
1
1
1
1
1
1
1.04826
6.76674
10.1205
10.0436
10.0876
10.1468
10.1919
10.2259
10.2501
10.2637
10.2658
10.2582
10.2421
10.2039
10.1515
10.0692
9.95917
9.7926
9.56779
9.21026
8.59018
7.61399
5.36636
1
1
1
1
1
1
1
1
1
1
1
1
1
1
1
1
1
1
1
1
1
1
1
1
1
1.00013
5.20155
9.64614
9.86374
9.97111
10.0346
10.0827
10.12
10.1402
10.1484
10.1419
10.1202
10.0876
10.0339
9.96107
9.85108
9.70888
9.50209
9.21337
8.78347
8.09876
7.01577
5.05192
1
1
1
1
1
1
1
1
1
1
1
1
1
1
1
1
1
1
1
1
1
1
1
1
1
0.999998
3.6638
9.19929
9.85272
9.92402
9.97377
9.99763
10.0204
10.0301
10.0299
10.0152
9.98022
9.93135
9.86019
9.76793
9.63416
9.46127
9.21887
8.88647
8.40456
7.72281
6.59388
5.06237
1
1
1
1
1
1
1
1
1
1
1
1
1
1
1
1
1
1
1
1
1
1
1
1
1
0.999999
2.19372
8.38975
9.86463
9.85516
9.89047
9.9139
9.93077
9.92809
9.91555
9.88827
9.84038
9.77711
9.68823
9.57617
9.42409
9.22517
8.95506
8.59275
8.09521
7.42828
6.36995
5.15377
1
1
1
1
1
1
1
1
1
1
1
1
1
1
1
1
1
1
1
1
1
1
1
1
1
1
1.1507
7.14414
9.92535
9.82878
9.8069
9.82069
9.82585
9.81391
9.79247
9.7559
9.69983
9.62521
9.52105
9.39091
9.22262
9.00304
8.71776
8.33914
7.84229
7.19319
6.27489
5.28113
1
1
1
1
1
1
1
1
1
1
1
1
1
1
1
1
1
1
1
1
1
1
1
1
1
1
1.00198
5.44197
9.41385
9.62128
9.67739
9.70483
9.70775
9.69307
9.66485
9.62066
9.55636
9.47177
9.35679
9.21296
9.03116
8.79898
8.50601
8.12587
7.63679
7.02379
6.24181
5.41399
1
1
1
1
1
1
1
1
1
1
1
1
1
1
1
1
1
1
1
1
1
1
1
1
1
1
0.999975
3.46768
8.8709
9.56129
9.6124
9.62923
9.61776
9.59296
9.55402
9.50029
9.42549
9.32978
9.2051
9.04971
8.85573
8.61498
8.31892
7.94662
7.47898
6.91008
6.22924
5.53277
1
1
1
1
1
1
1
1
1
1
1
1
1
1
1
1
1
1
1
1
1
1
1
1
1
1
0.999994
1.75728
8.02118
9.62056
9.5523
9.5408
9.51567
9.48195
9.43482
9.37418
9.29209
9.18793
9.05576
8.89315
8.69269
8.44867
8.15409
7.7918
7.35682
6.82985
6.23214
5.63896
1
1
1
1
1
1
1
1
1
1
1
1
1
1
1
1
1
1
1
1
1
1
1
1
1
1
0.999999
1.05761
6.40107
9.40371
9.38315
9.40607
9.38922
9.36384
9.31723
9.2531
9.16639
9.05687
8.91884
8.75093
8.54666
8.30235
8.01145
7.65737
7.25492
6.77169
6.2461
5.72296
1
1
1
1
1
1
1
1
1
1
1
1
1
1
1
1
1
1
1
1
1
1
1
1
1
1
1
1.0001
4.13946
8.87304
9.30963
9.34108
9.31042
9.27427
9.21825
9.14495
9.04984
8.9328
8.79018
8.61879
8.41318
8.17408
7.88722
7.54552
7.16573
6.72667
6.2633
5.78865
1
1
1
1
1
1
1
1
1
1
1
1
1
1
1
1
1
1
1
1
1
1
1
1
1
1
1
0.999998
2.03531
8.13012
9.33313
9.25961
9.21134
9.16889
9.11184
9.0355
8.93594
8.81483
8.66753
8.49758
8.29083
8.05875
7.77406
7.45156
7.09208
6.68769
6.27649
5.83846
1
1
1
1
1
1
1
1
1
1
1
1
1
1
1
1
1
1
1
1
1
1
1
1
1
1
1
1
1.09568
6.3845
9.14467
9.13916
9.10642
9.06692
9.0098
8.93137
8.82934
8.70617
8.55789
8.38497
8.18536
7.95296
7.67786
7.37644
7.03866
6.66387
6.28994
5.88303
1
1
1
1
1
1
1
1
1
1
1
1
1
1
1
1
1
1
1
1
1
1
1
1
1
1
1
1
1.00049
3.83403
8.60238
9.05345
9.02757
8.99837
8.93966
8.8497
8.7378
8.60801
8.45624
8.28139
8.0879
7.85424
7.59262
7.31014
6.99202
6.64684
6.29868
5.91971
1
1
1
1
1
1
1
1
1
1
1
1
1
1
1
1
1
1
1
1
1
1
1
1
1
1
1
1
0.999996
1.60148
7.69398
9.18444
9.00388
8.92309
8.84928
8.7502
8.63678
8.5103
8.36199
8.18712
7.99828
7.77229
7.52342
7.25559
6.95463
6.63662
6.308
5.95798
1
1
1
1
1
1
1
1
1
1
1
1
1
1
1
1
1
1
1
1
1
1
1
1
1
1
1
1
0.999999
1.03176
5.72786
8.76132
8.79447
8.81556
8.74656
8.64637
8.53706
8.41606
8.27148
8.10343
7.91342
7.69892
7.46255
7.20559
6.92059
6.62395
6.31206
5.98909
1
1
1
1
1
1
1
1
1
1
1
1
1
1
1
1
1
1
1
1
1
1
1
1
1
1
1
1
1
0.999947
2.95611
8.10215
8.78679
8.76361
8.67468
8.57777
8.4714
8.34857
8.20154
8.03357
7.84452
7.63346
7.40721
7.16091
6.89277
6.61226
6.31849
6.01773
1
1
1
1
1
1
1
1
1
1
1
1
1
1
1
1
1
1
1
1
1
1
1
1
1
1
1
1
1
0.999983
1.27106
6.66387
8.83035
8.68245
8.58841
8.49753
8.39475
8.27221
8.12599
7.9615
7.77905
7.57546
7.35703
7.12057
6.86586
6.59807
6.32164
6.03834
1
1
1
1
1
1
1
1
1
1
1
1
1
1
1
1
1
1
1
1
1
1
1
1
1
1
1
1
1
0.999997
1.00585
4.07625
8.25104
8.51529
8.48889
8.4308
8.33741
8.21496
8.06819
7.90495
7.72533
7.52652
7.31288
7.08387
6.83969
6.5853
6.325
6.05775
1
1
1
1
1
1
1
1
1
1
1
1
1
1
1
1
1
1
1
1
1
1
1
1
1
1
1
1
1
1
0.999981
1.58963
7.15544
8.64629
8.49647
8.39961
8.28945
8.1571
8.00833
7.84706
7.6711
7.47813
7.27161
7.05152
6.81855
6.57699
6.32874
6.0738
1
1
1
1
1
1
1
1
1
1
1
1
1
1
1
1
1
1
1
1
1
1
1
1
1
1
1
1
1
1
0.999995
1.02866
4.84577
8.2528
8.34643
8.30253
8.21043
8.08906
7.94877
7.79377
7.62232
7.43499
7.23467
7.02204
6.79901
6.56782
6.32825
6.08256
1
1
1
1
1
1
1
1
1
1
1
1
1
1
1
1
1
1
1
1
1
1
1
1
1
1
1
1
1
1
0.999999
1.00002
1.9076
7.38894
8.4545
8.30518
8.18015
8.04985
7.90622
7.74957
7.57799
7.39402
7.19908
6.99485
6.78189
6.55963
6.32695
6.08655
1
1
1
1
1
1
1
1
1
1
1
1
1
1
1
1
1
1
1
1
1
1
1
1
1
1
1
1
1
1
1
1
1.064
5.29099
8.18076
8.19038
8.10575
7.98745
7.84966
7.69636
7.5294
7.35188
7.1655
6.97003
6.76439
6.54652
6.319
6.08582
1
1
1
1
1
1
1
1
1
1
1
1
1
1
1
1
1
1
1
1
1
1
1
1
1
1
1
1
1
1
1
1
1.00025
2.18353
7.37062
8.22123
8.0778
7.94967
7.80969
7.65679
7.49343
7.32305
7.14388
6.9512
6.74522
6.53107
6.31099
6.10832
1
1
1
1
1
1
1
1
1
1
1
1
1
1
1
1
1
1
1
1
1
1
1
1
1
1
1
1
1
1
1
1
1
1.10282
5.38017
8.05037
8.01058
7.8927
7.75927
7.61116
7.45538
7.29066
7.11369
6.91814
6.71515
6.51155
6.32924
6.2227
1
1
1
1
1
1
1
1
1
1
1
1
1
1
1
1
1
1
1
1
1
1
1
1
1
1
1
1
1
1
1
1
1
1.0008
2.24614
7.19322
8.01705
7.86092
7.72705
7.58032
7.42803
7.2639
7.08234
6.88726
6.6924
6.5532
6.50641
6.6367
1
1
1
1
1
1
1
1
1
1
1
1
1
1
1
1
1
1
1
1
1
1
1
1
1
1
1
1
1
1
1
1
1
1
1.11196
5.18232
7.86247
7.81111
7.68038
7.54053
7.38891
7.22323
7.03821
6.85067
6.72956
6.75051
6.9614
7.27392
1
1
1
1
1
1
1
1
1
1
1
1
1
1
1
1
1
1
1
1
1
1
1
1
1
1
1
1
1
1
1
1
1
1
1.00106
2.15159
6.88406
7.79604
7.64491
7.51456
7.35878
7.183
7.00388
6.90351
6.98404
7.29768
7.64453
7.84447
1
1
1
1
1
1
1
1
1
1
1
1
1
1
1
1
1
1
1
1
1
1
1
1
1
1
1
1
1
1
1
1
1
1
1
1.095
4.65775
7.59818
7.6194
7.4769
7.30724
7.1337
7.02962
7.1538
7.59865
7.98506
8.16249
8.10541
1
1
1
1
1
1
1
1
1
1
1
1
1
1
1
1
1
1
1
1
1
1
1
1
1
1
1
1
1
1
1
1
1
1
1
1.00094
1.88268
6.39971
7.63567
7.41802
7.25364
7.15498
7.31566
7.86964
8.38428
8.51452
8.45199
8.24707
1
1
1
1
1
1
1
1
1
1
1
1
1
1
1
1
1
1
1
1
1
1
1
1
1
1
1
1
1
1
1
1
1
1
1
1
1.05735
3.80547
7.28737
7.29642
7.21604
7.40429
8.08282
8.7065
8.86219
8.7628
8.59114
8.35386
1
1
1
1
1
1
1
1
1
1
1
1
1
1
1
1
1
1
1
1
1
1
1
1
1
1
1
1
1
1
1
1
1
1
1
1
1.00052
1.527
5.73861
7.21836
7.55223
8.30717
9.07903
9.28901
9.09211
8.88697
8.68075
8.45817
1
1
1
1
1
1
1
1
1
1
1
1
1
1
1
1
1
1
1
1
1
1
1
1
1
1
1
1
1
1
1
1
1
1
1
1
1
1.02231
2.78585
6.48416
8.4612
9.30242
9.65007
9.47684
9.19104
8.98438
8.79783
8.5967
1
1
1
1
1
1
1
1
1
1
1
1
1
1
1
1
1
1
1
1
1
1
1
1
1
1
1
1
1
1
1
1
1
1
1
1
1
1.00018
1.2179
5.26124
9.53026
9.95587
9.87863
9.56475
9.28972
9.11123
8.94197
8.73949
1
1
1
1
1
1
1
1
1
1
1
1
1
1
1
1
1
1
1
1
1
1
1
1
1
1
1
1
1
1
1
1
1
1
1
1
1
1
1.00456
3.52768
10.0816
10.3995
9.99608
9.61096
9.35779
9.22415
9.08204
8.89482
1
1
1
1
1
1
1
1
1
1
1
1
1
1
1
1
1
1
1
1
1
1
1
1
1
1
1
1
1
1
1
1
1
1
1
1
1
1
1.00002
2.60101
9.65637
10.2496
9.86204
9.61826
9.46897
9.38518
9.23704
9.03589
1
1
1
1
1
1
1
1
1
1
1
1
1
1
1
1
1
1
1
1
1
1
1
1
1
1
1
1
1
1
1
1
1
1
1
1
1
1
1
1.90459
8.58748
10.2182
9.94039
9.80887
9.65977
9.538
9.3834
9.17464
1
1
1
1
1
1
1
1
1
1
1
1
1
1
1
1
1
1
1
1
1
1
1
1
1
1
1
1
1
1
1
1
1
1
1
1
1
1
1
1.32649
7.67093
10.2765
9.98694
9.87038
9.73296
9.58964
9.42524
9.25273
1
1
1
1
1
1
1
1
1
1
1
1
1
1
1
1
1
1
1
1
1
1
1
1
1
1
1
1
1
1
1
1
1
1
1
1
1
1
1
1.01619
6.569
10.1356
9.9566
9.8668
9.77016
9.67108
9.54628
9.42137
1
1
1
1
1
1
1
1
1
1
1
1
1
1
1
1
1
1
1
1
1
1
1
1
1
1
1
1
1
1
1
1
1
1
1
1
1
1
1
1.00008
5.39178
9.86912
9.93916
9.87551
9.80017
9.70434
9.59387
9.48954
1
1
1
1
1
1
1
1
1
1
1
1
1
1
1
1
1
1
1
1
1
1
1
1
1
1
1
1
1
1
1
1
1
1
1
1
1
1
1
1
4.26839
9.54587
9.9341
9.87731
9.81855
9.7399
9.65288
9.5536
1
1
1
1
1
1
1
1
1
1
1
1
1
1
1
1
1
1
1
1
1
1
1
1
1
1
1
1
1
1
1
1
1
1
1
1
1
1
1
1
3.24627
9.11841
10.0113
9.94339
9.87958
9.78323
9.69022
9.59639
1
1
1
1
1
1
1
1
1
1
1
1
1
1
1
1
1
1
1
1
1
1
1
1
1
1
1
1
1
1
1
1
1
1
1
1
1
1
1
1
2.28645
8.58081
10.173
10.0087
9.91167
9.8042
9.71592
9.61868
1
1
1
1
1
1
1
1
1
1
1
1
1
1
1
1
1
1
1
1
1
1
1
1
1
1
1
1
1
1
1
1
1
1
1
1
1
1
1
1
1.48436
7.90983
10.3193
10.0827
9.96639
9.85028
9.75343
9.65373
1
1
1
1
1
1
1
1
1
1
1
1
1
1
1
1
1
1
1
1
1
1
1
1
1
1
1
1
1
1
1
1
1
1
1
1
1
1
1
1
1.05825
7.23954
10.3411
10.094
9.95665
9.86066
9.77662
9.68764
1
1
1
1
1
1
1
1
1
1
1
1
1
1
1
1
1
1
1
1
1
1
1
1
1
1
1
1
1
1
1
1
1
1
1
1
1
1
1
1
1.0007
6.39046
10.2289
10.0805
9.99343
9.91234
9.8174
9.72213
1
1
1
1
1
1
1
1
1
1
1
1
1
1
1
1
1
1
1
1
1
1
1
1
1
1
1
1
1
1
1
1
1
1
1
1
1
1
1
1
1
5.53087
10.0883
10.121
10.023
9.93812
9.84544
9.75943
1
1
1
1
1
1
1
1
1
1
1
1
1
1
1
1
1
1
1
1
1
1
1
1
1
1
1
1
1
1
1
1
1
1
1
1
1
1
1
1
1
4.78907
9.88897
10.1252
10.0299
9.96441
9.88063
9.79412
1
1
1
1
1
1
1
1
1
1
1
1
1
1
1
1
1
1
1
1
1
1
1
1
1
1
1
1
1
1
1
1
1
1
1
1
1
1
1
1
1
4.07327
9.69063
10.166
10.0599
9.99785
9.9137
9.82768
1
1
1
1
1
1
1
1
1
1
1
1
1
1
1
1
1
1
1
1
1
1
1
1
1
1
1
1
1
1
1
1
1
1
1
1
1
1
1
1
1
3.4163
9.44954
10.218
10.0902
10.0266
9.94184
9.85505
1
1
1
1
1
1
1
1
1
1
1
1
1
1
1
1
1
1
1
1
1
1
1
1
1
1
1
1
1
1
1
1
1
1
1
1
1
1
1
1
1
2.85109
9.16598
10.2805
10.1243
10.0523
9.9656
9.88025
1
1
1
1
1
1
1
1
1
1
1
1
1
1
1
1
1
1
1
1
1
1
1
1
1
1
1
1
1
1
1
1
1
1
1
1
1
1
1
1
1
2.36018
8.87625
10.3291
10.1545
10.0752
9.98539
9.89779
1
1
1
1
1
1
1
1
1
1
1
1
1
1
1
1
1
1
1
1
1
1
1
1
1
1
1
1
1
1
1
1
1
1
1
1
1
1
1
1
1
1.95158
8.56504
10.3689
10.1848
10.1
10.0086
9.92022
1
1
1
1
1
1
1
1
1
1
1
1
1
1
1
1
1
1
1
1
1
1
1
1
1
1
1
1
1
1
1
1
1
1
1
1
1
1
1
1
1
1.65131
8.22026
10.4
10.2073
10.1188
10.0267
9.93805
1
1
1
1
1
1
1
1
1
1
1
1
1
1
1
1
1
1
1
1
1
1
1
1
1
1
1
1
1
1
1
1
1
1
1
1
1
1
1
1
1
1.44944
7.86802
10.4064
10.222
10.1338
10.0426
9.95456
1
1
1
1
1
1
1
1
1
1
1
1
1
1
1
1
1
1
1
1
1
1
1
1
1
1
1
1
1
1
1
1
1
1
1
1
1
1
1
1
1
1.31182
7.53697
10.3847
10.2293
10.144
10.0541
9.9665
1
1
1
1
1
1
1
1
1
1
1
1
1
1
1
1
1
1
1
1
1
1
1
1
1
1
1
1
1
1
1
1
1
1
1
1
1
1
1
1
1
1.21393
7.25746
10.3486
10.2322
10.1519
10.0671
9.98185
1
1
1
1
1
1
1
1
1
1
1
1
1
1
1
1
1
1
1
1
1
1
1
1
1
1
1
1
1
1
1
1
1
1
1
1
1
1
1
1
1
1.11382
6.99698
10.3261
10.2401
10.1593
10.079
9.99514
1
1
1
1
1
1
1
1
1
1
1
1
1
1
1
1
1
1
1
1
1
1
1
1
1
1
1
1
1
1
1
1
1
1
1
1
1
1
1
1
1
1.02283
6.79073
10.3128
10.2509
10.1634
10.0863
10.0031
1
1
1
1
1
1
1
1
1
1
1
1
1
1
1
1
1
1
1
1
1
1
1
1
1
1
1
1
1
1
1
1
1
1
1
1
1
1
1
1
1
1.00048
6.55764
10.3012
10.2669
10.1648
10.0903
10.0072
1
1
1
1
1
1
1
1
1
1
1
1
1
1
1
1
1
1
1
1
1
1
1
1
1
1
1
1
1
1
1
1
1
1
1
1
1
1
1
1
1
1
6.35071
10.2898
10.2838
10.1664
10.0943
10.0111
1
1
1
1
1
1
1
1
1
1
1
1
1
1
1
1
1
1
1
1
1
1
1
1
1
1
1
1
1
1
1
1
1
1
1
1
1
1
1
1
1
1
6.1937
10.2839
10.2958
10.1687
10.0974
10.0141
1
1
1
1
1
1
1
1
1
1
1
1
1
1
1
1
1
1
1
1
1
1
1
1
1
1
1
1
1
1
1
1
1
1
1
1
1
1
1
1
1
1
6.08804
10.2787
10.301
10.1702
10.0986
10.0154
1
1
1
1
1
1
1
1
1
1
1
1
1
1
1
1
1
1
1
1
1
1
1
1
1
1
1
1
1
1
1
1
1
1
1
1
1
1
1
1
1
1
6.03933
10.269
10.3014
10.1722
10.101
10.0175
1.13355
0.131972
0.0512264
0.0655563
0.0526512
0.0516012
0.0732982
0.117518
0.179256
0.262247
0.338258
0.411229
0.481434
0.556871
0.646089
0.725451
0.772937
0.832926
0.895099
0.935559
0.97838
1.00386
1.01614
1.05771
1.08624
1.08676
1.08645
1.09238
1.09579
1.1068
1.13049
1.15268
1.6311
4.08848
5.0146
5.13696
5.17734
5.22073
5.28215
5.33147
5.35164
5.35413
5.36916
5.39677
5.43332
5.46683
5.48353
5.48047
5.46868
5.46374
5.47806
5.50934
5.54005
5.55182
5.54115
5.52308
5.51265
5.51666
5.52885
5.53513
5.52896
5.50929
5.48382
5.46291
5.45092
5.44548
5.44106
5.43145
5.4139
5.39082
5.36756
5.347
5.32818
5.30851
5.28624
5.26174
5.2365
5.21164
5.18698
5.16168
5.1354
5.10864
5.08216
5.05605
5.02967
5.0023
4.97378
4.9444
4.91465
4.88487
4.85525
4.82578
4.79591
4.7649
4.7325
4.69914
4.66569
4.63306
4.60188
4.57243
4.54504
4.51972
4.49502
4.46824
4.43731
4.40184
4.36335
4.32441
4.28737
4.25327
4.22169
4.19115
4.16032
4.12856
4.09574
4.0622
4.02846
3.99483
3.96153
3.92826
3.89486
3.86243
3.8323
3.80465
3.77844
3.75221
3.72483
3.69579
3.66591
3.63543
3.60427
3.5727
3.54128
3.51129
3.48455
3.46103
3.43848
3.41317
3.38478
3.35447
3.32187
3.28919
3.26045
3.23563
3.2146
3.1927
3.1689
3.14207
3.11175
3.08008
3.05145
3.02795
3.01051
2.9935
2.97264
2.94594
2.91633
2.88953
2.86767
2.85187
2.83913
2.82192
2.79725
2.76327
2.72565
2.69283
2.66994
2.65771
2.65432
2.64771
2.63596
2.61873
2.59183
2.55565
2.5259
2.61536
3.1978
3.80645
4.14743
4.25325
4.35156
4.37113
4.38312
4.38252
4.37777
4.38199
4.40192
4.43004
4.44546
4.4374
4.41539
4.39285
2.13016
0.855511
0.393695
0.317053
0.267743
0.183895
0.163491
0.158386
0.164767
0.189786
0.229291
0.2706
0.305927
0.349539
0.418022
0.506244
0.592174
0.62988
0.681448
0.765458
0.854176
0.924499
0.953389
0.981326
1.00775
1.02192
1.04467
1.084
1.11875
1.13155
1.1486
1.15791
1.28875
3.51114
5.01281
5.11513
5.16397
5.22019
5.28771
5.33844
5.36106
5.37301
5.38379
5.40443
5.42223
5.442
5.46328
5.47954
5.48429
5.48213
5.48313
5.49324
5.51238
5.53305
5.5452
5.54365
5.53397
5.52405
5.5164
5.51145
5.50798
5.5028
5.49272
5.47845
5.46267
5.44701
5.43234
5.41896
5.40568
5.38986
5.37088
5.35056
5.32976
5.30806
5.28504
5.26067
5.23536
5.20966
5.18404
5.15895
5.13431
5.1096
5.08423
5.05784
5.0305
5.00235
4.9736
4.94451
4.91522
4.8857
4.85564
4.82494
4.79391
4.76257
4.73087
4.69882
4.66654
4.6344
4.60317
4.57374
4.54656
4.52115
4.49542
4.46622
4.43313
4.39778
4.36148
4.32505
4.28947
4.25558
4.22315
4.19115
4.15886
4.12664
4.09512
4.06362
4.031
3.99604
3.96029
3.9251
3.89163
3.8603
3.8307
3.8033
3.77757
3.75123
3.72308
3.69292
3.66238
3.63147
3.60131
3.57208
3.5433
3.51475
3.48771
3.46151
3.43428
3.40655
3.37847
3.3513
3.3251
3.29831
3.26927
3.23938
3.21212
3.18689
3.1615
3.13591
3.11198
3.09065
3.06891
3.0434
3.0156
2.99018
2.96549
2.94182
2.92227
2.90435
2.88414
2.8593
2.83215
2.8036
2.77399
2.7479
2.72945
2.71491
2.69814
2.6806
2.6657
2.64795
2.62169
2.58834
2.55706
2.53005
2.51007
2.55705
2.94618
3.84259
4.36238
4.41669
4.3552
4.36037
4.37833
4.39352
4.40115
4.40254
4.40159
4.4039
4.4081
4.40936
4.40706
4.40475
2.89416
1.82898
1.07591
0.76337
0.613092
0.418774
0.330934
0.340362
0.331156
0.304822
0.309361
0.323471
0.324021
0.328065
0.328308
0.341913
0.381116
0.45097
0.518758
0.609272
0.705725
0.797918
0.847554
0.878658
0.930224
0.986114
1.03482
1.09844
1.1516
1.16184
1.17338
1.18175
1.22181
2.51051
5.08594
5.52985
5.44902
5.40969
5.36945
5.36001
5.359
5.37317
5.40203
5.42861
5.43637
5.43763
5.44757
5.46925
5.49523
5.50978
5.50794
5.49996
5.49895
5.5117
5.53518
5.5561
5.55904
5.53987
5.51275
5.49094
5.48227
5.48771
5.49642
5.49577
5.47925
5.45222
5.42278
5.39911
5.38595
5.37986
5.37159
5.35695
5.33634
5.31166
5.28456
5.25611
5.22712
5.19873
5.17264
5.14999
5.13009
5.10996
5.08695
5.0604
5.0311
5.00024
4.96921
4.93904
4.90977
4.88079
4.8515
4.82169
4.79165
4.7617
4.73175
4.70072
4.6681
4.63455
4.60149
4.57101
4.54467
4.52029
4.49384
4.46334
4.42886
4.39346
4.3583
4.32369
4.28961
4.25617
4.22286
4.18947
4.15621
4.12405
4.09379
4.06336
4.03046
3.99676
3.961
3.92368
3.88951
3.85829
3.82844
3.80145
3.77688
3.74985
3.72126
3.69174
3.66048
3.6285
3.59832
3.57049
3.5439
3.51716
3.48915
3.45933
3.4285
3.39887
3.37241
3.34839
3.32497
3.30037
3.27199
3.23914
3.20601
3.17763
3.15422
3.13388
3.11553
3.09728
3.07646
3.04892
3.01195
2.97738
2.95514
2.93746
2.92093
2.90409
2.88274
2.84986
2.81249
2.78664
2.76928
2.75599
2.74775
2.73643
2.71955
2.69035
2.64931
2.61498
2.58878
2.56885
2.55319
2.5449
2.54222
2.57312
2.7368
3.48178
4.49964
4.7367
4.47265
4.36459
4.35922
4.38951
4.41665
4.42386
4.41165
4.38367
4.37176
4.37263
4.38361
4.4064
3.49112
2.51352
1.75226
1.33561
1.05827
0.785875
0.622074
0.583865
0.536329
0.467707
0.459093
0.450598
0.429185
0.403866
0.399842
0.399285
0.408783
0.432576
0.443198
0.453316
0.475344
0.527718
0.615228
0.693731
0.780943
0.885809
0.956218
1.02652
1.08936
1.10994
1.12989
1.1689
1.21553
1.64601
4.73302
5.95551
5.66345
5.53151
5.45847
5.42211
5.40215
5.39667
5.41768
5.44722
5.46351
5.46644
5.4626
5.47134
5.49115
5.50862
5.51386
5.51592
5.51515
5.51546
5.52116
5.53451
5.54369
5.5345
5.51611
5.50246
5.49621
5.49465
5.49347
5.4834
5.46129
5.43431
5.40851
5.39212
5.38788
5.38955
5.38476
5.36544
5.33651
5.30374
5.27121
5.24158
5.21553
5.19291
5.174
5.1572
5.13903
5.11664
5.08893
5.05699
5.02305
4.98976
4.96
4.93462
4.91059
4.88473
4.85656
4.8263
4.79427
4.76153
4.72872
4.69529
4.66137
4.62798
4.59669
4.5703
4.54873
4.52565
4.49544
4.46203
4.42577
4.38809
4.35223
4.31919
4.28744
4.25495
4.22114
4.18751
4.15537
4.12427
4.09267
4.06056
4.02796
3.99446
3.95895
3.92203
3.887
3.85571
3.82713
3.80076
3.77372
3.74588
3.71776
3.68849
3.65776
3.62681
3.5971
3.56913
3.54203
3.51459
3.48602
3.45647
3.42626
3.3969
3.37055
3.34664
3.32313
3.29793
3.26924
3.23738
3.20546
3.17701
3.15459
3.13602
3.11804
3.09901
3.07772
3.04999
3.01403
2.97774
2.9528
2.93519
2.91831
2.90061
2.87771
2.8445
2.80917
2.78716
2.7728
2.76162
2.75202
2.73871
2.72055
2.68744
2.6382
2.60156
2.58219
2.56824
2.56011
2.56242
2.57425
2.60635
2.75047
3.26502
4.31092
4.90972
4.71426
4.47303
4.3726
4.37989
4.40437
4.41207
4.40413
4.37517
4.35145
4.35067
4.3634
4.39907
3.96337
3.09884
2.34986
1.83697
1.51226
1.18973
0.99229
0.899413
0.817277
0.709943
0.656162
0.619107
0.571397
0.53121
0.528831
0.518986
0.496004
0.489416
0.495157
0.495003
0.490315
0.482072
0.488095
0.505474
0.542769
0.627268
0.728862
0.828792
0.924575
1.00603
1.07138
1.17196
1.2823
1.45336
3.55241
6.00012
6.04081
5.76037
5.56407
5.45847
5.42665
5.42769
5.45038
5.47853
5.49957
5.49932
5.47778
5.47025
5.49147
5.52198
5.544
5.55411
5.5382
5.51296
5.5081
5.51248
5.53108
5.54519
5.54272
5.52792
5.50447
5.48144
5.46337
5.45161
5.4423
5.432
5.42301
5.41542
5.40671
5.39522
5.37688
5.34749
5.315
5.2839
5.25669
5.23546
5.21907
5.20437
5.1884
5.16792
5.14015
5.10825
5.07435
5.0403
5.0081
4.98073
4.96011
4.94121
4.91831
4.88918
4.85527
4.8195
4.78318
4.74864
4.71631
4.68612
4.65686
4.62883
4.60355
4.58134
4.55695
4.526
4.49191
4.45412
4.41512
4.37903
4.34689
4.31663
4.2858
4.25305
4.21938
4.18699
4.15529
4.12297
4.08965
4.05578
4.02191
3.9881
3.95368
3.91851
3.88536
3.85592
3.82769
3.79911
3.77022
3.74183
3.71377
3.68555
3.65669
3.62688
3.59607
3.56528
3.53595
3.5082
3.48146
3.45504
3.42791
3.39957
3.37071
3.34282
3.31617
3.28957
3.26243
3.23581
3.21032
3.18515
3.15979
3.13569
3.11405
3.09313
3.07028
3.04387
3.01494
2.98563
2.95679
2.93126
2.91125
2.89228
2.86933
2.84368
2.8187
2.79555
2.77807
2.76466
2.75193
2.73502
2.71102
2.67855
2.64328
2.61215
2.5878
2.57393
2.56947
2.57586
2.60517
2.72522
2.95988
3.24183
3.84502
4.70369
4.81748
4.64485
4.46162
4.38974
4.37139
4.37387
4.37617
4.36778
4.35252
4.35093
4.36378
4.39297
4.3148
3.52841
2.85843
2.31896
1.93911
1.62434
1.37613
1.22506
1.0967
0.970626
0.887943
0.836145
0.763019
0.663552
0.641202
0.636182
0.611873
0.58465
0.586589
0.585139
0.562846
0.536109
0.533117
0.535528
0.536323
0.541477
0.561078
0.594406
0.667746
0.771775
0.912272
1.07617
1.31654
1.44621
2.04768
5.25841
6.18046
5.87569
5.63791
5.53583
5.51265
5.52106
5.53262
5.53827
5.52649
5.50077
5.4805
5.491
5.51647
5.54724
5.56486
5.55913
5.53295
5.51348
5.51375
5.52286
5.54236
5.54934
5.53785
5.51211
5.48148
5.46366
5.45477
5.45678
5.46149
5.45619
5.43977
5.41822
5.39466
5.37201
5.35283
5.33337
5.31027
5.28765
5.26719
5.24823
5.23054
5.21332
5.19012
5.15996
5.12677
5.09164
5.05919
5.03021
5.00652
4.98906
4.97175
4.94744
4.91622
4.88193
4.84486
4.80757
4.77358
4.74282
4.71635
4.69166
4.6662
4.64037
4.61365
4.58371
4.55097
4.5152
4.47742
4.44061
4.4078
4.37816
4.34961
4.31929
4.28606
4.25023
4.21535
4.1835
4.15204
4.11998
4.08695
4.05257
4.01701
3.98123
3.94628
3.91339
3.88424
3.85644
3.82809
3.79879
3.76895
3.7393
3.7107
3.68304
3.65526
3.62599
3.5942
3.56082
3.52909
3.50138
3.47691
3.45363
3.42972
3.40349
3.37362
3.34068
3.30791
3.27895
3.255
3.23451
3.21461
3.19288
3.1675
3.13823
3.10806
3.08082
3.05668
3.03428
3.01334
2.99215
2.96718
2.93672
2.9043
2.8768
2.85741
2.8424
2.82784
2.81139
2.79048
2.76484
2.73765
2.71219
2.68782
2.66582
2.64865
2.63087
2.60974
2.58909
2.58127
2.60687
2.72157
2.97962
3.2278
3.28966
3.48663
4.15671
4.72839
4.69461
4.5477
4.40108
4.34075
4.33382
4.34675
4.35912
4.36764
4.3729
4.37562
4.37889
4.6072
3.8782
3.27099
2.78002
2.35204
2.00635
1.76885
1.5643
1.39873
1.24421
1.10743
1.01708
0.954537
0.874052
0.79915
0.781983
0.760888
0.720985
0.699812
0.688448
0.663308
0.614531
0.593564
0.589271
0.582256
0.57863
0.587098
0.605542
0.613648
0.64662
0.731946
0.864228
1.08833
1.28156
1.39567
3.33462
5.90689
5.93925
5.67864
5.57604
5.55765
5.58125
5.58145
5.56718
5.53735
5.51654
5.5222
5.53576
5.54464
5.54974
5.55048
5.54558
5.54022
5.5404
5.54077
5.53828
5.53146
5.522
5.50941
5.49657
5.48655
5.48152
5.4815
5.48027
5.46968
5.45022
5.42441
5.39823
5.37564
5.35756
5.34787
5.33919
5.32113
5.29773
5.27268
5.24737
5.22355
5.2037
5.17934
5.14894
5.11601
5.08421
5.05648
5.03374
5.01733
4.99991
4.97279
4.94043
4.90501
4.86871
4.83471
4.80322
4.77504
4.75042
4.72655
4.69995
4.67055
4.63928
4.60643
4.57162
4.53568
4.49973
4.46583
4.43608
4.40953
4.38362
4.35443
4.32103
4.28283
4.24195
4.20614
4.1753
4.14548
4.11543
4.08451
4.05165
4.01543
3.97572
3.93782
3.9075
3.88056
3.85395
3.82679
3.79874
3.76921
3.73841
3.70786
3.6787
3.65043
3.62152
3.59074
3.55824
3.52605
3.49691
3.47189
3.44939
3.42723
3.40348
3.37581
3.34246
3.30568
3.27322
3.24972
3.23077
3.21226
3.19261
3.16968
3.14123
3.10714
3.07223
3.0445
3.0251
3.0084
2.99115
2.97085
2.94292
2.90508
2.87176
2.85442
2.84129
2.82959
2.81563
2.79694
2.76815
2.72973
2.69619
2.67264
2.65886
2.64636
2.6344
2.62169
2.61391
2.6347
2.73913
2.99774
3.2577
3.4149
3.38617
3.40906
3.65175
4.30699
4.65555
4.59896
4.45578
4.34629
4.30928
4.32005
4.34856
4.37752
4.39125
4.38458
4.36449
4.82518
4.1731
3.63126
3.15131
2.71111
2.38762
2.11649
1.87096
1.66309
1.52269
1.37768
1.21024
1.11141
1.05712
0.977793
0.924031
0.908996
0.884643
0.83678
0.788949
0.757059
0.712872
0.672878
0.663987
0.655225
0.655588
0.676738
0.698683
0.731283
0.803106
0.890128
0.985103
1.03548
1.11148
1.14304
1.45705
4.36328
5.77607
5.64754
5.59688
5.63225
5.65738
5.64049
5.59385
5.54983
5.54481
5.56123
5.57077
5.5643
5.55161
5.54393
5.54746
5.55736
5.56253
5.55679
5.54304
5.52366
5.50899
5.50071
5.50104
5.5044
5.50274
5.49054
5.47147
5.45074
5.43122
5.41162
5.39244
5.37617
5.3639
5.35375
5.33995
5.31898
5.29238
5.26364
5.23618
5.21237
5.19455
5.17372
5.14526
5.11483
5.08562
5.05978
5.03954
5.02249
4.99694
4.96519
4.92974
4.89363
4.86129
4.83189
4.80654
4.7835
4.75784
4.72774
4.69554
4.66151
4.6266
4.59217
4.55875
4.52615
4.49471
4.46557
4.43878
4.41236
4.38348
4.35142
4.31477
4.27352
4.23314
4.1988
4.16856
4.13997
4.11117
4.08161
4.0502
4.01453
3.97371
3.93453
3.90317
3.87553
3.84897
3.82276
3.79623
3.76827
3.738
3.70585
3.67366
3.64304
3.61393
3.5855
3.55707
3.52803
3.49838
3.46949
3.44339
3.42007
3.39707
3.37192
3.34285
3.31015
3.27728
3.24817
3.22418
3.20364
3.18364
3.16205
3.13724
3.1078
3.07396
3.04144
3.01766
3.00016
2.9833
2.96466
2.94174
2.9124
2.88012
2.85443
2.83822
2.82452
2.80994
2.79192
2.76552
2.72721
2.69066
2.66938
2.65494
2.64221
2.63361
2.63526
2.664
2.77191
3.02032
3.29421
3.42737
3.49283
3.46011
3.40722
3.43975
3.7589
4.3545
4.54661
4.49245
4.39695
4.32838
4.30992
4.33149
4.3638
4.38044
4.38126
4.36413
5.00999
4.43116
3.937
3.46002
3.03194
2.7164
2.4262
2.16866
1.94194
1.75407
1.59753
1.43246
1.31402
1.2549
1.1817
1.07491
1.03021
1.01882
0.986591
0.920122
0.853254
0.816524
0.778821
0.76278
0.763989
0.789075
0.829661
0.858437
0.92656
0.998307
1.04692
1.09975
1.15529
1.19656
1.20328
1.20342
1.82278
4.77653
5.72104
5.73313
5.72112
5.66153
5.616
5.56896
5.55909
5.58136
5.60208
5.60426
5.58936
5.56688
5.55393
5.55526
5.56417
5.56607
5.55694
5.54429
5.53166
5.51942
5.51343
5.51619
5.51448
5.49862
5.47638
5.45287
5.43296
5.41894
5.41191
5.4049
5.39184
5.37322
5.35022
5.32575
5.30295
5.28016
5.25483
5.23015
5.20902
5.1912
5.17019
5.14329
5.11451
5.08589
5.06007
5.03915
5.01712
4.98757
4.95524
4.92066
4.88801
4.85847
4.8329
4.81032
4.78435
4.75345
4.7197
4.68333
4.64695
4.61309
4.58198
4.55326
4.52614
4.499
4.47079
4.44054
4.40807
4.37382
4.33792
4.30034
4.26344
4.23026
4.19918
4.16843
4.13707
4.10564
4.07439
4.04228
4.00789
3.9718
3.93687
3.90393
3.87274
3.84365
3.81642
3.78996
3.76306
3.73443
3.70306
3.66935
3.63581
3.60538
3.57875
3.5541
3.52913
3.50189
3.47154
3.43989
3.41094
3.38598
3.36247
3.33851
3.31325
3.2851
3.25325
3.22096
3.19307
3.16988
3.14865
3.12744
3.10507
3.07987
3.05022
3.01871
2.99263
2.97285
2.95473
2.93596
2.91589
2.89257
2.86459
2.83618
2.81411
2.7965
2.77801
2.75543
2.72942
2.70393
2.67708
2.65053
2.63823
2.63883
2.67224
2.7814
3.03693
3.30596
3.49539
3.5335
3.53567
3.51108
3.44885
3.40207
3.45403
3.82977
4.29229
4.44946
4.45455
4.40075
4.34831
4.33197
4.33815
4.34802
4.35736
4.35943
5.14838
4.64228
4.1811
3.70251
3.32626
3.00975
2.70377
2.41834
2.20371
1.99205
1.82187
1.65786
1.51351
1.43325
1.36984
1.29626
1.19479
1.12261
1.0883
1.0357
0.952574
0.91187
0.893109
0.883859
0.901823
0.9751
1.01825
1.07393
1.16388
1.19779
1.2267
1.26411
1.29372
1.30154
1.29663
1.29803
1.32992
2.24757
4.763
5.73502
5.76426
5.68559
5.62819
5.59934
5.60987
5.63164
5.62435
5.60584
5.58648
5.57527
5.57659
5.58248
5.57767
5.56134
5.54465
5.53441
5.53153
5.53275
5.535
5.5296
5.5113
5.48684
5.46022
5.43829
5.42185
5.41772
5.42329
5.41914
5.3981
5.37073
5.33871
5.31014
5.28555
5.26835
5.25329
5.23397
5.21174
5.18762
5.16197