/*--------------------------------*- C++ -*----------------------------------*\
  =========                 |
  \\      /  F ield         | OpenFOAM: The Open Source CFD Toolbox
   \\    /   O peration     | Website:  https://openfoam.org
    \\  /    A nd           | Version:  10
     \\/     M anipulation  |
\*---------------------------------------------------------------------------*/
FoamFile
{
    format      ascii;
    class       volScalarField;
    location    "8.5";
    object      T;
}
// * * * * * * * * * * * * * * * * * * * * * * * * * * * * * * * * * * * * * //

dimensions      [0 0 0 1 0 0 0];

internalField   nonuniform List<scalar> 
16128
(
1
1
1
1
1
1
1
1
1
1
1
1
1
1
1
1
1
1
1
1
1
1
1
1
2.07538
2.68744
2.70345
2.71017
2.71843
2.72628
2.73409
2.74162
2.74868
2.7551
2.76102
2.76664
2.77197
2.77694
2.78168
2.78636
2.79091
2.79499
2.79843
2.80131
2.80406
2.80639
2.80805
2.80949
1
1
1
1
1
1
1
1
1
1
1
1
1
1
1
1
1
1
1
1
1
1
1
1
2.06401
2.68466
2.70325
2.71001
2.71825
2.72607
2.73382
2.74129
2.74831
2.75471
2.76059
2.76614
2.7714
2.77636
2.78114
2.7858
2.79023
2.79412
2.79747
2.80037
2.80318
2.8055
2.80705
2.80833
1
1
1
1
1
1
1
1
1
1
1
1
1
1
1
1
1
1
1
1
1
1
1
1
2.03673
2.6803
2.70243
2.70925
2.71753
2.72534
2.73306
2.7405
2.7475
2.75391
2.75975
2.76522
2.77046
2.7755
2.78036
2.78497
2.78918
2.79284
2.7961
2.79902
2.80184
2.80408
2.80534
2.80644
1
1
1
1
1
1
1
1
1
1
1
1
1
1
1
1
1
1
1
1
1
1
1
1
1.9951
2.67255
2.70087
2.70791
2.71632
2.72414
2.73179
2.73913
2.74607
2.75246
2.75827
2.76369
2.76891
2.77401
2.77894
2.78351
2.78757
2.79108
2.79428
2.79722
2.79992
2.80199
2.8027
2.80378
1
1
1
1
1
1
1
1
1
1
1
1
1
1
1
1
1
1
1
1
1
1
1
1
1.93867
2.66076
2.69803
2.70553
2.71428
2.72221
2.72983
2.73707
2.74391
2.75025
2.75605
2.76147
2.76668
2.77179
2.77673
2.78125
2.7852
2.7886
2.79177
2.7947
2.79723
2.79915
2.79972
2.8009
1
1
1
1
1
1
1
1
1
1
1
1
1
1
1
1
1
1
1
1
1
1
1
1
1.86428
2.64316
2.69364
2.70211
2.71145
2.71964
2.72733
2.73453
2.74129
2.74762
2.75348
2.75894
2.76415
2.76921
2.77408
2.77853
2.7824
2.78569
2.78873
2.79145
2.7936
2.79518
2.79574
2.7981
1
1
1
1
1
1
1
1
1
1
1
1
1
1
1
1
1
1
1
1
1
1
1
1
1.77138
2.6179
2.68801
2.69754
2.70754
2.71598
2.72377
2.73094
2.73761
2.74389
2.74982
2.75538
2.76067
2.7657
2.77051
2.77492
2.77876
2.78199
2.78498
2.78772
2.78975
2.79093
2.78996
2.79428
1
1
1
1
1
1
1
1
1
1
1
1
1
1
1
1
1
1
1
1
1
1
1
1
1.66039
2.58581
2.68256
2.69234
2.70274
2.71119
2.71893
2.72598
2.73251
2.73872
2.74474
2.75051
2.756
2.76111
2.76593
2.77034
2.7742
2.77739
2.78024
2.78282
2.78476
2.78614
2.78415
2.78824
1
1
1
1
1
1
1
1
1
1
1
1
1
1
1
1
1
1
1
1
1
1
1
1
1.52795
2.54184
2.67808
2.68642
2.69714
2.70542
2.7132
2.7203
2.72685
2.73304
2.73911
2.745
2.75063
2.75579
2.76055
2.76488
2.76864
2.77168
2.77431
2.77673
2.77856
2.77994
2.77727
2.78188
1
1
1
1
1
1
1
1
1
1
1
1
1
1
1
1
1
1
1
1
1
1
1
1
1.36409
2.4744
2.67331
2.6792
2.68975
2.69761
2.70556
2.71301
2.71988
2.72626
2.73245
2.73848
2.74427
2.74951
2.7542
2.75836
2.76195
2.76485
2.76733
2.76959
2.77123
2.7723
2.769
2.77329
1
1
1
1
1
1
1
1
1
1
1
1
1
1
1
1
1
1
1
1
1
1
1
1
1.17229
2.39429
2.67519
2.672
2.68011
2.68782
2.69637
2.70437
2.71164
2.71829
2.72465
2.73081
2.73673
2.7421
2.74678
2.75079
2.7541
2.75671
2.75875
2.76055
2.7618
2.76249
2.7588
2.76346
1
1
1
1
1
1
1
1
1
1
1
1
1
1
1
1
1
1
1
1
1
1
1
1
1.00988
2.3145
2.671
2.66993
2.67533
2.68129
2.6884
2.69593
2.70321
2.70981
2.71604
2.72209
2.72797
2.73338
2.73804
2.7419
2.7449
2.74721
2.74889
2.75029
2.75079
2.75056
2.74612
2.74963
1
1
1
1
1
1
1
1
1
1
1
1
1
1
1
1
1
1
1
1
1
1
1
1
1.00004
2.20194
2.66925
2.67036
2.6748
2.68007
2.68549
2.6908
2.69599
2.70155
2.7071
2.71261
2.71809
2.72328
2.72783
2.7316
2.73439
2.73625
2.73683
2.73699
2.73581
2.7342
2.72861
2.73292
1
1
1
1
1
1
1
1
1
1
1
1
1
1
1
1
1
1
1
1
1
1
1
1
1
2.05224
2.65366
2.66907
2.67346
2.67822
2.68223
2.68624
2.69044
2.69445
2.69841
2.70273
2.70726
2.71181
2.71611
2.71966
2.72181
2.72293
2.72236
2.72139
2.71911
2.71621
2.70711
2.70419
1
1
1
1
1
1
1
1
1
1
1
1
1
1
1
1
1
1
1
1
1
1
1
1
1
1.85629
2.60479
2.66135
2.67015
2.67644
2.68072
2.68374
2.68619
2.68845
2.69085
2.69349
2.69638
2.69975
2.70325
2.70592
2.7072
2.70744
2.70573
2.70265
2.69642
2.68694
2.67078
2.66384
1
1
1
1
1
1
1
1
1
1
1
1
1
1
1
1
1
1
1
1
1
1
1
1
1
1.6006
2.50699
2.63913
2.65617
2.66729
2.67459
2.67912
2.68196
2.68368
2.6846
2.68534
2.68639
2.68797
2.68953
2.69076
2.69067
2.6896
2.68581
2.67955
2.66877
2.65596
2.63625
2.64044
1
1
1
1
1
1
1
1
1
1
1
1
1
1
1
1
1
1
1
1
1
1
1
1
1
1.259
2.37922
2.62218
2.63511
2.65001
2.66115
2.66884
2.67401
2.67713
2.67822
2.67798
2.67748
2.67723
2.67609
2.67515
2.67306
2.66982
2.66342
2.65413
2.6368
2.61049
2.54516
2.40019
1
1
1
1
1
1
1
1
1
1
1
1
1
1
1
1
1
1
1
1
1
1
1
1
1
1.01971
2.27208
2.62475
2.62195
2.6291
2.64054
2.65151
2.66032
2.66643
2.66936
2.66938
2.66837
2.66653
2.66328
2.65977
2.65492
2.64884
2.63901
2.62462
2.59935
2.5519
2.47583
2.27135
1
1
1
1
1
1
1
1
1
1
1
1
1
1
1
1
1
1
1
1
1
1
1
1
1
1.00006
2.09877
2.60538
2.60811
2.61405
2.6222
2.63225
2.64251
2.65081
2.65653
2.65853
2.65773
2.6554
2.65099
2.64523
2.63725
2.62769
2.61391
2.59395
2.56224
2.508
2.41432
2.20687
1
1
1
1
1
1
1
1
1
1
1
1
1
1
1
1
1
1
1
1
1
1
1
1
1
0.999999
1.83644
2.56208
2.60881
2.61155
2.61493
2.61937
2.62608
2.63322
2.64012
2.64432
2.64436
2.6426
2.63795
2.63083
2.62037
2.6073
2.58944
2.56481
2.52761
2.47167
2.36727
2.19802
1
1
1
1
1
1
1
1
1
1
1
1
1
1
1
1
1
1
1
1
1
1
1
1
1
1
1.4593
2.44268
2.60222
2.60487
2.60799
2.61036
2.614
2.61784
2.6229
2.62731
2.62852
2.62744
2.62328
2.61581
2.60416
2.58837
2.56699
2.5383
2.49803
2.4412
2.33995
2.2047
1
1
1
1
1
1
1
1
1
1
1
1
1
1
1
1
1
1
1
1
1
1
1
1
1
1
1.06036
2.29562
2.601
2.59818
2.59955
2.60173
2.60344
2.60444
2.60657
2.60929
2.61071
2.61007
2.60656
2.59946
2.58772
2.57053
2.54718
2.51562
2.47337
2.41568
2.32601
2.21634
1
1
1
1
1
1
1
1
1
1
1
1
1
1
1
1
1
1
1
1
1
1
1
1
1
1
1.00079
2.11581
2.56514
2.57796
2.58614
2.59086
2.59264
2.59247
2.59234
2.59253
2.59241
2.59134
2.58791
2.58128
2.5701
2.55304
2.52931
2.49685
2.4536
2.39695
2.31906
2.22858
1
1
1
1
1
1
1
1
1
1
1
1
1
1
1
1
1
1
1
1
1
1
1
1
1
1
0.999993
1.77824
2.49884
2.56069
2.57447
2.58047
2.58234
2.58212
2.58093
2.57911
2.57666
2.57368
2.56917
2.56224
2.55139
2.53513
2.51224
2.48073
2.4387
2.38472
2.31559
2.2397
1
1
1
1
1
1
1
1
1
1
1
1
1
1
1
1
1
1
1
1
1
1
1
1
1
1
0.999998
1.30047
2.3653
2.55262
2.55743
2.56433
2.56813
2.56934
2.56841
2.56607
2.56221
2.55729
2.55103
2.543
2.53192
2.51641
2.49496
2.46537
2.42666
2.37635
2.31553
2.25066
1
1
1
1
1
1
1
1
1
1
1
1
1
1
1
1
1
1
1
1
1
1
1
1
1
1
1
1.02318
2.21603
2.53678
2.53711
2.54388
2.54902
2.55323
2.55386
2.55243
2.54864
2.54282
2.53504
2.52545
2.51336
2.49786
2.47747
2.44972
2.41504
2.36962
2.31642
2.25959
1
1
1
1
1
1
1
1
1
1
1
1
1
1
1
1
1
1
1
1
1
1
1
1
1
1
1
1.00006
1.89927
2.48805
2.52478
2.53346
2.53474
2.53756
2.53872
2.53782
2.5346
2.52878
2.52041
2.50968
2.49641
2.48057
2.46035
2.4342
2.40262
2.36263
2.31658
2.26604
1
1
1
1
1
1
1
1
1
1
1
1
1
1
1
1
1
1
1
1
1
1
1
1
1
1
1
1
1.38865
2.37
2.51797
2.51761
2.51895
2.52105
2.52233
2.52174
2.51916
2.51405
2.50591
2.49523
2.4812
2.465
2.44415
2.41941
2.39005
2.35434
2.31502
2.26974
1
1
1
1
1
1
1
1
1
1
1
1
1
1
1
1
1
1
1
1
1
1
1
1
1
1
1
1
1.03798
2.20042
2.50042
2.50129
2.50275
2.50489
2.50604
2.50541
2.50306
2.49858
2.49125
2.48095
2.46758
2.45088
2.43007
2.40649
2.37878
2.34604
2.31164
2.27108
1
1
1
1
1
1
1
1
1
1
1
1
1
1
1
1
1
1
1
1
1
1
1
1
1
1
1
1
1.00022
1.8278
2.43998
2.48449
2.48808
2.49148
2.4921
2.49065
2.48758
2.48288
2.47592
2.46623
2.45398
2.43736
2.41745
2.39499
2.36853
2.33845
2.3068
2.26993
1
1
1
1
1
1
1
1
1
1
1
1
1
1
1
1
1
1
1
1
1
1
1
1
1
1
1
1
0.999999
1.23347
2.29989
2.48537
2.47638
2.47731
2.47691
2.4746
2.47121
2.46675
2.4603
2.45113
2.43993
2.42454
2.40605
2.38486
2.35967
2.33186
2.30192
2.2683
1
1
1
1
1
1
1
1
1
1
1
1
1
1
1
1
1
1
1
1
1
1
1
1
1
1
1
1
1
1.01259
2.11473
2.45262
2.45499
2.46185
2.46017
2.4576
2.45461
2.45061
2.44451
2.4361
2.42526
2.41145
2.39464
2.37484
2.35128
2.32542
2.29691
2.26605
1
1
1
1
1
1
1
1
1
1
1
1
1
1
1
1
1
1
1
1
1
1
1
1
1
1
1
1
1
1
1.63041
2.36347
2.44462
2.44936
2.44687
2.44414
2.44095
2.43656
2.43013
2.42173
2.41114
2.39803
2.38269
2.36448
2.34295
2.31896
2.29238
2.26384
1
1
1
1
1
1
1
1
1
1
1
1
1
1
1
1
1
1
1
1
1
1
1
1
1
1
1
1
1
0.999997
1.10607
2.2004
2.44212
2.43306
2.4315
2.42971
2.42677
2.42213
2.41548
2.40716
2.39705
2.38467
2.37034
2.35351
2.33379
2.3116
2.28722
2.26079
1
1
1
1
1
1
1
1
1
1
1
1
1
1
1
1
1
1
1
1
1
1
1
1
1
1
1
1
1
0.999999
1.00231
1.85324
2.38324
2.40923
2.41338
2.41503
2.4134
2.4091
2.40241
2.39402
2.38396
2.37188
2.35801
2.34207
2.32384
2.30351
2.28133
2.25709
1
1
1
1
1
1
1
1
1
1
1
1
1
1
1
1
1
1
1
1
1
1
1
1
1
1
1
1
1
1
0.999996
1.22369
2.22685
2.4107
2.40275
2.40225
2.40003
2.39544
2.38893
2.38086
2.37105
2.35933
2.34596
2.3308
2.3138
2.29508
2.27462
2.25225
1
1
1
1
1
1
1
1
1
1
1
1
1
1
1
1
1
1
1
1
1
1
1
1
1
1
1
1
1
1
0.999999
1.01115
1.96891
2.3733
2.38366
2.38389
2.38261
2.37956
2.37452
2.36756
2.35844
2.34729
2.33438
2.31982
2.30371
2.28612
2.26683
2.24588
1
1
1
1
1
1
1
1
1
1
1
1
1
1
1
1
1
1
1
1
1
1
1
1
1
1
1
1
1
1
1
1.00002
1.32806
2.23344
2.38116
2.37375
2.37001
2.36594
2.36067
2.35394
2.34534
2.3349
2.32272
2.30902
2.29387
2.27715
2.25865
2.23849
1
1
1
1
1
1
1
1
1
1
1
1
1
1
1
1
1
1
1
1
1
1
1
1
1
1
1
1
1
1
1
1
1.02483
2.02179
2.35235
2.35868
2.35536
2.35098
2.34567
2.33911
2.33115
2.32166
2.3107
2.29812
2.28384
2.26764
2.24976
2.23027
1
1
1
1
1
1
1
1
1
1
1
1
1
1
1
1
1
1
1
1
1
1
1
1
1
1
1
1
1
1
1
1
1.00011
1.4087
2.2233
2.34987
2.34248
2.33794
2.33239
2.32563
2.31793
2.30934
2.29936
2.28737
2.27335
2.25763
2.24035
2.22426
1
1
1
1
1
1
1
1
1
1
1
1
1
1
1
1
1
1
1
1
1
1
1
1
1
1
1
1
1
1
1
1
1
1.03995
2.02329
2.32932
2.32862
2.3237
2.31828
2.31177
2.30453
2.29633
2.28668
2.27483
2.26124
2.24671
2.23195
2.2299
1
1
1
1
1
1
1
1
1
1
1
1
1
1
1
1
1
1
1
1
1
1
1
1
1
1
1
1
1
1
1
1
1
1.00031
1.42287
2.19908
2.31888
2.31024
2.30531
2.29924
2.29228
2.28395
2.2738
2.26157
2.24876
2.24119
2.24315
2.26097
1
1
1
1
1
1
1
1
1
1
1
1
1
1
1
1
1
1
1
1
1
1
1
1
1
1
1
1
1
1
1
1
1
1
1.04344
1.98854
2.30012
2.29846
2.2921
2.28587
2.27885
2.2705
2.25984
2.24652
2.24436
2.25043
2.27696
2.31119
1
1
1
1
1
1
1
1
1
1
1
1
1
1
1
1
1
1
1
1
1
1
1
1
1
1
1
1
1
1
1
1
1
1
1.0004
1.39404
2.16132
2.2876
2.27882
2.2736
2.26633
2.2568
2.2449
2.24576
2.25809
2.29162
2.32778
2.35358
1
1
1
1
1
1
1
1
1
1
1
1
1
1
1
1
1
1
1
1
1
1
1
1
1
1
1
1
1
1
1
1
1
1
1
1.03674
1.9035
2.25896
2.27048
2.26238
2.2529
2.24129
2.24046
2.25736
2.30269
2.34151
2.36426
2.36279
1
1
1
1
1
1
1
1
1
1
1
1
1
1
1
1
1
1
1
1
1
1
1
1
1
1
1
1
1
1
1
1
1
1
1
1.00034
1.31233
2.09834
2.26032
2.24711
2.23708
2.23708
2.25644
2.30937
2.35724
2.37739
2.37572
2.3635
1
1
1
1
1
1
1
1
1
1
1
1
1
1
1
1
1
1
1
1
1
1
1
1
1
1
1
1
1
1
1
1
1
1
1
1
1.02199
1.74794
2.20699
2.22659
2.22502
2.24836
2.31265
2.36863
2.389
2.38443
2.37517
2.36133
1
1
1
1
1
1
1
1
1
1
1
1
1
1
1
1
1
1
1
1
1
1
1
1
1
1
1
1
1
1
1
1
1
1
1
1
1.00018
1.19453
2.01799
2.19876
2.2423
2.31247
2.3795
2.40619
2.39438
2.3828
2.37173
2.3588
1
1
1
1
1
1
1
1
1
1
1
1
1
1
1
1
1
1
1
1
1
1
1
1
1
1
1
1
1
1
1
1
1
1
1
1
1
1.00832
1.53651
2.08625
2.28793
2.36555
2.40606
2.39879
2.38505
2.37629
2.36815
2.35792
1
1
1
1
1
1
1
1
1
1
1
1
1
1
1
1
1
1
1
1
1
1
1
1
1
1
1
1
1
1
1
1
1
1
1
1
1
1.00006
1.0832
1.95325
2.3703
2.40625
2.40531
2.3893
2.37592
2.37016
2.36431
2.35522
1
1
1
1
1
1
1
1
1
1
1
1
1
1
1
1
1
1
1
1
1
1
1
1
1
1
1
1
1
1
1
1
1
1
1
1
1
1
1.00164
1.72791
2.48712
2.47133
2.42856
2.39524
2.37705
2.36972
2.3627
2.35367
1
1
1
1
1
1
1
1
1
1
1
1
1
1
1
1
1
1
1
1
1
1
1
1
1
1
1
1
1
1
1
1
1
1
1
1
1
1
1.00001
1.59918
2.56175
2.5297
2.46872
2.42554
2.3999
2.38576
2.37116
2.35689
1
1
1
1
1
1
1
1
1
1
1
1
1
1
1
1
1
1
1
1
1
1
1
1
1
1
1
1
1
1
1
1
1
1
1
1
1
1
1
1.40293
2.52651
2.59156
2.54849
2.50315
2.46116
2.43034
2.40261
2.37715
1
1
1
1
1
1
1
1
1
1
1
1
1
1
1
1
1
1
1
1
1
1
1
1
1
1
1
1
1
1
1
1
1
1
1
1
1
1
1
1.16236
2.42591
2.64817
2.61534
2.57864
2.53617
2.49434
2.45475
2.42057
1
1
1
1
1
1
1
1
1
1
1
1
1
1
1
1
1
1
1
1
1
1
1
1
1
1
1
1
1
1
1
1
1
1
1
1
1
1
1
1.00724
2.29191
2.6641
2.64661
2.62687
2.60037
2.56863
2.53204
2.49567
1
1
1
1
1
1
1
1
1
1
1
1
1
1
1
1
1
1
1
1
1
1
1
1
1
1
1
1
1
1
1
1
1
1
1
1
1
1
1
1.00003
2.13874
2.65482
2.6538
2.64591
2.63354
2.61535
2.59144
2.56352
1
1
1
1
1
1
1
1
1
1
1
1
1
1
1
1
1
1
1
1
1
1
1
1
1
1
1
1
1
1
1
1
1
1
1
1
1
1
1
1
1.96116
2.62419
2.65304
2.64773
2.64119
2.63207
2.62033
2.60478
1
1
1
1
1
1
1
1
1
1
1
1
1
1
1
1
1
1
1
1
1
1
1
1
1
1
1
1
1
1
1
1
1
1
1
1
1
1
1
1
1.75559
2.56173
2.65015
2.6457
2.64132
2.63416
2.62636
2.61722
1
1
1
1
1
1
1
1
1
1
1
1
1
1
1
1
1
1
1
1
1
1
1
1
1
1
1
1
1
1
1
1
1
1
1
1
1
1
1
1
1.50197
2.46982
2.63915
2.63037
2.62871
2.62535
2.62171
2.6158
1
1
1
1
1
1
1
1
1
1
1
1
1
1
1
1
1
1
1
1
1
1
1
1
1
1
1
1
1
1
1
1
1
1
1
1
1
1
1
1
1.21632
2.37605
2.63169
2.61849
2.61818
2.6161
2.61359
2.60971
1
1
1
1
1
1
1
1
1
1
1
1
1
1
1
1
1
1
1
1
1
1
1
1
1
1
1
1
1
1
1
1
1
1
1
1
1
1
1
1
1.02914
2.3336
2.64311
2.62475
2.61694
2.61215
2.60832
2.60436
1
1
1
1
1
1
1
1
1
1
1
1
1
1
1
1
1
1
1
1
1
1
1
1
1
1
1
1
1
1
1
1
1
1
1
1
1
1
1
1
1.00033
2.25895
2.65618
2.64102
2.62959
2.62087
2.61292
2.60628
1
1
1
1
1
1
1
1
1
1
1
1
1
1
1
1
1
1
1
1
1
1
1
1
1
1
1
1
1
1
1
1
1
1
1
1
1
1
1
1
1
2.15543
2.66367
2.65873
2.64604
2.63498
2.62449
2.61565
1
1
1
1
1
1
1
1
1
1
1
1
1
1
1
1
1
1
1
1
1
1
1
1
1
1
1
1
1
1
1
1
1
1
1
1
1
1
1
1
1
2.04337
2.65036
2.66297
2.65449
2.64692
2.63756
2.62787
1
1
1
1
1
1
1
1
1
1
1
1
1
1
1
1
1
1
1
1
1
1
1
1
1
1
1
1
1
1
1
1
1
1
1
1
1
1
1
1
1
1.91889
2.62211
2.66536
2.65725
2.65184
2.64421
2.63602
1
1
1
1
1
1
1
1
1
1
1
1
1
1
1
1
1
1
1
1
1
1
1
1
1
1
1
1
1
1
1
1
1
1
1
1
1
1
1
1
1
1.79076
2.58857
2.66442
2.65554
2.6512
2.64489
2.63807
1
1
1
1
1
1
1
1
1
1
1
1
1
1
1
1
1
1
1
1
1
1
1
1
1
1
1
1
1
1
1
1
1
1
1
1
1
1
1
1
1
1.6666
2.55769
2.66407
2.6531
2.64869
2.64298
2.63694
1
1
1
1
1
1
1
1
1
1
1
1
1
1
1
1
1
1
1
1
1
1
1
1
1
1
1
1
1
1
1
1
1
1
1
1
1
1
1
1
1
1.53957
2.52873
2.66439
2.65174
2.64662
2.64061
2.63463
1
1
1
1
1
1
1
1
1
1
1
1
1
1
1
1
1
1
1
1
1
1
1
1
1
1
1
1
1
1
1
1
1
1
1
1
1
1
1
1
1
1.41354
2.49642
2.66611
2.65252
2.64662
2.64016
2.63393
1
1
1
1
1
1
1
1
1
1
1
1
1
1
1
1
1
1
1
1
1
1
1
1
1
1
1
1
1
1
1
1
1
1
1
1
1
1
1
1
1
1.30617
2.46078
2.66983
2.65535
2.64857
2.64172
2.6352
1
1
1
1
1
1
1
1
1
1
1
1
1
1
1
1
1
1
1
1
1
1
1
1
1
1
1
1
1
1
1
1
1
1
1
1
1
1
1
1
1
1.22374
2.42415
2.67368
2.65987
2.65297
2.64592
2.63911
1
1
1
1
1
1
1
1
1
1
1
1
1
1
1
1
1
1
1
1
1
1
1
1
1
1
1
1
1
1
1
1
1
1
1
1
1
1
1
1
1
1.16194
2.39048
2.67637
2.66486
2.65832
2.65126
2.6443
1
1
1
1
1
1
1
1
1
1
1
1
1
1
1
1
1
1
1
1
1
1
1
1
1
1
1
1
1
1
1
1
1
1
1
1
1
1
1
1
1
1.11542
2.36198
2.67747
2.6688
2.66265
2.65604
2.64927
1
1
1
1
1
1
1
1
1
1
1
1
1
1
1
1
1
1
1
1
1
1
1
1
1
1
1
1
1
1
1
1
1
1
1
1
1
1
1
1
1
1.06422
2.33268
2.67759
2.6709
2.66454
2.65828
2.65176
1
1
1
1
1
1
1
1
1
1
1
1
1
1
1
1
1
1
1
1
1
1
1
1
1
1
1
1
1
1
1
1
1
1
1
1
1
1
1
1
1
1.01326
2.3047
2.67589
2.67117
2.66442
2.6585
2.65215
1
1
1
1
1
1
1
1
1
1
1
1
1
1
1
1
1
1
1
1
1
1
1
1
1
1
1
1
1
1
1
1
1
1
1
1
1
1
1
1
1
1.00022
2.2751
2.67348
2.67099
2.66354
2.65806
2.65185
1
1
1
1
1
1
1
1
1
1
1
1
1
1
1
1
1
1
1
1
1
1
1
1
1
1
1
1
1
1
1
1
1
1
1
1
1
1
1
1
1
1
2.24935
2.67123
2.67128
2.66303
2.65778
2.65162
1
1
1
1
1
1
1
1
1
1
1
1
1
1
1
1
1
1
1
1
1
1
1
1
1
1
1
1
1
1
1
1
1
1
1
1
1
1
1
1
1
1
2.22895
2.66955
2.67249
2.66313
2.65786
2.65165
1
1
1
1
1
1
1
1
1
1
1
1
1
1
1
1
1
1
1
1
1
1
1
1
1
1
1
1
1
1
1
1
1
1
1
1
1
1
1
1
1
1
2.21533
2.66881
2.67319
2.66343
2.65806
2.65179
1
1
1
1
1
1
1
1
1
1
1
1
1
1
1
1
1
1
1
1
1
1
1
1
1
1
1
1
1
1
1
1
1
1
1
1
1
1
1
1
1
1
2.20974
2.66835
2.6733
2.66367
2.65831
2.652
1.41574
0.607223
0.565379
0.851112
0.861068
0.842186
0.840147
0.858026
0.935244
1.07683
1.20835
1.31843
1.37326
1.39404
1.40156
1.41195
1.44231
1.51345
1.56131
1.55411
1.53858
1.53877
1.54836
1.58496
1.60038
1.59153
1.5727
1.56383
1.56333
1.57157
1.58673
1.59316
1.8261
2.49086
2.64501
2.63976
2.63393
2.63759
2.65141
2.66495
2.67217
2.67466
2.67681
2.6787
2.68097
2.68257
2.68157
2.67725
2.67155
2.667
2.66499
2.6653
2.66599
2.66414
2.65879
2.6525
2.64755
2.64454
2.64266
2.6402
2.63591
2.62983
2.6232
2.61733
2.61288
2.60949
2.60631
2.60249
2.59767
2.59214
2.58665
2.58159
2.57682
2.57194
2.56673
2.56123
2.5557
2.5503
2.54503
2.53976
2.53445
2.52915
2.52396
2.51885
2.51372
2.50843
2.50295
2.49731
2.49158
2.48581
2.48003
2.47424
2.46837
2.46232
2.45605
2.44964
2.44323
2.43696
2.43094
2.4252
2.41981
2.4148
2.40993
2.40478
2.39896
2.3924
2.38537
2.37833
2.37157
2.36522
2.35925
2.35344
2.34751
2.34136
2.33496
2.3284
2.32177
2.31512
2.30856
2.30196
2.29528
2.28881
2.28279
2.27723
2.27195
2.2667
2.26126
2.25554
2.24965
2.24362
2.23744
2.23119
2.22496
2.21899
2.21363
2.20888
2.20429
2.1991
2.19328
2.18708
2.18049
2.17386
2.16802
2.16297
2.15863
2.15407
2.14905
2.1434
2.13704
2.13043
2.12445
2.11959
2.11591
2.11212
2.1075
2.1017
2.09534
2.08962
2.08503
2.08165
2.0787
2.07466
2.06893
2.06112
2.0527
2.04551
2.04068
2.0383
2.03758
2.03562
2.03233
2.02783
2.02116
2.01227
2.00524
2.02687
2.15778
2.27449
2.33151
2.35275
2.37138
2.37766
2.3804
2.38015
2.37926
2.3799
2.38295
2.38711
2.38897
2.38725
2.3834
2.37979
1.761
1.31578
1.00177
0.996545
1.01923
1.00066
0.95017
0.876566
0.848145
0.882878
0.967103
1.0647
1.12008
1.14943
1.18503
1.22642
1.2717
1.31336
1.35987
1.4094
1.4412
1.46504
1.48238
1.50623
1.52621
1.52749
1.52898
1.53709
1.54977
1.55886
1.57046
1.57328
1.6305
2.33489
2.6247
2.62933
2.62859
2.63251
2.64431
2.65646
2.66369
2.66758
2.66948
2.67121
2.67149
2.67164
2.67163
2.67064
2.66756
2.66326
2.6593
2.65666
2.65541
2.65453
2.6526
2.64883
2.64394
2.6391
2.6347
2.63077
2.62714
2.62335
2.61881
2.61378
2.60874
2.60387
2.59925
2.59498
2.59091
2.58661
2.58198
2.57725
2.57248
2.56756
2.56244
2.55711
2.55167
2.54625
2.54095
2.53585
2.53092
2.52606
2.52115
2.51613
2.51097
2.50568
2.50027
2.49477
2.48921
2.48359
2.47788
2.47205
2.46616
2.46021
2.4542
2.44813
2.44203
2.43598
2.43008
2.42449
2.41928
2.41438
2.40945
2.40399
2.39794
2.39155
2.38501
2.37844
2.37198
2.36576
2.35974
2.35372
2.34758
2.34137
2.33521
2.329
2.32256
2.3157
2.30869
2.30175
2.2951
2.28883
2.28289
2.27738
2.27218
2.26688
2.26127
2.25531
2.24928
2.24319
2.23723
2.23142
2.22567
2.21999
2.21463
2.20944
2.204
2.19833
2.19252
2.18689
2.1815
2.17605
2.17024
2.16429
2.15876
2.15346
2.14804
2.14265
2.1377
2.13326
2.12874
2.12347
2.11775
2.11226
2.10673
2.10146
2.09718
2.09341
2.08926
2.08401
2.07791
2.07134
2.06464
2.05883
2.05468
2.05143
2.04777
2.04402
2.0407
2.03631
2.02978
2.02162
2.01409
2.00774
2.00298
2.0139
2.10126
2.27547
2.35993
2.37319
2.36569
2.3683
2.3732
2.37628
2.37774
2.37833
2.37855
2.37902
2.37954
2.37956
2.37908
2.37885
1.90472
1.67471
1.4216
1.29551
1.23949
1.14875
1.06064
1.04974
1.02822
1.00455
1.01566
1.0361
1.0358
1.03813
1.03538
1.04417
1.07768
1.13315
1.18463
1.24851
1.30647
1.35184
1.37492
1.38986
1.41427
1.44373
1.47032
1.49857
1.5193
1.52444
1.53034
1.53301
1.5441
2.01558
2.55479
2.64327
2.63277
2.6275
2.62224
2.62287
2.62434
2.62798
2.63313
2.63697
2.63738
2.63655
2.63645
2.63733
2.63811
2.63717
2.63365
2.62888
2.62514
2.62346
2.62334
2.62317
2.62085
2.61518
2.60894
2.60358
2.60011
2.59842
2.59691
2.59421
2.58908
2.58279
2.5764
2.57103
2.5674
2.565
2.56242
2.55921
2.55528
2.5507
2.54567
2.54035
2.53492
2.5296
2.52467
2.52033
2.51648
2.5127
2.50857
2.50396
2.49892
2.49361
2.48819
2.48283
2.47754
2.47226
2.46692
2.46154
2.45615
2.45081
2.44548
2.44
2.43429
2.42846
2.42275
2.41746
2.41282
2.4085
2.40385
2.39857
2.39274
2.38681
2.3809
2.37497
2.36908
2.36328
2.3574
2.35137
2.34522
2.33914
2.33326
2.32727
2.32083
2.31421
2.30719
2.29992
2.29323
2.28704
2.28109
2.27567
2.27067
2.26526
2.25958
2.25376
2.24766
2.24147
2.23559
2.23008
2.22477
2.21948
2.214
2.20817
2.20206
2.19612
2.19077
2.18585
2.18103
2.17606
2.1704
2.16385
2.15712
2.15121
2.14629
2.14203
2.1382
2.13437
2.13005
2.12438
2.11677
2.10947
2.10459
2.10069
2.09707
2.09341
2.08876
2.08163
2.07344
2.06762
2.06367
2.06066
2.05873
2.05605
2.05215
2.04559
2.0363
2.02834
2.02205
2.01719
2.01347
2.01161
2.01089
2.01757
2.05338
2.20426
2.37324
2.41161
2.37398
2.35809
2.35794
2.36388
2.36935
2.37114
2.36985
2.3659
2.36443
2.36494
2.3672
2.37124
1.9863
1.81744
1.63903
1.52568
1.43697
1.33237
1.24288
1.21393
1.17397
1.12214
1.12369
1.12127
1.10743
1.08679
1.08064
1.07974
1.08651
1.10188
1.10732
1.1149
1.13418
1.17206
1.22707
1.26755
1.30756
1.35693
1.39342
1.42698
1.45255
1.46036
1.46785
1.48181
1.49823
1.65484
2.37051
2.59842
2.57053
2.56431
2.55996
2.55765
2.55614
2.55673
2.56234
2.56885
2.57253
2.57362
2.57362
2.57496
2.57724
2.57842
2.57785
2.57642
2.57432
2.57217
2.57087
2.5707
2.57031
2.56746
2.56359
2.56068
2.55869
2.5572
2.55556
2.55246
2.54761
2.54208
2.53674
2.53284
2.53098
2.53023
2.52885
2.52584
2.52177
2.51709
2.51229
2.50773
2.50352
2.49972
2.49642
2.4935
2.4905
2.48705
2.48295
2.47829
2.47329
2.46827
2.46359
2.45935
2.45516
2.45062
2.44575
2.44063
2.43534
2.43004
2.42482
2.41956
2.41429
2.40914
2.40434
2.40033
2.39707
2.3936
2.38907
2.38409
2.3787
2.37307
2.36767
2.36266
2.3578
2.35275
2.34734
2.34176
2.33621
2.33065
2.32483
2.31878
2.31252
2.30601
2.29912
2.292
2.2852
2.27906
2.27341
2.26817
2.26285
2.25745
2.25204
2.24646
2.24066
2.23481
2.22917
2.22383
2.21866
2.21344
2.20797
2.20227
2.19644
2.19082
2.18578
2.18116
2.17657
2.17161
2.16592
2.15953
2.15311
2.14745
2.143
2.13925
2.13548
2.13153
2.12715
2.12148
2.11406
2.10663
2.10158
2.09796
2.09434
2.09035
2.08516
2.07785
2.07025
2.06547
2.06215
2.05934
2.05698
2.054
2.04993
2.0424
2.0312
2.02286
2.01844
2.01537
2.01341
2.01364
2.01593
2.02279
2.05452
2.15786
2.34011
2.43094
2.40122
2.36532
2.34937
2.35097
2.356
2.35806
2.35732
2.35335
2.34997
2.35013
2.35247
2.35842
2.04764
1.91237
1.77177
1.66207
1.57947
1.47426
1.39709
1.35949
1.32379
1.27122
1.24477
1.22289
1.19112
1.16293
1.16224
1.15749
1.14411
1.13757
1.14009
1.13847
1.13367
1.12992
1.13491
1.14754
1.17083
1.2211
1.27584
1.3237
1.36504
1.39707
1.42124
1.458
1.4994
1.55564
2.09549
2.49756
2.52675
2.50154
2.48618
2.48013
2.48046
2.4842
2.49236
2.50057
2.5066
2.50842
2.50764
2.50824
2.51271
2.51743
2.52065
2.52214
2.52005
2.51644
2.51542
2.51549
2.51724
2.5186
2.51802
2.51575
2.51244
2.5092
2.50647
2.50438
2.50237
2.49993
2.4975
2.49531
2.49317
2.49097
2.48824
2.48447
2.48052
2.47674
2.47335
2.47059
2.46831
2.46613
2.46373
2.46077
2.45694
2.45272
2.44835
2.44402
2.43992
2.43633
2.43345
2.43056
2.42687
2.42213
2.41664
2.41091
2.40521
2.39991
2.39509
2.3907
2.38657
2.38272
2.37936
2.37652
2.3734
2.36933
2.36481
2.35975
2.3545
2.34966
2.34539
2.34138
2.33723
2.3327
2.32788
2.32306
2.31814
2.31287
2.30718
2.30116
2.29491
2.28851
2.28192
2.27515
2.26873
2.26299
2.25752
2.25208
2.24666
2.24141
2.23628
2.23116
2.22596
2.22061
2.21509
2.20956
2.20429
2.19927
2.1944
2.18957
2.18464
2.17949
2.17424
2.16912
2.1642
2.15925
2.15418
2.1492
2.14446
2.13976
2.13494
2.13026
2.126
2.12189
2.11741
2.11224
2.10662
2.10096
2.09528
2.09007
2.08583
2.08175
2.07689
2.07149
2.06616
2.0611
2.05717
2.05404
2.05109
2.04734
2.04201
2.03479
2.02698
2.02009
2.01482
2.01186
2.01008
2.01114
2.01731
2.04366
2.09373
2.14825
2.25638
2.39473
2.40727
2.38154
2.354
2.3422
2.33948
2.34046
2.3413
2.3403
2.33809
2.33784
2.33973
2.34441
2.09308
1.97741
1.866
1.76499
1.68036
1.59678
1.52502
1.47876
1.43266
1.38261
1.34915
1.32634
1.29059
1.23759
1.22564
1.22323
1.21047
1.19423
1.19449
1.19269
1.17836
1.16257
1.16042
1.16142
1.16154
1.16463
1.17746
1.19813
1.2393
1.29229
1.35526
1.42006
1.50974
1.55025
1.72528
2.3404
2.4977
2.47005
2.44941
2.44633
2.44949
2.45678
2.46319
2.467
2.4678
2.46715
2.46641
2.46938
2.47448
2.47938
2.48234
2.4822
2.47971
2.47791
2.47832
2.47982
2.48236
2.48327
2.48178
2.47843
2.47455
2.47238
2.4713
2.4715
2.47182
2.47061
2.46754
2.46379
2.45989
2.45631
2.45353
2.45107
2.44841
2.44588
2.44353
2.44123
2.43893
2.43657
2.43333
2.42919
2.42478
2.4203
2.41635
2.41297
2.41029
2.40835
2.40622
2.40285
2.39821
2.39292
2.38709
2.3812
2.37586
2.3711
2.36713
2.3636
2.36014
2.35678
2.35342
2.34967
2.34555
2.34103
2.33622
2.33154
2.32743
2.32375
2.32021
2.31636
2.31203
2.30723
2.3025
2.2981
2.29358
2.28872
2.28342
2.27762
2.27135
2.26482
2.25828
2.252
2.24636
2.241
2.23566
2.23027
2.22491
2.21968
2.21471
2.20996
2.20524
2.20029
2.19491
2.18921
2.18374
2.17894
2.17469
2.17063
2.16648
2.16191
2.15669
2.15091
2.14516
2.14015
2.1361
2.1327
2.1294
2.1257
2.12121
2.11588
2.11029
2.10522
2.10077
2.09667
2.09286
2.08894
2.08419
2.07825
2.07179
2.06633
2.06252
2.05953
2.05656
2.05314
2.04878
2.04338
2.03755
2.03192
2.02659
2.02187
2.01821
2.01448
2.01005
2.00523
2.00287
2.00851
2.03341
2.08769
2.13566
2.14473
2.17773
2.29175
2.37965
2.37412
2.35192
2.33036
2.32035
2.31913
2.32126
2.3235
2.32511
2.32603
2.32661
2.32734
2.12965
2.02865
1.93516
1.85052
1.76571
1.68724
1.63092
1.57713
1.52905
1.47965
1.43124
1.39499
1.36855
1.33533
1.30319
1.29495
1.28411
1.26317
1.25153
1.24536
1.23229
1.20615
1.1931
1.18977
1.18501
1.18306
1.188
1.19846
1.20355
1.22265
1.26881
1.33262
1.42563
1.49289
1.52662
2.05819
2.47524
2.48657
2.45693
2.44898
2.45012
2.4572
2.45954
2.45909
2.45638
2.45479
2.45642
2.45914
2.46084
2.46177
2.462
2.46162
2.46124
2.46164
2.46198
2.46179
2.461
2.45981
2.45809
2.45628
2.45487
2.45412
2.45403
2.45371
2.452
2.44892
2.44477
2.44051
2.43678
2.43373
2.43199
2.43064
2.42834
2.42544
2.42227
2.41896
2.41572
2.41288
2.40938
2.40511
2.40064
2.39649
2.39304
2.39035
2.38855
2.38655
2.38308
2.37865
2.37354
2.36808
2.36275
2.35767
2.35305
2.34902
2.34524
2.34127
2.33711
2.33286
2.32852
2.32401
2.31941
2.31486
2.31061
2.30693
2.30366
2.30042
2.29662
2.29213
2.28687
2.28116
2.2762
2.27193
2.2677
2.26326
2.25846
2.25311
2.24695
2.24
2.23315
2.22746
2.2223
2.21726
2.21222
2.20718
2.20202
2.19677
2.19167
2.18687
2.18228
2.17761
2.1726
2.16723
2.16183
2.15688
2.15259
2.14872
2.14491
2.14084
2.13611
2.13041
2.12414
2.11872
2.11502
2.11219
2.10946
2.10647
2.1028
2.09799
2.09197
2.08563
2.0806
2.07717
2.07424
2.07118
2.06751
2.06234
2.05515
2.04877
2.04555
2.04316
2.04104
2.03839
2.03471
2.02887
2.02085
2.01374
2.00883
2.00601
2.00359
2.0013
1.99846
1.99658
2.00146
2.0242
2.07705
2.12739
2.15145
2.144
2.14567
2.18691
2.29349
2.3454
2.33812
2.31807
2.30223
2.29519
2.29667
2.30155
2.3071
2.31003
2.3095
2.30707
2.15522
2.06912
1.9905
1.91282
1.83233
1.7682
1.71095
1.65362
1.59942
1.56086
1.51729
1.46208
1.42629
1.40634
1.3761
1.35399
1.34685
1.3359
1.31466
1.29268
1.2772
1.25511
1.23389
1.22875
1.22388
1.22412
1.23529
1.24688
1.26361
1.29746
1.3351
1.37415
1.39409
1.42352
1.43466
1.56251
2.30318
2.49835
2.47775
2.46807
2.47015
2.47124
2.46851
2.46259
2.45683
2.45576
2.45737
2.45827
2.45733
2.45541
2.45389
2.45391
2.45458
2.45494
2.45392
2.45185
2.44909
2.44686
2.44538
2.44498
2.44486
2.44415
2.44202
2.43909
2.43582
2.43258
2.42922
2.42583
2.42281
2.4204
2.4184
2.4161
2.41306
2.40938
2.40541
2.40156
2.3981
2.39535
2.39215
2.38797
2.38362
2.37957
2.3761
2.37346
2.37127
2.36793
2.36365
2.35873
2.35355
2.3487
2.34405
2.33982
2.33585
2.33153
2.32668
2.3217
2.31665
2.31166
2.3069
2.30244
2.29819
2.29416
2.29047
2.28706
2.28363
2.27973
2.27525
2.26999
2.26397
2.25805
2.25303
2.24861
2.24439
2.24005
2.23545
2.2304
2.22448
2.21753
2.21068
2.20497
2.19984
2.19491
2.19012
2.18541
2.1806
2.17555
2.17031
2.16515
2.16031
2.15573
2.15124
2.14668
2.14192
2.13694
2.13198
2.12744
2.12336
2.11935
2.115
2.11004
2.10454
2.09912
2.09447
2.09085
2.08792
2.08509
2.08191
2.07803
2.07312
2.06719
2.0613
2.057
2.0539
2.05092
2.04759
2.04345
2.03807
2.03205
2.02728
2.0244
2.022
2.01936
2.01595
2.01075
2.00299
1.99551
1.99122
1.9884
1.98589
1.98417
1.98462
1.99143
2.01476
2.0654
2.11659
2.13725
2.14556
2.13889
2.12676
2.12986
2.18317
2.27572
2.30658
2.29955
2.28629
2.27556
2.27229
2.27587
2.28217
2.28655
2.28751
2.28613
2.17651
2.10261
2.034
1.96092
1.88854
1.8318
1.7751
1.72007
1.66734
1.62071
1.57774
1.52879
1.49215
1.47387
1.44989
1.41101
1.39209
1.38719
1.37484
1.34877
1.31989
1.30212
1.28363
1.276
1.27666
1.28874
1.30803
1.32182
1.35168
1.37951
1.3974
1.41733
1.43727
1.45109
1.45254
1.45272
1.70176
2.36908
2.49874
2.49606
2.48949
2.47612
2.46698
2.45938
2.4569
2.45821
2.45944
2.45904
2.45617
2.45234
2.4496
2.44884
2.4487
2.44802
2.44575
2.44324
2.44084
2.43842
2.43681
2.43635
2.43528
2.43222
2.42846
2.4246
2.42125
2.41863
2.4168
2.41482
2.41208
2.4088
2.40506
2.40119
2.39761
2.39413
2.39039
2.38672
2.38344
2.38054
2.37718
2.37306
2.36876
2.36457
2.36085
2.35783
2.35468
2.35051
2.34596
2.34105
2.33631
2.33187
2.32781
2.32402
2.31964
2.31453
2.30906
2.30333
2.29777
2.29273
2.28826
2.28428
2.28065
2.27709
2.2734
2.26938
2.26494
2.2601
2.25489
2.2493
2.24371
2.23863
2.23383
2.22907
2.2242
2.21928
2.21433
2.20916
2.2035
2.19744
2.19144
2.18565
2.18009
2.17487
2.17001
2.16538
2.1608
2.15609
2.15106
2.14575
2.14053
2.13584
2.13176
2.12794
2.12397
2.11948
2.11432
2.10881
2.10368
2.09924
2.09507
2.09089
2.08661
2.08196
2.0768
2.07167
2.06743
2.0641
2.06112
2.05806
2.05464
2.05052
2.04534
2.03959
2.03476
2.03114
2.02783
2.02442
2.02078
2.01655
2.01138
2.00608
2.002
1.9988
1.99537
1.99106
1.98599
1.981
1.97575
1.97021
1.96743
1.96777
1.97589
1.99934
2.05074
2.10063
2.1338
2.13511
2.13472
2.12923
2.11666
2.10266
2.11023
2.17382
2.24531
2.27022
2.27149
2.26355
2.25552
2.25329
2.25521
2.25841
2.26142
2.26301
2.19252
2.12923
2.06712
1.99682
1.93751
1.88424
1.82832
1.77115
1.72563
1.67701
1.63484
1.59161
1.55143
1.52796
1.50825
1.48482
1.45034
1.42443
1.41207
1.39244
1.35986
1.3421
1.33351
1.33003
1.33812
1.36895
1.38667
1.40847
1.44111
1.45159
1.46095
1.47349
1.48298
1.48536
1.48363
1.48385
1.49443
1.81244
2.33571
2.47907
2.48158
2.47042
2.46013
2.45444
2.4547
2.45572
2.45392
2.45026
2.44632
2.44349
2.4425
2.44182
2.43968
2.43574
2.43196
2.42922
2.42761
2.42648
2.42558
2.4237
2.42016
2.41594
2.41147
2.40763
2.40454
2.40314
2.4029
2.40134
2.3975
2.39313
2.38824
2.38381
2.37988
2.37696
2.37439
2.37131
2.36784
2.36407
2.36007
2.35593
2.35176
2.34772
2.34409
2.34071
2.33659
2.33207
2.32746
2.32285
2.31843
2.31434
2.31057
2.30636
2.30149
2.29628
2.29069
2.2849
2.27945
2.27464
2.27046
2.26688
2.26342
2.25974
2.25572
2.25114
2.24586
2.24017
2.23463
2.22968
2.22516