/*--------------------------------*- C++ -*----------------------------------*\
  =========                 |
  \\      /  F ield         | OpenFOAM: The Open Source CFD Toolbox
   \\    /   O peration     | Website:  https://openfoam.org
    \\  /    A nd           | Version:  10
     \\/     M anipulation  |
\*---------------------------------------------------------------------------*/
FoamFile
{
    format      ascii;
    class       volVectorField;
    location    "8.5";
    object      U;
}
// * * * * * * * * * * * * * * * * * * * * * * * * * * * * * * * * * * * * * //

dimensions      [0 1 -1 0 0 0 0];

internalField   nonuniform List<vector> 
16128
(
(3 -3.31772e-15 0)
(3 -2.04411e-14 0)
(3 -3.08008e-14 0)
(3 -5.87354e-14 0)
(3 -6.86993e-14 0)
(3 -3.49756e-14 0)
(3 -1.37587e-14 0)
(3 -1.78104e-14 0)
(3 -4.05443e-14 0)
(3 -1.58925e-14 0)
(3 6.51197e-14 0)
(3 8.29664e-14 0)
(3 6.63531e-14 0)
(3 9.13426e-14 0)
(3 9.95113e-14 0)
(3 6.85196e-14 0)
(3 4.82666e-14 0)
(3 1.46883e-15 0)
(3 -5.79339e-14 0)
(3 -8.69694e-14 0)
(3 -6.90112e-14 0)
(3 -1.55245e-14 0)
(3 6.3186e-14 0)
(3 4.79182e-14 0)
(1.43705 0.00788419 0)
(0.773092 0.00703172 0)
(0.726941 0.0126039 0)
(0.697278 0.0130482 0)
(0.666092 0.0131133 0)
(0.636164 0.0129906 0)
(0.606726 0.0129103 0)
(0.577592 0.0130155 0)
(0.548401 0.0133277 0)
(0.518772 0.013813 0)
(0.488317 0.0143065 0)
(0.457196 0.0145607 0)
(0.426082 0.0146617 0)
(0.395159 0.0149277 0)
(0.363837 0.0153741 0)
(0.331472 0.0158402 0)
(0.297935 0.0162789 0)
(0.263457 0.0168453 0)
(0.228092 0.0175889 0)
(0.191337 0.0185097 0)
(0.152912 0.0192775 0)
(0.112195 0.0206736 0)
(0.0681579 0.0220079 0)
(0.0235541 0.0223735 0)
(3 6.39368e-16 0)
(3 -1.80862e-14 0)
(3 -2.41174e-14 0)
(3 -1.02721e-13 0)
(3 -1.0286e-13 0)
(3 -1.7176e-14 0)
(3 -2.46957e-14 0)
(3 -3.57691e-14 0)
(3 -3.7186e-14 0)
(3 -2.5784e-14 0)
(3 2.89774e-14 0)
(3 4.61785e-14 0)
(3 5.71609e-14 0)
(3 1.08128e-13 0)
(3 1.16889e-13 0)
(3 5.0092e-14 0)
(3 4.25385e-15 0)
(3 -7.13276e-14 0)
(3 -1.49656e-13 0)
(3 -2.18644e-13 0)
(3 -2.16934e-13 0)
(3 -9.65261e-14 0)
(3 6.33871e-14 0)
(3 3.0991e-14 0)
(1.45313 0.0374648 0)
(0.768735 0.0301719 0)
(0.719514 0.0374985 0)
(0.689651 0.0380118 0)
(0.658361 0.0380009 0)
(0.62835 0.0375227 0)
(0.598877 0.0372473 0)
(0.569753 0.0376307 0)
(0.540574 0.0387004 0)
(0.510944 0.0402968 0)
(0.480495 0.0419168 0)
(0.449398 0.0428168 0)
(0.418303 0.0432369 0)
(0.387367 0.0441001 0)
(0.356074 0.0454543 0)
(0.323927 0.0469028 0)
(0.29093 0.0484079 0)
(0.257294 0.050422 0)
(0.222991 0.0528514 0)
(0.1875 0.0556943 0)
(0.150348 0.0581096 0)
(0.110799 0.0627404 0)
(0.0675273 0.0670832 0)
(0.0240015 0.0685577 0)
(3 -2.6445e-15 0)
(3 -1.06809e-14 0)
(3 -3.09756e-15 0)
(3 -1.24201e-14 0)
(3 -2.32112e-14 0)
(3 1.11656e-14 0)
(3 -4.45366e-15 0)
(3 -5.5281e-14 0)
(3 1.24152e-14 0)
(3 1.80991e-14 0)
(3 4.51409e-14 0)
(3 5.11788e-14 0)
(3 5.93445e-14 0)
(3 8.01578e-14 0)
(3 6.71425e-14 0)
(3 -2.15697e-14 0)
(3 -1.16838e-13 0)
(3 -1.4288e-13 0)
(3 -1.64449e-13 0)
(3 -1.80179e-13 0)
(3 -1.70199e-13 0)
(3 -1.14197e-13 0)
(3 -9.3311e-14 0)
(3 -5.30444e-14 0)
(1.50217 0.0660592 0)
(0.773856 0.0535927 0)
(0.721397 0.0636434 0)
(0.690752 0.064597 0)
(0.658546 0.0646424 0)
(0.627607 0.0638285 0)
(0.597275 0.0632357 0)
(0.567422 0.0636854 0)
(0.537642 0.0652961 0)
(0.507543 0.0678506 0)
(0.476748 0.0705318 0)
(0.445303 0.0720359 0)
(0.413703 0.0726352 0)
(0.382048 0.073869 0)
(0.349977 0.0759249 0)
(0.317206 0.0781738 0)
(0.283847 0.080427 0)
(0.250071 0.0833279 0)
(0.215861 0.0867062 0)
(0.180908 0.0909751 0)
(0.144655 0.0949341 0)
(0.106733 0.103244 0)
(0.065085 0.110825 0)
(0.025031 0.11359 0)
(3 -3.30716e-15 0)
(3 1.2614e-14 0)
(3 6.74411e-15 0)
(3 -8.74159e-16 0)
(3 3.53988e-15 0)
(3 1.91949e-14 0)
(3 4.85637e-14 0)
(3 1.90508e-14 0)
(3 -9.31848e-15 0)
(3 4.01545e-14 0)
(3 1.18294e-13 0)
(3 1.26379e-13 0)
(3 8.79889e-14 0)
(3 2.71294e-14 0)
(3 2.37118e-14 0)
(3 7.00409e-14 0)
(3 -4.66539e-14 0)
(3 -8.30604e-14 0)
(3 -9.49586e-14 0)
(3 -1.41664e-13 0)
(3 -1.11659e-13 0)
(3 -1.08116e-13 0)
(3 -1.15195e-13 0)
(3 -6.14805e-14 0)
(1.57694 0.0921899 0)
(0.780604 0.0775379 0)
(0.724197 0.0895311 0)
(0.693895 0.0908942 0)
(0.661844 0.0911269 0)
(0.630918 0.0901293 0)
(0.600501 0.0892856 0)
(0.570562 0.0897947 0)
(0.540732 0.0919456 0)
(0.510634 0.0955158 0)
(0.479853 0.0994023 0)
(0.448259 0.101737 0)
(0.416205 0.102764 0)
(0.383765 0.104641 0)
(0.350713 0.107704 0)
(0.316912 0.11101 0)
(0.282507 0.114051 0)
(0.247636 0.117595 0)
(0.212303 0.121322 0)
(0.176513 0.126403 0)
(0.139693 0.131243 0)
(0.102648 0.143082 0)
(0.0619981 0.153381 0)
(0.0263294 0.156619 0)
(3 4.38725e-15 0)
(3 9.38396e-15 0)
(3 -1.79896e-14 0)
(3 -1.93819e-14 0)
(3 5.70275e-14 0)
(3 6.909e-14 0)
(3 4.43141e-14 0)
(3 2.92347e-14 0)
(3 2.16256e-14 0)
(3 5.24697e-14 0)
(3 2.86519e-14 0)
(3 1.34146e-14 0)
(3 3.89003e-14 0)
(3 2.43946e-14 0)
(3 3.06397e-14 0)
(3 6.26953e-14 0)
(3 4.0393e-14 0)
(3 -1.85599e-15 0)
(3 -2.5232e-14 0)
(3 -7.50149e-14 0)
(3 -1.17436e-13 0)
(3 -1.21413e-13 0)
(3 -1.08358e-13 0)
(3 -7.83569e-14 0)
(1.68004 0.11814 0)
(0.789534 0.102893 0)
(0.7258 0.115447 0)
(0.695521 0.117168 0)
(0.663444 0.117718 0)
(0.63242 0.116684 0)
(0.601845 0.11558 0)
(0.571841 0.115972 0)
(0.542166 0.11844 0)
(0.512491 0.12287 0)
(0.482335 0.127954 0)
(0.451329 0.131265 0)
(0.419698 0.132866 0)
(0.387504 0.135486 0)
(0.354581 0.13969 0)
(0.320789 0.144271 0)
(0.286199 0.148348 0)
(0.250846 0.152776 0)
(0.214607 0.156935 0)
(0.177752 0.162935 0)
(0.139682 0.16834 0)
(0.102654 0.183151 0)
(0.061796 0.195798 0)
(0.0238587 0.197498 0)
(3 2.38377e-15 0)
(3 -2.68794e-14 0)
(3 -1.5911e-14 0)
(3 8.98672e-15 0)
(3 3.65315e-15 0)
(3 2.26195e-15 0)
(3 -1.86937e-14 0)
(3 4.7016e-15 0)
(3 8.13223e-14 0)
(3 1.53396e-13 0)
(3 1.05969e-13 0)
(3 1.1328e-13 0)
(3 9.57574e-14 0)
(3 5.17986e-14 0)
(3 4.96399e-14 0)
(3 5.49695e-14 0)
(3 8.77988e-14 0)
(3 6.14764e-14 0)
(3 -1.26025e-14 0)
(3 -2.88429e-14 0)
(3 -9.73152e-14 0)
(3 -8.96942e-14 0)
(3 -5.3739e-14 0)
(3 -2.85017e-14 0)
(1.8193 0.142031 0)
(0.804144 0.130141 0)
(0.728822 0.141941 0)
(0.698454 0.14354 0)
(0.666426 0.144468 0)
(0.635383 0.143632 0)
(0.604593 0.142416 0)
(0.5743 0.142617 0)
(0.544441 0.145174 0)
(0.51481 0.15025 0)
(0.484915 0.156496 0)
(0.45413 0.160956 0)
(0.422572 0.163307 0)
(0.390363 0.166733 0)
(0.357377 0.17211 0)
(0.323439 0.178078 0)
(0.288539 0.183377 0)
(0.252716 0.188953 0)
(0.215733 0.193688 0)
(0.17817 0.200709 0)
(0.139199 0.206196 0)
(0.102233 0.223382 0)
(0.062103 0.238624 0)
(0.0229617 0.238819 0)
(3 9.66942e-15 0)
(3 3.49215e-14 0)
(3 5.61708e-14 0)
(3 3.79404e-14 0)
(3 -1.06931e-14 0)
(3 -1.21683e-14 0)
(3 -1.6697e-14 0)
(3 4.03819e-14 0)
(3 8.45805e-14 0)
(3 1.04796e-13 0)
(3 4.27308e-14 0)
(3 9.16381e-15 0)
(3 5.23989e-16 0)
(3 -4.78485e-14 0)
(3 -1.77512e-14 0)
(3 4.43577e-14 0)
(3 6.723e-14 0)
(3 1.82988e-14 0)
(3 -8.15069e-14 0)
(3 -5.53142e-14 0)
(3 -4.64694e-14 0)
(3 -4.22072e-14 0)
(3 -1.39944e-14 0)
(3 2.75955e-14 0)
(1.99304 0.16076 0)
(0.824945 0.159532 0)
(0.73335 0.168142 0)
(0.703948 0.169072 0)
(0.673025 0.170307 0)
(0.64302 0.169897 0)
(0.612857 0.168832 0)
(0.5829 0.168905 0)
(0.553321 0.171379 0)
(0.524098 0.176836 0)
(0.494745 0.184135 0)
(0.464318 0.189949 0)
(0.432801 0.193337 0)
(0.400449 0.197747 0)
(0.367178 0.204422 0)
(0.332765 0.21197 0)
(0.297138 0.218768 0)
(0.260429 0.225928 0)
(0.222096 0.231729 0)
(0.182821 0.240385 0)
(0.14121 0.246038 0)
(0.102441 0.264945 0)
(0.062339 0.279298 0)
(0.0338356 0.280623 0)
(3 -2.63456e-15 0)
(3 -1.74921e-16 0)
(3 1.99567e-14 0)
(3 4.39418e-14 0)
(3 8.80287e-14 0)
(3 4.93105e-14 0)
(3 3.34194e-14 0)
(3 4.17964e-14 0)
(3 5.38964e-14 0)
(3 -4.50199e-15 0)
(3 -8.62351e-14 0)
(3 -1.07273e-13 0)
(3 -8.93982e-14 0)
(3 -9.56411e-14 0)
(3 -2.51495e-14 0)
(3 5.1263e-14 0)
(3 3.86754e-14 0)
(3 5.17308e-14 0)
(3 3.02062e-14 0)
(3 7.31642e-15 0)
(3 7.31407e-15 0)
(3 -3.23324e-14 0)
(3 4.16765e-16 0)
(3 -3.78285e-14 0)
(2.19731 0.174542 0)
(0.848894 0.194439 0)
(0.731718 0.194272 0)
(0.702694 0.194575 0)
(0.672279 0.196015 0)
(0.643024 0.196423 0)
(0.613276 0.195861 0)
(0.583557 0.195928 0)
(0.554311 0.198136 0)
(0.525798 0.203662 0)
(0.497716 0.211878 0)
(0.468754 0.219187 0)
(0.438543 0.223824 0)
(0.407391 0.229319 0)
(0.375127 0.237345 0)
(0.341316 0.24663 0)
(0.305689 0.255182 0)
(0.268634 0.264348 0)
(0.229472 0.271663 0)
(0.189435 0.282624 0)
(0.146007 0.288963 0)
(0.105683 0.309239 0)
(0.0625974 0.31999 0)
(0.0415323 0.324374 0)
(3 -2.94557e-14 0)
(3 -5.23539e-14 0)
(3 -4.47037e-14 0)
(3 -4.43635e-15 0)
(3 1.79168e-14 0)
(3 2.5829e-14 0)
(3 6.4882e-14 0)
(3 4.70361e-14 0)
(3 6.75915e-14 0)
(3 -4.50235e-14 0)
(3 -9.59205e-14 0)
(3 -7.44413e-14 0)
(3 -9.51371e-14 0)
(3 -6.46573e-14 0)
(3 -5.02737e-14 0)
(3 -2.85486e-14 0)
(3 -3.99711e-14 0)
(3 -1.62745e-14 0)
(3 8.54671e-14 0)
(3 5.56387e-14 0)
(3 3.10152e-14 0)
(3 5.55413e-14 0)
(3 8.35758e-14 0)
(3 3.67991e-14 0)
(2.4362 0.185048 0)
(0.889282 0.236826 0)
(0.741043 0.221284 0)
(0.714936 0.221477 0)
(0.684228 0.22296 0)
(0.65459 0.224208 0)
(0.623626 0.224311 0)
(0.592409 0.224273 0)
(0.561694 0.225728 0)
(0.532064 0.230483 0)
(0.503649 0.238809 0)
(0.475067 0.247276 0)
(0.445465 0.253173 0)
(0.415204 0.259826 0)
(0.384084 0.269355 0)
(0.351421 0.280747 0)
(0.316501 0.291548 0)
(0.279894 0.303275 0)
(0.240496 0.312457 0)
(0.200258 0.325891 0)
(0.155601 0.333315 0)
(0.114083 0.355351 0)
(0.0678885 0.364066 0)
(0.0455369 0.370218 0)
(3 5.03628e-15 0)
(3 3.96535e-15 0)
(3 -1.12011e-14 0)
(3 -3.82534e-14 0)
(3 -4.17992e-14 0)
(3 -8.395e-15 0)
(3 1.39406e-14 0)
(3 -3.36013e-14 0)
(3 -5.82777e-14 0)
(3 -4.84018e-14 0)
(3 -5.35614e-14 0)
(3 -7.11293e-14 0)
(3 -7.40215e-14 0)
(3 -6.95042e-14 0)
(3 -8.00319e-14 0)
(3 -8.90941e-14 0)
(3 -8.89056e-14 0)
(3 -6.68209e-14 0)
(3 2.55869e-14 0)
(3 1.10425e-13 0)
(3 7.06521e-14 0)
(3 1.75753e-13 0)
(3 1.29133e-13 0)
(3 8.04094e-14 0)
(2.70081 0.182305 0)
(0.961806 0.275776 0)
(0.773128 0.235673 0)
(0.748981 0.242657 0)
(0.715745 0.247054 0)
(0.683929 0.251029 0)
(0.649909 0.253093 0)
(0.61516 0.253998 0)
(0.580761 0.255352 0)
(0.547732 0.259254 0)
(0.51667 0.267139 0)
(0.486497 0.276247 0)
(0.455911 0.283025 0)
(0.425265 0.290391 0)
(0.394504 0.301023 0)
(0.36286 0.314459 0)
(0.32882 0.32776 0)
(0.292902 0.342648 0)
(0.253117 0.354455 0)
(0.212378 0.370955 0)
(0.166009 0.380505 0)
(0.122111 0.404865 0)
(0.0722025 0.413081 0)
(0.0474564 0.420583 0)
(3 1.76614e-14 0)
(3 2.50381e-14 0)
(3 1.60838e-14 0)
(3 1.52045e-14 0)
(3 2.83329e-14 0)
(3 -9.5897e-15 0)
(3 -5.52351e-14 0)
(3 -6.93927e-14 0)
(3 -1.11045e-13 0)
(3 -6.61452e-14 0)
(3 -5.32933e-14 0)
(3 -7.73561e-14 0)
(3 -8.13726e-14 0)
(3 -6.41953e-14 0)
(3 -5.13315e-14 0)
(3 -6.52618e-14 0)
(3 -4.11401e-14 0)
(3 -2.26497e-14 0)
(3 2.25353e-15 0)
(3 2.54565e-14 0)
(3 4.18143e-14 0)
(3 1.54346e-13 0)
(3 2.23583e-13 0)
(3 1.7636e-13 0)
(2.94961 0.0819191 0)
(1.05652 0.29217 0)
(0.802713 0.251126 0)
(0.78718 0.263707 0)
(0.753459 0.271902 0)
(0.720349 0.279157 0)
(0.684255 0.284298 0)
(0.647118 0.28682 0)
(0.609806 0.288217 0)
(0.573282 0.291073 0)
(0.538691 0.297938 0)
(0.505715 0.307148 0)
(0.472884 0.314419 0)
(0.440495 0.321972 0)
(0.408752 0.333007 0)
(0.377232 0.348119 0)
(0.343651 0.363921 0)
(0.308717 0.382321 0)
(0.269267 0.397239 0)
(0.228987 0.417025 0)
(0.181585 0.42994 0)
(0.135017 0.458043 0)
(0.0804372 0.467361 0)
(0.0529809 0.475893 0)
(3 -1.40904e-15 0)
(3 1.99569e-14 0)
(3 1.32083e-14 0)
(3 5.71098e-15 0)
(3 2.49291e-14 0)
(3 1.7226e-14 0)
(3 -2.40451e-14 0)
(3 -1.22588e-15 0)
(3 -4.34323e-14 0)
(3 -5.05293e-14 0)
(3 -6.73568e-14 0)
(3 -4.24122e-14 0)
(3 -2.78963e-14 0)
(3 -5.76345e-15 0)
(3 -3.29169e-14 0)
(3 -1.39581e-14 0)
(3 5.13636e-14 0)
(3 7.21995e-14 0)
(3 9.45107e-14 0)
(3 9.65438e-14 0)
(3 2.85959e-14 0)
(3 -3.13381e-15 0)
(3 7.43195e-14 0)
(3 1.02093e-13 0)
(3.01835 0.00758759 0)
(1.14753 0.288682 0)
(0.805798 0.266991 0)
(0.79604 0.291839 0)
(0.769307 0.302532 0)
(0.742329 0.309532 0)
(0.712095 0.314903 0)
(0.678507 0.319253 0)
(0.642323 0.322738 0)
(0.605108 0.325908 0)
(0.568419 0.331913 0)
(0.532909 0.340899 0)
(0.497508 0.34841 0)
(0.462579 0.355802 0)
(0.428669 0.366472 0)
(0.39628 0.382587 0)
(0.362603 0.400292 0)
(0.328465 0.422015 0)
(0.288768 0.440989 0)
(0.247306 0.465673 0)
(0.19664 0.484406 0)
(0.147114 0.518398 0)
(0.0863384 0.529805 0)
(0.0555909 0.539161 0)
(3 9.52692e-15 0)
(3 2.41091e-15 0)
(3 1.62171e-14 0)
(3 8.72121e-15 0)
(3 1.865e-14 0)
(3 3.68594e-14 0)
(3 -1.04439e-14 0)
(3 -9.77029e-15 0)
(3 -1.44389e-14 0)
(3 -1.62928e-14 0)
(3 -1.41689e-14 0)
(3 -2.13234e-14 0)
(3 -1.49054e-14 0)
(3 1.37792e-14 0)
(3 1.65189e-14 0)
(3 2.23717e-14 0)
(3 3.22781e-14 0)
(3 8.4923e-14 0)
(3 1.79028e-13 0)
(3 1.78866e-13 0)
(3 1.25583e-13 0)
(3 -1.56069e-14 0)
(3 -4.52727e-14 0)
(3 -4.69181e-14 0)
(3.00065 1.98515e-05 0)
(1.27794 0.305838 0)
(0.796773 0.275314 0)
(0.780293 0.307271 0)
(0.759152 0.326111 0)
(0.737847 0.335687 0)
(0.717231 0.342973 0)
(0.695016 0.34883 0)
(0.668241 0.354094 0)
(0.636336 0.359385 0)
(0.601682 0.366552 0)
(0.566143 0.376401 0)
(0.529426 0.384837 0)
(0.492229 0.392513 0)
(0.455604 0.402336 0)
(0.421372 0.418628 0)
(0.38652 0.43776 0)
(0.352319 0.462898 0)
(0.312943 0.486904 0)
(0.272147 0.517242 0)
(0.221924 0.541995 0)
(0.172326 0.582983 0)
(0.104187 0.599264 0)
(0.0700535 0.612379 0)
(3 4.05104e-15 0)
(3 -2.99634e-16 0)
(3 1.56462e-14 0)
(3 4.18666e-14 0)
(3 1.37791e-14 0)
(3 9.30448e-17 0)
(3 1.38632e-14 0)
(3 2.93209e-14 0)
(3 3.98467e-14 0)
(3 5.86261e-14 0)
(3 7.06946e-14 0)
(3 5.40201e-14 0)
(3 1.39269e-14 0)
(3 1.84702e-15 0)
(3 4.51344e-14 0)
(3 3.38601e-14 0)
(3 7.95472e-14 0)
(3 1.02471e-13 0)
(3 9.56601e-14 0)
(3 5.44995e-14 0)
(3 4.53076e-14 0)
(3 1.99546e-14 0)
(3 1.22728e-14 0)
(3 1.13422e-14 0)
(3 -7.5007e-08 0)
(1.49599 0.335265 0)
(0.808073 0.306919 0)
(0.752638 0.316838 0)
(0.736766 0.332342 0)
(0.720592 0.344255 0)
(0.706343 0.35611 0)
(0.691088 0.367886 0)
(0.674458 0.379316 0)
(0.653453 0.388863 0)
(0.6274 0.398999 0)
(0.59739 0.411337 0)
(0.563523 0.422289 0)
(0.526922 0.431621 0)
(0.489007 0.440876 0)
(0.452755 0.457159 0)
(0.416731 0.476887 0)
(0.382901 0.504541 0)
(0.344631 0.532934 0)
(0.305113 0.569581 0)
(0.252027 0.605092 0)
(0.196726 0.660694 0)
(0.116582 0.688327 0)
(0.0717901 0.708928 0)
(3 -3.65388e-15 0)
(3 2.95971e-15 0)
(3 -1.44126e-14 0)
(3 1.0385e-15 0)
(3 5.82276e-15 0)
(3 -8.54461e-15 0)
(3 5.60357e-14 0)
(3 3.6036e-14 0)
(3 2.82176e-14 0)
(3 6.59867e-14 0)
(3 1.47113e-13 0)
(3 1.38965e-13 0)
(3 1.04218e-13 0)
(3 8.2043e-14 0)
(3 7.25011e-14 0)
(3 9.27232e-14 0)
(3 1.07389e-13 0)
(3 1.24881e-13 0)
(3 3.39343e-14 0)
(3 5.09052e-14 0)
(3 4.26902e-14 0)
(3 6.35842e-14 0)
(3 1.58345e-14 0)
(3 6.26931e-14 0)
(3 -8.62781e-08 0)
(1.82787 0.373393 0)
(0.835999 0.366522 0)
(0.744487 0.3459 0)
(0.725984 0.349543 0)
(0.71165 0.357992 0)
(0.697951 0.36771 0)
(0.684422 0.379208 0)
(0.671061 0.393145 0)
(0.656528 0.408486 0)
(0.639315 0.424347 0)
(0.618462 0.44141 0)
(0.592271 0.457123 0)
(0.560966 0.470473 0)
(0.525076 0.481357 0)
(0.489479 0.498117 0)
(0.453052 0.517877 0)
(0.419325 0.547395 0)
(0.382249 0.580844 0)
(0.345206 0.626431 0)
(0.296281 0.67477 0)
(0.250105 0.744044 0)
(0.167401 0.78908 0)
(0.111096 0.8233 0)
(3 -6.87709e-16 0)
(3 -2.23632e-14 0)
(3 -4.79346e-14 0)
(3 -5.41626e-14 0)
(3 -6.28422e-14 0)
(3 -5.22386e-14 0)
(3 -2.57125e-14 0)
(3 3.4188e-14 0)
(3 1.77523e-14 0)
(3 2.93694e-14 0)
(3 6.01504e-14 0)
(3 9.47957e-14 0)
(3 9.59147e-14 0)
(3 9.7654e-14 0)
(3 8.98722e-14 0)
(3 1.25512e-13 0)
(3 1.05991e-13 0)
(3 7.01065e-14 0)
(3 7.81613e-14 0)
(3 7.80621e-14 0)
(3 6.50338e-14 0)
(3 1.20447e-14 0)
(3 -9.9817e-15 0)
(3 -8.49353e-15 0)
(3 -1.79452e-08 0)
(2.30994 0.375321 0)
(0.907751 0.436428 0)
(0.783742 0.374998 0)
(0.752169 0.373053 0)
(0.725835 0.377282 0)
(0.704952 0.385568 0)
(0.68758 0.396007 0)
(0.672486 0.408682 0)
(0.658889 0.424151 0)
(0.644788 0.442247 0)
(0.631015 0.463477 0)
(0.61363 0.484986 0)
(0.590555 0.504331 0)
(0.561198 0.519809 0)
(0.529642 0.538946 0)
(0.494885 0.559625 0)
(0.462954 0.591063 0)
(0.428857 0.628421 0)
(0.399783 0.680045 0)
(0.357052 0.737179 0)
(0.315887 0.835464 0)
(0.206967 0.945355 0)
(0.162214 1.03934 0)
(3 -5.66662e-15 0)
(3 -9.99095e-15 0)
(3 1.80119e-14 0)
(3 2.73095e-14 0)
(3 -2.97649e-14 0)
(3 -6.31336e-14 0)
(3 -5.39027e-14 0)
(3 -3.72681e-14 0)
(3 1.26473e-14 0)
(3 -6.76655e-15 0)
(3 -5.15269e-14 0)
(3 -1.8632e-14 0)
(3 -3.30209e-14 0)
(3 -1.43424e-15 0)
(3 6.67968e-14 0)
(3 9.55782e-14 0)
(3 1.05249e-13 0)
(3 1.06998e-13 0)
(3 5.87406e-14 0)
(3 -7.74439e-15 0)
(3 2.92995e-14 0)
(3 5.87035e-15 0)
(3 1.62597e-14 0)
(3 5.99708e-14 0)
(3 -1.79896e-09 0)
(2.90292 0.195133 0)
(1.07257 0.46487 0)
(0.86002 0.398825 0)
(0.822611 0.394314 0)
(0.776608 0.399955 0)
(0.73918 0.406444 0)
(0.710328 0.414937 0)
(0.687574 0.426378 0)
(0.66973 0.441213 0)
(0.654524 0.459046 0)
(0.641808 0.481058 0)
(0.630048 0.506205 0)
(0.614712 0.531584 0)
(0.594068 0.553731 0)
(0.569456 0.577695 0)
(0.539908 0.601077 0)
(0.512743 0.634607 0)
(0.482892 0.673447 0)
(0.462235 0.731217 0)
(0.427178 0.810056 0)
(0.410456 0.944924 0)
(0.395058 1.09579 0)
(0.541076 1.3402 0)
(3 -1.33997e-14 0)
(3 4.22941e-15 0)
(3 7.88456e-14 0)
(3 6.97472e-14 0)
(3 4.54868e-14 0)
(3 2.96451e-14 0)
(3 -3.7739e-15 0)
(3 -4.18204e-14 0)
(3 -4.52409e-14 0)
(3 -7.27239e-14 0)
(3 -9.74696e-14 0)
(3 -1.01353e-13 0)
(3 -5.27454e-14 0)
(3 -3.26912e-14 0)
(3 3.79871e-14 0)
(3 5.03268e-14 0)
(3 4.40034e-14 0)
(3 3.67398e-14 0)
(3 -7.21453e-15 0)
(3 -3.89487e-14 0)
(3 -3.49754e-14 0)
(3 3.99823e-14 0)
(3 5.1351e-14 0)
(3 7.89799e-14 0)
(3 -6.97754e-11 0)
(3.04814 0.0123183 0)
(1.26724 0.429094 0)
(0.884697 0.429514 0)
(0.858023 0.446595 0)
(0.821956 0.444525 0)
(0.783042 0.44237 0)
(0.746963 0.44452 0)
(0.716051 0.450149 0)
(0.691465 0.460958 0)
(0.67257 0.476418 0)
(0.657778 0.49714 0)
(0.64699 0.52307 0)
(0.637417 0.552117 0)
(0.624392 0.580284 0)
(0.608798 0.610146 0)
(0.586875 0.638178 0)
(0.567387 0.674756 0)
(0.544298 0.715542 0)
(0.532869 0.7778 0)
(0.523758 0.869295 0)
(0.538246 1.00919 0)
(0.625159 1.15936 0)
(0.936393 1.3536 0)
(3 -2.0659e-14 0)
(3 -2.00977e-14 0)
(3 -1.5508e-14 0)
(3 -6.21644e-14 0)
(3 -5.66216e-14 0)
(3 1.0071e-15 0)
(3 3.09055e-14 0)
(3 2.74626e-14 0)
(3 1.19913e-14 0)
(3 -1.59929e-14 0)
(3 -2.44123e-14 0)
(3 -3.02519e-14 0)
(3 -7.85633e-15 0)
(3 2.48545e-14 0)
(3 3.53054e-14 0)
(3 4.85865e-14 0)
(3 -3.56849e-14 0)
(3 -1.29734e-13 0)
(3 -8.10846e-14 0)
(3 -5.47322e-14 0)
(3 -4.73944e-14 0)
(3 -1.17863e-14 0)
(3 -1.10124e-14 0)
(3 -8.85437e-15 0)
(3 -1.53752e-12 0)
(3.00184 -7.64065e-06 0)
(1.48975 0.424732 0)
(0.866635 0.459143 0)
(0.845072 0.470613 0)
(0.823381 0.474159 0)
(0.801101 0.475623 0)
(0.774976 0.478172 0)
(0.74626 0.481312 0)
(0.719501 0.487632 0)
(0.696676 0.498583 0)
(0.67929 0.515836 0)
(0.666728 0.539661 0)
(0.659952 0.569503 0)
(0.651808 0.601567 0)
(0.645465 0.636465 0)
(0.632866 0.670138 0)
(0.623411 0.710381 0)
(0.610734 0.753783 0)
(0.610112 0.815936 0)
(0.625231 0.905575 0)
(0.673527 1.02763 0)
(0.824447 1.1647 0)
(1.1428 1.28822 0)
(3 1.21486e-14 0)
(3 1.14521e-15 0)
(3 -3.78449e-14 0)
(3 -4.73279e-14 0)
(3 -6.12272e-14 0)
(3 -2.14774e-14 0)
(3 1.09571e-15 0)
(3 3.94694e-14 0)
(3 6.04375e-14 0)
(3 2.11662e-14 0)
(3 -2.17668e-15 0)
(3 -8.76969e-16 0)
(3 1.23191e-14 0)
(3 -1.56416e-14 0)
(3 -9.51792e-14 0)
(3 -7.83725e-14 0)
(3 -3.87456e-14 0)
(3 -3.61539e-14 0)
(3 -1.67705e-14 0)
(3 1.30325e-14 0)
(3 6.10774e-14 0)
(3 4.38145e-14 0)
(3 3.01784e-15 0)
(3 -2.36291e-14 0)
(3 -7.28169e-14 0)
(3 -2.19515e-07 0)
(1.9261 0.451608 0)
(0.894289 0.491241 0)
(0.831667 0.477397 0)
(0.826076 0.48791 0)
(0.812529 0.496039 0)
(0.795846 0.503452 0)
(0.774423 0.50888 0)
(0.751283 0.515099 0)
(0.727938 0.522759 0)
(0.708761 0.536387 0)
(0.692809 0.556352 0)
(0.686066 0.584278 0)
(0.680269 0.617174 0)
(0.680473 0.654962 0)
(0.677126 0.693928 0)
(0.678619 0.737544 0)
(0.678614 0.783743 0)
(0.690479 0.842842 0)
(0.720972 0.924619 0)
(0.797937 1.02906 0)
(0.970488 1.13904 0)
(1.24337 1.21397 0)
(3 1.87402e-14 0)
(3 5.32301e-14 0)
(3 4.16903e-14 0)
(3 6.12824e-14 0)
(3 6.88795e-14 0)
(3 5.22543e-14 0)
(3 5.40074e-14 0)
(3 7.52942e-14 0)
(3 6.023e-14 0)
(3 6.35472e-14 0)
(3 2.1806e-14 0)
(3 -7.71282e-15 0)
(3 -3.46821e-14 0)
(3 2.9162e-14 0)
(3 3.6004e-15 0)
(3 1.37992e-14 0)
(3 3.70617e-14 0)
(3 4.02432e-14 0)
(3 2.62256e-14 0)
(3 -9.82658e-15 0)
(3 -2.60313e-14 0)
(3 -7.95086e-15 0)
(3 -4.2787e-14 0)
(3 -9.16247e-14 0)
(3 2.0629e-14 0)
(3 -2.80692e-07 0)
(2.60062 0.360426 0)
(1.01262 0.546188 0)
(0.873521 0.484915 0)
(0.85528 0.494498 0)
(0.837863 0.509064 0)
(0.821356 0.522137 0)
(0.802525 0.532418 0)
(0.783352 0.542183 0)
(0.762163 0.550174 0)
(0.742888 0.562134 0)
(0.725133 0.577359 0)
(0.716065 0.601569 0)
(0.711118 0.632168 0)
(0.714655 0.669392 0)
(0.718701 0.710955 0)
(0.730006 0.757006 0)
(0.743258 0.805664 0)
(0.76781 0.861066 0)
(0.81058 0.931912 0)
(0.903247 1.01835 0)
(1.06949 1.09715 0)
(1.29947 1.14585 0)
(3 7.44576e-15 0)
(3 1.62893e-14 0)
(3 1.65692e-14 0)
(3 -1.25829e-15 0)
(3 4.45162e-14 0)
(3 4.67804e-14 0)
(3 5.84499e-14 0)
(3 4.47376e-14 0)
(3 5.18667e-14 0)
(3 7.87179e-14 0)
(3 7.10037e-14 0)
(3 1.69848e-14 0)
(3 1.55969e-14 0)
(3 4.84312e-14 0)
(3 4.18912e-14 0)
(3 2.24829e-14 0)
(3 -2.57651e-14 0)
(3 -8.80695e-14 0)
(3 -1.1102e-13 0)
(3 -9.23772e-14 0)
(3 -7.28311e-14 0)
(3 -6.34765e-14 0)
(3 -5.88089e-14 0)
(3 -8.0234e-14 0)
(3 7.12522e-15 0)
(3 -5.92291e-08 0)
(3.08223 0.0498419 0)
(1.26562 0.52514 0)
(0.929451 0.513373 0)
(0.897122 0.523038 0)
(0.872735 0.531257 0)
(0.852239 0.540907 0)
(0.834002 0.551342 0)
(0.817665 0.5632 0)
(0.799332 0.573253 0)
(0.781797 0.586192 0)
(0.764206 0.598769 0)
(0.752377 0.619109 0)
(0.74656 0.646071 0)
(0.750389 0.680356 0)
(0.758761 0.720897 0)
(0.776638 0.767026 0)
(0.800983 0.817017 0)
(0.836703 0.870164 0)
(0.890912 0.930589 0)
(0.987794 0.998762 0)
(1.1358 1.05316 0)
(1.32656 1.08153 0)
(3 6.88088e-15 0)
(3 9.84978e-15 0)
(3 -2.21007e-14 0)
(3 -4.63636e-14 0)
(3 -5.58142e-14 0)
(3 -5.24175e-14 0)
(3 -6.7397e-14 0)
(3 -4.84048e-14 0)
(3 -4.63962e-14 0)
(3 -5.46029e-14 0)
(3 -3.48092e-14 0)
(3 2.03916e-14 0)
(3 4.06287e-14 0)
(3 4.79701e-14 0)
(3 3.93695e-14 0)
(3 -3.25303e-14 0)
(3 -8.64606e-14 0)
(3 -1.16909e-13 0)
(3 -1.07645e-13 0)
(3 -7.38309e-14 0)
(3 -1.44231e-14 0)
(3 7.18338e-15 0)
(3 1.91482e-14 0)
(3 2.53135e-14 0)
(3 4.68966e-14 0)
(3 -6.02943e-09 0)
(3.00967 0.000137432 0)
(1.49188 0.507062 0)
(0.919483 0.570838 0)
(0.892753 0.555978 0)
(0.876767 0.557658 0)
(0.862484 0.564551 0)
(0.849665 0.574413 0)
(0.838789 0.586973 0)
(0.826394 0.598539 0)
(0.814614 0.612602 0)
(0.801347 0.624776 0)
(0.790798 0.641556 0)
(0.784929 0.663683 0)
(0.788243 0.693252 0)
(0.798894 0.729586 0)
(0.820049 0.772044 0)
(0.851083 0.819858 0)
(0.895352 0.871043 0)
(0.958887 0.924658 0)
(1.05636 0.978252 0)
(1.18384 1.01614 0)
(1.34374 1.03285 0)
(3 1.05767e-14 0)
(3 -7.00996e-15 0)
(3 -2.90728e-14 0)
(3 -2.83177e-14 0)
(3 -2.22802e-14 0)
(3 -9.79911e-15 0)
(3 -2.05909e-14 0)
(3 -3.2002e-14 0)
(3 -6.45369e-14 0)
(3 -8.43291e-14 0)
(3 -6.45696e-14 0)
(3 5.06861e-14 0)
(3 3.69731e-14 0)
(3 2.44176e-14 0)
(3 -6.52511e-15 0)
(3 -2.82307e-14 0)
(3 -2.59981e-14 0)
(3 3.20515e-14 0)
(3 1.5127e-14 0)
(3 -1.9117e-14 0)
(3 7.95977e-15 0)
(3 4.35119e-14 0)
(3 2.23034e-14 0)
(3 9.3654e-15 0)
(3 2.58742e-14 0)
(3 -1.90813e-10 0)
(3.00007 -2.63329e-06 0)
(2.05382 0.511956 0)
(0.966028 0.603058 0)
(0.904286 0.567887 0)
(0.893821 0.572829 0)
(0.882069 0.580125 0)
(0.871282 0.589242 0)
(0.862657 0.601955 0)
(0.853741 0.614944 0)
(0.846623 0.630602 0)
(0.838358 0.644878 0)
(0.831241 0.661277 0)
(0.826598 0.680161 0)
(0.82909 0.705438 0)
(0.840256 0.737059 0)
(0.862187 0.77433 0)
(0.895459 0.816979 0)
(0.943512 0.863419 0)
(1.01136 0.911694 0)
(1.10685 0.955173 0)
(1.21806 0.982938 0)
(1.35635 0.993903 0)
(3 -6.98927e-15 0)
(3 -2.62653e-14 0)
(3 -1.2851e-14 0)
(3 -1.9448e-14 0)
(3 -4.10611e-14 0)
(3 -3.98643e-14 0)
(3 -6.79467e-14 0)
(3 -1.35291e-13 0)
(3 -9.916e-14 0)
(3 -6.41767e-14 0)
(3 -4.21095e-14 0)
(3 -1.83562e-14 0)
(3 8.33548e-15 0)
(3 -3.48984e-14 0)
(3 -7.59888e-14 0)
(3 -7.97323e-14 0)
(3 -4.22324e-14 0)
(3 -5.24026e-15 0)
(3 9.62494e-15 0)
(3 1.89094e-14 0)
(3 8.87027e-16 0)
(3 2.83148e-14 0)
(3 -6.57402e-16 0)
(3 -1.45541e-14 0)
(3 2.14574e-14 0)
(3 -3.25925e-13 0)
(3.00001 -3.46044e-06 0)
(2.86669 0.25131 0)
(1.15099 0.617523 0)
(0.961324 0.573797 0)
(0.93681 0.580229 0)
(0.916506 0.593268 0)
(0.900667 0.603869 0)
(0.889742 0.617137 0)
(0.880606 0.630548 0)
(0.875591 0.646882 0)
(0.87143 0.663145 0)
(0.868875 0.680591 0)
(0.86778 0.698458 0)
(0.871111 0.719892 0)
(0.882445 0.746622 0)
(0.904166 0.778256 0)
(0.937691 0.814455 0)
(0.986131 0.853789 0)
(1.05352 0.896629 0)
(1.14384 0.932526 0)
(1.24609 0.955467 0)
(1.36882 0.965961 0)
(3 -2.32236e-15 0)
(3 2.63418e-15 0)
(3 4.31392e-14 0)
(3 4.14808e-14 0)
(3 -1.26645e-14 0)
(3 -6.95199e-14 0)
(3 -9.38682e-14 0)
(3 -8.56323e-14 0)
(3 -5.92227e-14 0)
(3 -4.57572e-14 0)
(3 -5.04508e-14 0)
(3 -1.01901e-13 0)
(3 -7.32691e-14 0)
(3 -8.41997e-14 0)
(3 -7.72493e-14 0)
(3 -4.42321e-14 0)
(3 -6.20238e-14 0)
(3 -6.74672e-14 0)
(3 -1.87005e-14 0)
(3 -5.01606e-15 0)
(3 -1.76634e-14 0)
(3 -1.48624e-14 0)
(3 3.89174e-14 0)
(3 5.29432e-14 0)
(3 7.47545e-14 0)
(3 8.0262e-14 0)
(3 -7.31909e-07 0)
(3.05749 0.0136997 0)
(1.40149 0.575353 0)
(0.992089 0.624025 0)
(0.964592 0.620721 0)
(0.939268 0.623148 0)
(0.923565 0.626795 0)
(0.913105 0.636481 0)
(0.904863 0.647277 0)
(0.901441 0.661782 0)
(0.900702 0.677904 0)
(0.902543 0.69571 0)
(0.906305 0.714017 0)
(0.912643 0.733341 0)
(0.924732 0.755851 0)
(0.945854 0.782242 0)
(0.978573 0.811846 0)
(1.02494 0.843452 0)
(1.0876 0.878856 0)
(1.16812 0.907453 0)
(1.26278 0.927445 0)
(1.37075 0.937593 0)
(3 1.16414e-14 0)
(3 1.32401e-15 0)
(3 1.77778e-14 0)
(3 1.62646e-14 0)
(3 2.12993e-14 0)
(3 1.75403e-14 0)
(3 3.1988e-14 0)
(3 1.06453e-14 0)
(3 -3.82696e-15 0)
(3 -1.22253e-14 0)
(3 -1.32351e-14 0)
(3 -4.17867e-14 0)
(3 -4.35505e-14 0)
(3 -3.98528e-14 0)
(3 1.32763e-15 0)
(3 4.06543e-14 0)
(3 7.69959e-14 0)
(3 6.46162e-14 0)
(3 -1.43263e-15 0)
(3 -2.19947e-14 0)
(3 -4.47095e-14 0)
(3 -3.75592e-14 0)
(3 -2.53001e-14 0)
(3 2.25797e-14 0)
(3 8.6597e-14 0)
(3 1.37384e-13 0)
(3 -7.40565e-08 0)
(3.00195 8.0796e-07 0)
(1.85981 0.567016 0)
(0.999553 0.66166 0)
(0.965862 0.639156 0)
(0.958457 0.644079 0)
(0.949401 0.645879 0)
(0.939799 0.653214 0)
(0.93207 0.661757 0)
(0.928334 0.674263 0)
(0.928871 0.689489 0)
(0.933212 0.706982 0)
(0.940709 0.725914 0)
(0.951309 0.745285 0)
(0.965157 0.765522 0)
(0.986619 0.788288 0)
(1.01879 0.812826 0)
(1.06288 0.838948 0)
(1.12084 0.866053 0)
(1.19171 0.887863 0)
(1.27744 0.905124 0)
(1.37361 0.914673 0)
(3 -2.42273e-14 0)
(3 -9.133e-15 0)
(3 -1.23798e-14 0)
(3 -2.47973e-14 0)
(3 -1.13504e-14 0)
(3 2.8338e-14 0)
(3 4.20312e-14 0)
(3 1.82959e-14 0)
(3 -2.61993e-16 0)
(3 -2.47383e-16 0)
(3 -2.4776e-15 0)
(3 1.62027e-14 0)
(3 2.99128e-14 0)
(3 6.1908e-14 0)
(3 8.2238e-14 0)
(3 9.4817e-14 0)
(3 7.88034e-14 0)
(3 6.4117e-14 0)
(3 5.46268e-14 0)
(3 -1.54477e-14 0)
(3 -6.8611e-14 0)
(3 -6.72978e-14 0)
(3 -6.10391e-14 0)
(3 3.37168e-15 0)
(3 7.65008e-14 0)
(3 7.39005e-14 0)
(3 -2.33512e-09 0)
(3 -1.84e-07 0)
(2.7314 0.333307 0)
(1.14941 0.674947 0)
(1.00106 0.639075 0)
(0.990092 0.650496 0)
(0.979723 0.659574 0)
(0.969487 0.668776 0)
(0.961213 0.677016 0)
(0.956486 0.687674 0)
(0.956525 0.70098 0)
(0.961964 0.71716 0)
(0.97095 0.734966 0)
(0.985431 0.754406 0)
(1.00191 0.77338 0)
(1.02541 0.792437 0)
(1.05689 0.812714 0)
(1.09815 0.833662 0)
(1.15054 0.853229 0)
(1.21233 0.868911 0)
(1.28864 0.883333 0)
(1.37251 0.890757 0)
(3 -9.62799e-15 0)
(3 3.33854e-16 0)
(3 -1.3267e-14 0)
(3 6.85028e-16 0)
(3 1.78592e-14 0)
(3 4.03718e-14 0)
(3 3.8412e-14 0)
(3 5.78217e-14 0)
(3 -7.3046e-15 0)
(3 -4.25015e-14 0)
(3 -2.28898e-14 0)
(3 5.81435e-16 0)
(3 -3.05892e-15 0)
(3 3.57086e-14 0)
(3 -5.04817e-15 0)
(3 -2.93438e-14 0)
(3 -5.92003e-14 0)
(3 -4.4687e-14 0)
(3 -1.26356e-14 0)
(3 1.7908e-14 0)
(3 3.83759e-15 0)
(3 1.96075e-15 0)
(3 2.76484e-15 0)
(3 -1.01185e-14 0)
(3 9.83701e-15 0)
(3 8.35149e-15 0)
(3 -5.5116e-12 0)
(3 -2.42297e-07 0)
(3.07026 0.0251689 0)
(1.44007 0.641795 0)
(1.04718 0.682652 0)
(1.01593 0.679919 0)
(1.00096 0.683488 0)
(0.991191 0.689912 0)
(0.985163 0.695142 0)
(0.982405 0.703116 0)
(0.983307 0.713029 0)
(0.989328 0.726786 0)
(0.999046 0.742663 0)
(1.01502 0.760574 0)
(1.03429 0.779027 0)
(1.06028 0.797632 0)
(1.09209 0.815775 0)
(1.13165 0.833284 0)
(1.17929 0.84834 0)
(1.23485 0.860457 0)
(1.30357 0.871237 0)
(1.3771 0.874984 0)
(3 5.81184e-15 0)
(3 -7.26819e-15 0)
(3 -4.88423e-14 0)
(3 -1.87702e-14 0)
(3 5.84831e-16 0)
(3 1.06304e-14 0)
(3 7.36915e-14 0)
(3 1.24279e-13 0)
(3 8.38384e-14 0)
(3 3.58959e-14 0)
(3 1.78338e-14 0)
(3 1.07386e-14 0)
(3 -2.76389e-14 0)
(3 -3.66062e-14 0)
(3 2.71742e-14 0)
(3 1.47657e-14 0)
(3 4.52566e-14 0)
(3 1.45068e-14 0)
(3 3.27943e-14 0)
(3 3.41443e-14 0)
(3 4.48049e-16 0)
(3 -1.61261e-14 0)
(3 -1.92592e-14 0)
(3 -8.85631e-15 0)
(3 -3.18466e-14 0)
(3 -1.02106e-13 0)
(3 -9.17565e-14 0)
(3 -5.17153e-08 0)
(3.00362 8.21114e-05 0)
(1.99522 0.61075 0)
(1.07304 0.728417 0)
(1.03577 0.699901 0)
(1.0313 0.698727 0)
(1.02261 0.704236 0)
(1.01542 0.708646 0)
(1.01257 0.716019 0)
(1.01312 0.72432 0)
(1.01821 0.736378 0)
(1.02741 0.74912 0)
(1.04244 0.765598 0)
(1.06324 0.781661 0)
(1.09015 0.798264 0)
(1.12204 0.814151 0)
(1.16058 0.828955 0)
(1.20447 0.841022 0)
(1.25636 0.850531 0)
(1.3176 0.857935 0)
(1.38314 0.859115 0)
(3 4.71392e-17 0)
(3 -4.71403e-15 0)
(3 -7.87608e-15 0)
(3 -1.09014e-14 0)
(3 1.82372e-14 0)
(3 -4.60707e-15 0)
(3 2.34716e-14 0)
(3 4.6926e-14 0)
(3 6.01153e-14 0)
(3 8.90212e-14 0)
(3 5.27644e-14 0)
(3 3.93417e-14 0)
(3 2.1431e-14 0)
(3 -3.62792e-15 0)
(3 -1.47985e-14 0)
(3 -1.64333e-14 0)
(3 9.08468e-17 0)
(3 1.18173e-14 0)
(3 5.59173e-14 0)
(3 3.35275e-14 0)
(3 -9.90292e-15 0)
(3 -7.69377e-15 0)
(3 4.87175e-14 0)
(3 3.14452e-14 0)
(3 -5.04036e-14 0)
(3 -1.06175e-13 0)
(3 -7.7492e-14 0)
(3 -4.40096e-09 0)