/*--------------------------------*- C++ -*----------------------------------*\
  =========                 |
  \\      /  F ield         | OpenFOAM: The Open Source CFD Toolbox
   \\    /   O peration     | Website:  https://openfoam.org
    \\  /    A nd           | Version:  10
     \\/     M anipulation  |
\*---------------------------------------------------------------------------*/
FoamFile
{
    format      ascii;
    class       volScalarField;
    location    "41";
    object      p;
}
// * * * * * * * * * * * * * * * * * * * * * * * * * * * * * * * * * * * * * //

dimensions      [0 2 -2 0 0 0 0];

internalField   nonuniform List<scalar> 
8800
(
0.845395
0.797606
0.758912
0.729912
0.70904
0.694196
0.683583
0.676082
0.671233
0.669135
0.670355
0.674506
0.68112
0.690412
0.703174
0.720895
0.745664
0.779599
0.822144
0.880845
0.676654
0.684332
0.691797
0.695102
0.693593
0.688505
0.682006
0.675909
0.671158
0.668277
0.667952
0.670411
0.674861
0.680777
0.687525
0.693789
0.697419
0.696677
0.691248
0.682552
0.655071
0.66123
0.665353
0.668289
0.670328
0.670919
0.669795
0.667666
0.665615
0.664662
0.665572
0.667906
0.670667
0.67282
0.673405
0.672189
0.669834
0.666431
0.661869
0.658107
0.649292
0.651941
0.654686
0.657081
0.658705
0.659851
0.66057
0.660659
0.660325
0.660222
0.660915
0.662033
0.662829
0.662859
0.662223
0.66111
0.659278
0.656695
0.654284
0.65278
0.643953
0.645376
0.647148
0.64917
0.650941
0.652264
0.653228
0.653991
0.65456
0.655065
0.655647
0.656079
0.656126
0.655795
0.655064
0.653788
0.65207
0.650205
0.648889
0.648058
0.63893
0.639849
0.641083
0.642638
0.644255
0.64576
0.647017
0.648044
0.648955
0.649777
0.650383
0.650633
0.650525
0.650031
0.649106
0.64787
0.646513
0.645231
0.644398
0.643848
0.634092
0.63476
0.635716
0.637006
0.638398
0.639833
0.641239
0.642516
0.643652
0.644673
0.645393
0.645664
0.645497
0.644916
0.644052
0.643057
0.642005
0.641053
0.640456
0.640052
0.629393
0.629909
0.630685
0.631803
0.633062
0.63441
0.63582
0.63724
0.638595
0.639828
0.64071
0.641058
0.640924
0.640445
0.639765
0.638977
0.638149
0.63743
0.636984
0.636669
0.624769
0.625179
0.625828
0.626821
0.628007
0.629305
0.630707
0.632203
0.633737
0.63521
0.636301
0.636803
0.636828
0.636539
0.636057
0.635458
0.634819
0.634281
0.633943
0.633689
0.620137
0.62047
0.62103
0.621945
0.62308
0.62436
0.625789
0.627367
0.629066
0.630797
0.632163
0.632916
0.633179
0.633109
0.632825
0.632423
0.631955
0.631564
0.631309
0.631098
0.615417
0.615692
0.616191
0.617059
0.618175
0.619474
0.620966
0.622665
0.624561
0.626583
0.628302
0.629389
0.62994
0.630116
0.630045
0.629832
0.629529
0.629265
0.629075
0.628896
0.61053
0.61076
0.61122
0.612073
0.61321
0.614572
0.61617
0.618045
0.620209
0.6226
0.62475
0.62623
0.62711
0.627562
0.627721
0.627697
0.627556
0.627402
0.627266
0.62711
0.605395
0.605588
0.606027
0.606895
0.608095
0.609564
0.611324
0.613443
0.61595
0.618811
0.621488
0.623434
0.624695
0.625456
0.62587
0.626042
0.626064
0.626013
0.625922
0.625784
0.599926
0.600089
0.600525
0.601435
0.602739
0.604365
0.606349
0.608786
0.611736
0.61519
0.618506
0.621007
0.622715
0.623835
0.624534
0.624932
0.625112
0.625158
0.625108
0.624982
0.594025
0.594161
0.594608
0.595589
0.597039
0.598874
0.601149
0.603985
0.607475
0.611647
0.615754
0.618945
0.621204
0.622746
0.623777
0.624427
0.624787
0.624932
0.624919
0.624802
0.58757
0.587679
0.588149
0.58923
0.590874
0.592989
0.59565
0.599008
0.603195
0.608264
0.613331
0.617336
0.620239
0.622274
0.62368
0.624614
0.625177
0.625426
0.62545
0.62534
0.580408
0.580502
0.581002
0.582213
0.584107
0.586575
0.58972
0.593737
0.598797
0.604977
0.611213
0.616207
0.619872
0.622503
0.624366
0.625629
0.626418
0.626781
0.626842
0.626735
0.57233
0.572412
0.572972
0.574327
0.576529
0.579449
0.583213
0.588051
0.594192
0.601742
0.609398
0.61558
0.620175
0.62352
0.625939
0.627604
0.628659
0.629148
0.629246
0.629137
0.563039
0.563097
0.563729
0.565295
0.5679
0.571398
0.57594
0.581821
0.58931
0.598534
0.607931
0.61555
0.62124
0.625437
0.628536
0.630682
0.63205
0.632683
0.632821
0.632709
0.552183
0.55222
0.55295
0.554806
0.557928
0.562175
0.567731
0.574959
0.584173
0.59549
0.606953
0.616247
0.623239
0.628442
0.632316
0.635049
0.636789
0.637583
0.637758
0.637638
0.539236
0.539259
0.54012
0.54235
0.546144
0.551363
0.558222
0.567154
0.578495
0.592348
0.606329
0.617653
0.626189
0.632596
0.637409
0.640854
0.643036
0.64401
0.644218
0.644083
0.523381
0.523398
0.524465
0.527238
0.531968
0.538529
0.547169
0.55838
0.572482
0.589469
0.606388
0.619997
0.630281
0.63806
0.643968
0.648222
0.650898
0.652061
0.652292
0.652134
0.503433
0.503454
0.504858
0.508471
0.514581
0.523057
0.534152
0.548368
0.565927
0.586688
0.607053
0.623304
0.635576
0.644908
0.652029
0.657206
0.660406
0.661751
0.661991
0.661803
0.477578
0.47763
0.479626
0.484634
0.492939
0.504281
0.518878
0.537126
0.559056
0.584315
0.608591
0.627748
0.642182
0.653209
0.661641
0.66781
0.671528
0.67302
0.67325
0.673028
0.44279
0.442961
0.446184
0.453804
0.465869
0.481627
0.501238
0.524798
0.552097
0.582571
0.611181
0.633456
0.650185
0.663002
0.672835
0.679992
0.684157
0.685731
0.685923
0.685665
0.393332
0.394346
0.400836
0.413818
0.43242
0.455006
0.481534
0.511822
0.54547
0.581774
0.615009
0.640526
0.659595
0.674232
0.685522
0.6936
0.698099
0.699661
0.699787
0.699493
0.320226
0.327563
0.342664
0.365706
0.394028
0.425762
0.460774
0.498855
0.539601
0.582307
0.620599
0.649695
0.671422
0.688157
0.701122
0.710201
0.715094
0.716714
0.716832
0.716582
0.241426
0.258679
0.283154
0.31684
0.355324
0.396384
0.440001
0.486127
0.534451
0.584371
0.62881
0.662561
0.687836
0.707393
0.72264
0.733135
0.738437
0.740031
0.740193
0.740096
0.175976
0.196262
0.228557
0.271139
0.31855
0.368409
0.420354
0.474354
0.530101
0.587028
0.637348
0.675449
0.704007
0.726128
0.743247
0.754536
0.760069
0.762037
0.762253
0.762245
0.122393
0.144378
0.182126
0.231097
0.285519
0.342735
0.402031
0.463247
0.525959
0.589535
0.645391
0.687524
0.719016
0.74333
0.761937
0.774303
0.780786
0.782571
0.782828
0.782862
0.0776824
0.100823
0.142296
0.196302
0.256399
0.319665
0.385251
0.452851
0.521897
0.591626
0.652623
0.698441
0.732579
0.758857
0.778825
0.792116
0.79908
0.801056
0.801435
0.80149
0.039475
0.0632859
0.107574
0.165557
0.230375
0.298787
0.36983
0.443082
0.517856
0.593228
0.658956
0.708142
0.744632
0.772494
0.793392
0.807349
0.814761
0.817156
0.817629
0.8177
0.00576656
0.030023
0.0765358
0.137795
0.206608
0.279485
0.355355
0.433689
0.513689
0.594282
0.664416
0.716686
0.755206
0.784256
0.805817
0.820218
0.827988
0.830773
0.831372
0.831453
-0.0248917
-0.00024734
0.0480886
0.112187
0.184439
0.261233
0.341417
0.424373
0.509217
0.594729
0.669038
0.724171
0.764461
0.794508
0.816583
0.831368
0.839432
0.84246
0.843118
0.843179
-0.0533836
-0.0283845
0.0215164
0.0880412
0.163364
0.243643
0.327703
0.4149
0.504282
0.594492
0.672831
0.730695
0.77261
0.803523
0.825998
0.841057
0.849301
0.852464
0.853127
0.853154
-0.0804322
-0.0550497
-0.00366025
0.0649501
0.143021
0.226419
0.313997
0.405103
0.498757
0.593499
0.6758
0.736352
0.779848
0.811595
0.834493
0.849726
0.858068
0.861315
0.862009
0.862003
-0.106334
-0.080552
-0.0279887
0.0426636
0.123164
0.209368
0.300142
0.394862
0.492551
0.591688
0.677936
0.741218
0.786356
0.818993
0.84234
0.857772
0.866149
0.869346
0.87006
0.870051
-0.131442
-0.105145
-0.0515538
0.020936
0.103627
0.192357
0.286041
0.384099
0.485589
0.588987
0.67921
0.745345
0.792258
0.825896
0.849744
0.865357
0.873748
0.876895
0.87751
0.877454
-0.155842
-0.129131
-0.074457
-0.000340668
0.0843111
0.175315
0.271642
0.372773
0.477824
0.585344
0.679591
0.748764
0.797647
0.832424
0.856837
0.872625
0.880957
0.883996
0.884515
0.88439
-0.179634
-0.152434
-0.096765
-0.0212175
0.0651826
0.158221
0.25693
0.360865
0.46923
0.580708
0.679016
0.751458
0.802577
0.838683
0.86372
0.879633
0.887806
0.890643
0.891038
0.89086
-0.202932
-0.175165
-0.11856
-0.0417161
0.046234
0.141087
0.241928
0.348398
0.459809
0.575038
0.677414
0.753373
0.807073
0.844761
0.87049
0.886446
0.894337
0.896874
0.897138
0.896924
-0.225746
-0.197337
-0.139853
-0.0618277
0.0275019
0.123946
0.226685
0.335417
0.449585
0.568307
0.674707
0.754418
0.811101
0.85074
0.877292
0.893143
0.900532
0.902663
0.902782
0.902543
-0.247922
-0.218903
-0.160579
-0.0815204
0.00902039
0.106865
0.211262
0.321992
0.438613
0.560535
0.670825
0.754476
0.814568
0.856677
0.884346
0.899937
0.906455
0.907973
0.907927
0.907681
-0.269441
-0.239838
-0.180726
-0.100743
-0.00915146
0.0899042
0.195748
0.308201
0.42697
0.551752
0.665719
0.753402
0.817312
0.862537
0.891932
0.907299
0.9124
0.912837
0.912534
0.912335
-0.290376
-0.260113
-0.200276
-0.119466
-0.0269505
0.0731477
0.18023
0.294145
0.41475
0.542025
0.659348
0.751046
0.81909
0.868108
0.900228
0.916047
0.919349
0.91771
0.916657
0.916717
-0.310559
-0.279714
-0.219176
-0.13763
-0.0443191
0.0566769
0.1648
0.279936
0.402068
0.531454
0.651714
0.747256
0.819601
0.872924
0.908969
0.926984
0.929458
0.924949
0.921521
0.920824
-0.330091
-0.298632
-0.237449
-0.155268
-0.0612944
0.0404438
0.149399
0.265509
0.388853
0.519965
0.642683
0.741761
0.818509
0.876327
0.917215
0.939957
0.944853
0.939688
0.930058
0.914498
-0.348902
-0.316866
-0.255219
-0.172584
-0.07817
0.0241084
0.133603
0.250374
0.374559
0.506907
0.631592
0.733743
0.815171
0.877341
0.922719
0.951706
0.960085
0.948857
0.929753
0.915527
-0.366817
-0.334548
-0.272299
-0.189364
-0.0946115
0.00801923
0.117639
0.23486
0.3595
0.492557
0.618556
0.722805
0.808941
0.874841
0.920656
0.94921
0.961251
0.940184
0.871231
0.839638
-0.383176
-0.352899
-0.288363
-0.205076
-0.109864
-0.00732334
0.101814
0.219194
0.343895
0.477047
0.603541
0.708716
0.798628
0.868414
0.906618
0.927972
0.924236
0.872646
0.802909
0.759714
-0.439151
-0.3691
-0.30303
-0.220813
-0.125498
-0.02337
0.0860626
0.203097
0.327383
0.45994
0.585982
0.690996
0.780653
0.857525
0.863427
0.872746
0.831218
0.764379
0.688312
0.645726
-0.400968
-0.38498
-0.324785
-0.242154
-0.148413
-0.0464388
0.0620335
0.17839
0.301607
0.432537
0.556214
0.659076
0.740338
0.819451
0.812215
0.705252
0.602768
0.531339
0.458634
0.491251
-0.432283
-0.402978
-0.341897
-0.260044
-0.166327
-0.064567
0.0441514
0.159882
0.282025
0.411088
0.5318
0.630533
0.703811
0.74547
0.700068
0.556207
0.430606
0.340503
0.241862
0.293929
-0.45649
-0.424249
-0.361937
-0.279922
-0.186153
-0.0845136
0.0241247
0.139035
0.25978
0.386419
0.503366
0.596355
0.660408
0.669623
0.566653
0.395621
0.243874
0.125658
-0.005853
0.0282388
-0.480224
-0.446423
-0.382937
-0.300082
-0.206216
-0.104717
0.00342896
0.117396
0.236565
0.360452
0.472808
0.559287
0.608125
0.586289
0.431101
0.235661
0.045068
-0.12417
-0.314926
-0.330865
-0.503391
-0.469126
-0.404763
-0.321194
-0.227172
-0.125868
-0.0183265
0.0945909
0.211951
0.332742
0.439914
0.519213
0.55013
0.493149
0.302259
0.0920838
-0.126301
-0.317779
-0.563106
-0.870757
-0.526882
-0.492601
-0.427705
-0.343684
-0.249473
-0.148303
-0.0412883
0.0705618
0.186029
0.303512
0.405323
0.476265
0.488543
0.381019
0.190434
-0.019246
-0.224467
-0.398045
-0.465722
-0.549654
-0.551654
-0.517298
-0.452113
-0.367881
-0.273617
-0.172669
-0.0662675
0.0443576
0.15764
0.271334
0.367387
0.427965
0.415894
0.27464
0.0915278
-0.0989349
-0.26159
-0.354073
-0.377843
-0.394175
-0.578021
-0.543535
-0.478163
-0.393877
-0.299738
-0.199176
-0.0936189
0.0154927
0.126199
0.235489
0.325296
0.372808
0.342657
0.175872
0.00214351
-0.162856
-0.289221
-0.327366
-0.340982
-0.342321
-0.606192
-0.571493
-0.505925
-0.421674
-0.327791
-0.227828
-0.123358
-0.0160793
0.0916406
0.195974
0.278746
0.312379
0.265041
0.0841141
-0.0802734
-0.227799
-0.304906
-0.321112
-0.322507
-0.322383
-0.636232
-0.601235
-0.535429
-0.451268
-0.357787
-0.258611
-0.155485
-0.0503702
0.0539754
0.152872
0.227723
0.25028
0.167371
-0.00024438
-0.156426
-0.27763
-0.312567
-0.312423
-0.312148
-0.311563
-0.667866
-0.632598
-0.566572
-0.482571
-0.389637
-0.291466
-0.189963
-0.0873472
0.013237
0.106294
0.172939
0.17934
0.0756868
-0.0789919
-0.215963
-0.293009
-0.302777
-0.304727
-0.305127
-0.304902
-0.700544
-0.665123
-0.599103
-0.51536
-0.423153
-0.326232
-0.226635
-0.12687
-0.0304037
0.056552
0.115028
0.106044
-0.00749926
-0.147968
-0.261682
-0.288207
-0.299637
-0.301116
-0.300494
-0.30004
-0.73382
-0.698291
-0.632579
-0.549244
-0.457988
-0.362582
-0.265218
-0.168645
-0.0766731
0.00430758
0.0533541
0.0364816
-0.0858732
-0.210163
-0.295654
-0.314686
-0.302976
-0.29988
-0.298886
-0.298085
-0.766833
-0.731423
-0.666147
-0.583626
-0.493598
-0.400038
-0.305254
-0.212198
-0.125084
-0.0497747
-0.0101838
-0.0259791
-0.154119
-0.269519
-0.317893
-0.313751
-0.307092
-0.299841
-0.296641
-0.2956
-0.798017
-0.763342
-0.698886
-0.617587
-0.529216
-0.43789
-0.346077
-0.256856
-0.174814
-0.10521
-0.0692567
-0.0920134
-0.20125
-0.33327
-0.364455
-0.343747
-0.314457
-0.292115
-0.28461
-0.282698
-0.825873
-0.792223
-0.72967
-0.649977
-0.563798
-0.475181
-0.386795
-0.301769
-0.224766
-0.161267
-0.123795
-0.155259
-0.216782
-0.339366
-0.412493
-0.35706
-0.317444
-0.295842
-0.286189
-0.282505
-0.848334
-0.816416
-0.75645
-0.679407
-0.596029
-0.51073
-0.426267
-0.345861
-0.273927
-0.216948
-0.179185
-0.207286
-0.200995
-0.158907
-0.296138
-0.324958
-0.380984
-0.394788
-0.381665
-0.3737
-0.86325
-0.833978
-0.777452
-0.70398
-0.624366
-0.543126
-0.463183
-0.387784
-0.321343
-0.271197
-0.233777
-0.278861
-0.220069
0.0451138
-0.0258141
-0.303261
-0.4667
-0.503239
-0.50306
-0.503168
-0.86801
-0.842718
-0.790747
-0.721878
-0.647039
-0.57077
-0.495942
-0.426
-0.365764
-0.322267
-0.286131
-0.399337
-0.560606
-0.621316
-0.648556
-0.625635
-0.60199
-0.592757
-0.589782
-0.59152
-0.860754
-0.840203
-0.79419
-0.73145
-0.662438
-0.591928
-0.522762
-0.45863
-0.405147
-0.369337
-0.349456
-0.579884
-0.947044
-1.58148
-1.59664
-1.02543
-0.764674
-0.702154
-0.69384
-0.69203
-0.839225
-0.823389
-0.786012
-0.731383
-0.66935
-0.605217
-0.541821
-0.48321
-0.435579
-0.408665
-0.417429
-0.586163
-0.717904
-0.763353
-0.689555
-0.622257
-0.6988
-0.712571
-0.699378
-0.690978
-0.805239
-0.794784
-0.766504
-0.721636
-0.667471
-0.609886
-0.551789
-0.497103
-0.452645
-0.428541
-0.433705
-0.445541
-0.323081
-0.0339027
0.0447844
-0.264035
-0.510718
-0.609245
-0.588138
-0.598951
-0.764345
-0.758404
-0.739835
-0.704483
-0.65826
-0.606303
-0.55219
-0.499222
-0.453632
-0.425525
-0.441146
-0.489915
-0.659886
-1.05871
-1.54181
-1.90309
-1.88463
-1.60267
-1.32425
-1.20172
-0.724783
-0.721408
-0.711423
-0.68476
-0.644553
-0.596502
-0.544061
-0.489831
-0.438751
-0.403325
-0.408158
-0.505794
-0.740263
-1.07463
-1.38489
-1.56565
-1.50206
-1.31903
-1.11903
-1.02812
-0.693269
-0.691221
-0.686202
-0.667084
-0.631249
-0.583916
-0.529854
-0.47012
-0.408752
-0.345872
-0.29814
-0.240325
-0.16831
-0.00252839
0.191676
0.435316
0.680844
0.860785
0.971873
1.01931
-0.66634
-0.665497
-0.664203
-0.653135
-0.621177
-0.572574
-0.513692
-0.445633
-0.368884
-0.283056
-0.182713
-0.0298129
0.249657
0.64262
1.06748
1.46396
1.77989
1.99774
2.11311
2.14754
-0.648551
-0.648025
-0.647851
-0.642367
-0.614743
-0.563854
-0.498385
-0.421797
-0.332374
-0.22949
-0.105217
0.0209062
0.326455
0.764098
1.26029
1.72375
2.08542
2.30777
2.41374
2.44546
-0.635629
-0.635233
-0.635099
-0.633806
-0.611181
-0.558091
-0.485884
-0.402166
-0.306415
-0.195981
-0.074392
0.059924
0.259827
0.688109
1.15548
1.58597
1.91096
2.10305
2.19086
2.21564
-0.627014
-0.625473
-0.624086
-0.625405
-0.609461
-0.55435
-0.475462
-0.385598
-0.287774
-0.176373
-0.057374
0.0746235
0.234617
0.535655
0.925889
1.25448
1.51172
1.66227
1.72972
1.74716
-0.630993
-0.629721
-0.631149
-0.633832
-0.615161
-0.550015
-0.462409
-0.367669
-0.269719
-0.162414
-0.0533026
0.0555941
0.1607
0.355461
0.634405
0.880334
1.0713
1.18227
1.23032
1.24138
-0.637909
-0.641482
-0.649146
-0.649285
-0.617478
-0.536189
-0.439207
-0.343357
-0.250173
-0.153392
-0.0622076
0.0206597
0.0974255
0.219499
0.409783
0.577832
0.704866
0.778701
0.809296
0.816366
-0.596482
-0.603856
-0.614893
-0.611875
-0.571473
-0.487575
-0.395414
-0.308411
-0.227557
-0.147169
-0.073794
-0.01336
0.0418961
0.115963
0.241218
0.352298
0.432136
0.476554
0.495387
0.497257
-0.458017
-0.465558
-0.473947
-0.47076
-0.440484
-0.384871
-0.322221
-0.25892
-0.197429
-0.135513
-0.0810746
-0.0412711
-0.00696802
0.0422421
0.120351
0.190274
0.238502
0.264683
0.274739
0.274912
-0.270071
-0.274224
-0.280208
-0.283589
-0.276679
-0.258088
-0.231308
-0.198837
-0.161795
-0.120926
-0.0869655
-0.0643897
-0.045527
-0.012774
0.0382496
0.080914
0.109214
0.12292
0.127609
0.126919
-0.111466
-0.113489
-0.11895
-0.129063
-0.140774
-0.149028
-0.149697
-0.142033
-0.126153
-0.104294
-0.0852739
-0.0748623
-0.068076
-0.0455891
-0.0131571
0.0136022
0.0283748
0.0343396
0.0358796
0.0350582
-0.0178346
-0.0190305
-0.0242406
-0.0369756
-0.056532
-0.0760011
-0.0901388
-0.0965533
-0.0947057
-0.086179
-0.0781819
-0.0758744
-0.0748394
-0.0568041
-0.0349967
-0.0217844
-0.0159111
-0.0143769
-0.0144407
-0.015291
0.0222262
0.0213209
0.0168834
0.00540533
-0.0130728
-0.0334269
-0.0513043
-0.0638523
-0.0696564
-0.0692943
-0.0676001
-0.0689087
-0.0700573
-0.0566145
-0.0426864
-0.0360472
-0.0344335
-0.034863
-0.0354995
-0.0362973
0.0321297
0.0314727
0.0282019
0.0195154
0.00498873
-0.0121234
-0.0285512
-0.0418885
-0.0504358
-0.0537109
-0.0541001
-0.0546539
-0.0537283
-0.043054
-0.0359994
-0.0342617
-0.0347294
-0.0358095
-0.0365198
-0.0373277
0.0281872
0.0277408
0.0255435
0.0196159
0.00935805
-0.00343823
-0.0166646
-0.0283094
-0.0367246
-0.0404915
-0.0395134
-0.0366995
-0.0320708
-0.0241602
-0.0215287
-0.0226022
-0.0242754
-0.0254302
-0.0261311
-0.0269748
0.0192188
0.0189182
0.0175224
0.0137525
0.00699287
-0.00191072
-0.011661
-0.0207219
-0.0275979
-0.0301733
-0.0265846
-0.0182019
-0.00810828
-0.00317056
-0.00503508
-0.00780518
-0.00945453
-0.0100508
-0.0105815
-0.0115483
0.0094982
0.00928093
0.0084182
0.00615558
0.00194549
-0.00392166
-0.0107428
-0.0174154
-0.0226897
-0.0241265
-0.0181066
-0.00515019
0.00883104
0.0107277
0.00580247
0.00278218
0.00232609
0.00294556
0.00287904
0.00182953
0.00098331
0.000810868
0.000269437
-0.00104844
-0.00358294
-0.00737142
-0.0121072
-0.0170874
-0.0212361
-0.0223788
-0.0163828
-0.00271015
0.0113232
0.0107442
0.00586177
0.00513274
0.00685128
0.00888743
0.00902015
0.00775922
-0.00558418
-0.00574453
-0.0061381
-0.00695708
-0.00852666
-0.0110529
-0.0145162
-0.0185908
-0.0225609
-0.0249762
-0.0221981
-0.0127206
-0.00307252
-0.00564972
-0.00900901
-0.00712113
-0.00262575
0.000807756
0.00123959
-5.60149e-06
-0.0100303
-0.0101856
-0.0105248
-0.0111517
-0.0122535
-0.0141763
-0.0170239
-0.0208732
-0.0256386
-0.0309804
-0.0347454
-0.0347431
-0.0341264
-0.0385131
-0.0374635
-0.0309775
-0.0243119
-0.0204389
-0.0200022
-0.0211284
-0.0124909
-0.0126426
-0.0129707
-0.0135572
-0.0145348
-0.0162359
-0.0189618
-0.0230442
-0.0290281
-0.0381687
-0.0504682
-0.0643994
-0.0768088
-0.0810658
-0.0727585
-0.061862
-0.0540454
-0.0505558
-0.0502579
-0.0510185
-0.0132797
-0.0134319
-0.0137635
-0.0143625
-0.0153279
-0.0169449
-0.0196603
-0.023974
-0.0309862
-0.0433965
-0.0638018
-0.0920181
-0.116958
-0.117723
-0.102513
-0.0891646
-0.0819122
-0.0794948
-0.0791946
-0.0795062
-0.0126388
-0.0127924
-0.0130925
-0.0136701
-0.0146278
-0.0161655
-0.0188079
-0.0231243
-0.0305747
-0.0441481
-0.0682754
-0.104025
-0.135117
-0.131829
-0.114043
-0.102027
-0.0974506
-0.0962479
-0.0957663
-0.0957711
-0.0106786
-0.0108105
-0.0110649
-0.0116324
-0.012533
-0.0139647
-0.0162643
-0.0201308
-0.0267519
-0.0390673
-0.0612878
-0.0941689
-0.119304
-0.112807
-0.100361
-0.0953415
-0.0952114
-0.0959066
-0.0954085
-0.0951357
-0.00774822
-0.00784987
-0.00804066
-0.00848689
-0.00919383
-0.0104702
-0.0121711
-0.0150766
-0.0200521
-0.0292755
-0.0443005
-0.0646635
-0.0767658
-0.0723811
-0.0695686
-0.0712796
-0.0739675
-0.0755464
-0.0754779
-0.0752699
-0.00433378
-0.00442857
-0.00453944
-0.0048282
-0.00537272
-0.00606807
-0.00730974
-0.00896751
-0.0116332
-0.015957
-0.0226568
-0.0285777
-0.0312417
-0.0304308
-0.0341512
-0.0399149
-0.0423676
-0.0428541
-0.0430909
-0.0430488
-0.000535558
-0.000594613
-0.000677481
-0.000714995
-0.000681708
-0.00118775
-0.00165079
-0.00182115
-0.00170028
-0.00159784
-0.00140143
-0.000161538
0.00349852
-0.000912039
-0.00608378
-0.00877236
-0.00969344
-0.0108857
-0.0107386
-0.0100285
-0.0823268
0.0882845
0.287819
0.461118
0.600178
0.710426
0.801959
0.879492
0.91432
0.891038
0.2283
0.351494
0.483864
0.598511
0.69539
0.775774
0.840818
0.886877
0.909974
0.921965
0.45184
0.536294
0.62667
0.706783
0.775708
0.833376
0.879195
0.912639
0.936753
0.954662
0.615428
0.675563
0.738881
0.796855
0.847469
0.890411
0.925647
0.953724
0.976763
0.99502
0.74285
0.786767
0.833443
0.877898
0.917194
0.951485
0.98081
1.00519
1.02573
1.04354
0.84834
0.881705
0.920283
0.956275
0.989284
1.01885
1.04466
1.06634
1.0843
1.10163
0.941648
0.970616
1.00491
1.03732
1.06752
1.09489
1.1188
1.13865
1.15423
1.1713
1.0307
1.06008
1.09429
1.12651
1.15627
1.18298
1.20595
1.22452
1.23795
1.25498
1.12631
1.15963
1.19639
1.23008
1.26022
1.28649
1.30851
1.32584
1.33775
1.35516
1.24148
1.27938
1.3181
1.35241
1.38182
1.40662
1.42703
1.44296
1.45445
1.47253
1.38652
1.42512
1.46131
1.49204
1.51775
1.53988
1.55896
1.57452
1.58696
1.60496
1.56169
1.59332
1.61953
1.64201
1.66201
1.68075
1.69849
1.71498
1.73034
1.74841
1.75034
1.76755
1.7826
1.79885
1.81477
1.82932
1.84253
1.85647
1.87402
1.89417
1.93207
1.94163
1.95318
1.96399
1.97328
1.98287
1.99367
2.00504
2.01641
2.03177
2.13935
2.14301
2.12806
2.11325
2.10698
2.11266
2.13115
2.16146
2.19364
2.2203
2.44565
2.31079
2.23416
2.1918
2.17438
2.17834
2.20574
2.26216
2.36478
2.58914
0.735992
0.733861
0.729376
0.720746
0.708516
0.696378
0.686135
0.678218
0.672569
0.669273
0.668864
0.671549
0.67661
0.683798
0.693161
0.704684
0.717323
0.728349
0.734456
0.737506
0.660456
0.666302
0.672636
0.677122
0.679583
0.679248
0.676495
0.672663
0.66912
0.666815
0.666612
0.668751
0.672366
0.676619
0.680399
0.682263
0.681312
0.677819
0.672649
0.666026
0.652057
0.654352
0.657752
0.660741
0.662806
0.66429
0.665026
0.664684
0.663624
0.662692
0.662802
0.664166
0.665929
0.667192
0.66734
0.666425
0.664858
0.662508
0.659235
0.65631
0.646577
0.647663
0.649492
0.651862
0.653874
0.655287
0.656286
0.657007
0.657367
0.657534
0.657952
0.658686
0.659222
0.659238
0.658786
0.657907
0.656415
0.654312
0.652213
0.650826
0.641416
0.642079
0.643182
0.644878
0.646647
0.648261
0.649532
0.650513
0.651348
0.652072
0.652717
0.653181
0.653299
0.653071
0.652454
0.65136
0.649901
0.648334
0.647
0.646216
0.636493
0.636954
0.637736
0.639024
0.640498
0.641995
0.643432
0.644691
0.645771
0.646748
0.647562
0.648023
0.648076
0.647724
0.646964
0.645923
0.644756
0.643592
0.642657
0.642136
0.631732
0.632077
0.632684
0.633742
0.63502
0.636372
0.637779
0.63918
0.64049
0.641679
0.642667
0.643226
0.643286
0.642911
0.642231
0.641387
0.640482
0.639576
0.63888
0.638497
0.627081
0.627349
0.627838
0.628738
0.629891
0.631163
0.632521
0.633959
0.635427
0.63684
0.63804
0.638746
0.6389
0.638653
0.638155
0.637508
0.63679
0.636097
0.635576
0.635284
0.622464
0.622677
0.623083
0.623872
0.624944
0.626165
0.627508
0.628983
0.630567
0.632193
0.633647
0.634575
0.63493
0.634891
0.634594
0.634142
0.633608
0.633092
0.632705
0.632476
0.617797
0.617968
0.618315
0.619032
0.620058
0.621254
0.622619
0.624165
0.625884
0.627735
0.62949
0.630726
0.63136
0.631568
0.631489
0.631233
0.630882
0.63052
0.630243
0.630061
0.613003
0.61314
0.613446
0.614118
0.615128
0.616347
0.617771
0.619428
0.621332
0.623455
0.625578
0.627205
0.628176
0.628668
0.628831
0.628779
0.628603
0.628385
0.628198
0.628052
0.608002
0.608112
0.608389
0.609043
0.61007
0.611355
0.612884
0.61471
0.61687
0.619351
0.621933
0.624027
0.625387
0.626197
0.626625
0.626789
0.626789
0.626707
0.626598
0.626481
0.602711
0.602796
0.603056
0.603716
0.604799
0.606192
0.607878
0.609936
0.61243
0.615371
0.618526
0.621175
0.622992
0.624174
0.624896
0.625302
0.625487
0.625535
0.625495
0.625402
0.597039
0.597102
0.597353
0.59804
0.599214
0.600761
0.602663
0.605025
0.607933
0.61144
0.615295
0.618629
0.621005
0.622628
0.623696
0.624376
0.624762
0.624945
0.62497
0.624897
0.590878
0.59092
0.59117
0.591904
0.593205
0.594956
0.597144
0.599897
0.603339
0.607555
0.612271
0.616436
0.61948
0.621627
0.623093
0.624072
0.6247
0.625028
0.625116
0.625061
0.584098
0.584113
0.584362
0.585167
0.586637
0.588653
0.59121
0.594471
0.598591
0.603688
0.60946
0.614637
0.618477
0.62124
0.623171
0.624507
0.625408
0.625894
0.626051
0.626012
0.5765
0.576507
0.576765
0.577655
0.579345
0.581692
0.584721
0.588619
0.593594
0.599807
0.606882
0.613258
0.618048
0.621549
0.624054
0.625826
0.627033
0.627694
0.62792
0.627896
0.567834
0.567808
0.568114
0.569134
0.57109
0.573854
0.577477
0.582172
0.588195
0.595748
0.604405
0.612277
0.618234
0.622626
0.625814
0.628124
0.629706
0.630575
0.630879
0.630868
0.557796
0.557743
0.558091
0.559289
0.561588
0.564905
0.569293
0.575024
0.582415
0.59169
0.602289
0.611907
0.619206
0.624638
0.628646
0.631588
0.633607
0.634716
0.635103
0.635103
0.54595
0.545869
0.54629
0.547719
0.550461
0.554484
0.559859
0.566907
0.575997
0.587374
0.600328
0.612069
0.620998
0.627689
0.632675
0.636364
0.638915
0.640303
0.64078
0.640785
0.531629
0.531521
0.53206
0.533809
0.537138
0.542109
0.5488
0.55759
0.568884
0.582901
0.598705
0.612923
0.62373
0.631867
0.638001
0.642586
0.645768
0.647475
0.648041
0.648043
0.51384
0.513708
0.514442
0.516677
0.520868
0.527189
0.535714
0.546859
0.56102
0.578327
0.597523
0.614607
0.627546
0.637336
0.644788
0.650364
0.654246
0.656289
0.656935
0.656925
0.491107
0.490962
0.492031
0.495043
0.500568
0.508905
0.520051
0.534411
0.55228
0.573619
0.59681
0.617167
0.632502
0.644115
0.653018
0.659727
0.664359
0.666732
0.667438
0.667405
0.461092
0.460973
0.462662
0.467061
0.474859
0.486391
0.501431
0.520248
0.542904
0.569137
0.596904
0.620852
0.63877
0.65234
0.662773
0.67069
0.676053
0.678704
0.679436
0.679371
0.41968
0.419731
0.422805
0.430097
0.442105
0.458872
0.479693
0.504515
0.53314
0.565099
0.59796
0.625768
0.646388
0.661994
0.674048
0.6832
0.689206
0.692019
0.692723
0.69262
0.359165
0.360375
0.367943
0.38166
0.401384
0.426462
0.455418
0.487907
0.523626
0.562001
0.600295
0.632066
0.655419
0.673054
0.686707
0.696999
0.703524
0.706331
0.706893
0.706749
0.286878
0.288714
0.303173
0.326875
0.357469
0.39236
0.430233
0.470966
0.514364
0.559918
0.604642
0.641486
0.668581
0.689116
0.704906
0.716668
0.723943
0.726899
0.727541
0.72752
0.212224
0.218514
0.239847
0.273717
0.31459
0.359051
0.405834
0.454861
0.506034
0.558902
0.610278
0.652429
0.683425
0.707052
0.725428
0.738975
0.746843
0.749466
0.749925
0.75
0.151369
0.159874
0.18588
0.226759
0.27555
0.328131
0.382918
0.439697
0.498278
0.558184
0.615929
0.663053
0.697645
0.723991
0.744376
0.759156
0.767355
0.770392
0.771344
0.771492
0.101817
0.110907
0.140443
0.186487
0.241353
0.300459
0.361973
0.425576
0.490897
0.557348
0.621058
0.672811
0.710655
0.739417
0.761606
0.777539
0.786629
0.790341
0.7915
0.791668
0.0601533
0.0695166
0.101468
0.151458
0.211266
0.275768
0.342985
0.412528
0.483874
0.556304
0.625517
0.681516
0.722324
0.753217
0.776905
0.793818
0.803697
0.807902
0.809246
0.809413
0.0239662
0.0334452
0.0672122
0.120362
0.184242
0.25333
0.325513
0.400303
0.477073
0.554965
0.629259
0.689172
0.732641
0.765294
0.790013
0.807563
0.81816
0.82279
0.824254
0.824448
-0.00837784
0.00114561
0.0362966
0.0921417
0.159446
0.232479
0.309048
0.388546
0.470266
0.553218
0.632281
0.695852
0.741702
0.775808
0.801308
0.819395
0.830411
0.835407
0.836987
0.837204
-0.0380958
-0.0285231
0.00776318
0.0659383
0.136204
0.212716
0.293178
0.376938
0.463224
0.550945
0.634559
0.70161
0.749652
0.785024
0.811192
0.829686
0.840966
0.846263
0.847896
0.848104
-0.0659751
-0.0563459
-0.0190342
0.0411122
0.11404
0.193657
0.277606
0.365251
0.455783
0.548032
0.63606
0.706501
0.756643
0.793183
0.819945
0.838734
0.850189
0.855609
0.857257
0.857483
-0.0925013
-0.0828111
-0.0445732
0.0173032
0.0926372
0.175021
0.262124
0.353325
0.447814
0.544389
0.636743
0.710564
0.762811
0.800536
0.827913
0.847013
0.858613
0.864068
0.865708
0.865822
-0.118107
-0.108257
-0.0691846
-0.00570437
0.0717646
0.156632
0.246589
0.341045
0.439234
0.539942
0.636558
0.71382
0.768266
0.807272
0.83533
0.854752
0.866467
0.871881
0.873465
0.873573
-0.142973
-0.132901
-0.0930967
-0.0281046
0.0512772
0.138373
0.230912
0.328353
0.429979
0.53463
0.635457
0.716271
0.773089
0.813522
0.842355
0.86212
0.873921
0.879272
0.880755
0.880839
-0.167169
-0.156892
-0.116332
-0.0499788
0.0310989
0.120194
0.215059
0.315214
0.420018
0.528398
0.633382
0.717897
0.777318
0.819382
0.8491
0.869223
0.88104
0.886243
0.887594
0.887617
-0.190833
-0.180264
-0.138979
-0.0713781
0.0112073
0.102082
0.199025
0.301635
0.409351
0.521229
0.63027
0.718638
0.780957
0.824927
0.855671
0.876135
0.887876
0.892846
0.893997
0.893949
-0.213914
-0.203066
-0.161078
-0.0923348
-0.00839198
0.0840584
0.182852
0.287655
0.398003
0.51311
0.626068
0.718407
0.783962
0.830201
0.862176
0.882961
0.894445
0.899022
0.899945
0.899836
-0.236468
-0.225314
-0.182573
-0.112818
-0.0276718
0.0661604
0.166586
0.273336
0.386026
0.504062
0.620732
0.717112
0.786233
0.835204
0.868758
0.889866
0.900834
0.904784
0.905411
0.905244
-0.258322
-0.24693
-0.203453
-0.132784
-0.0465814
0.0484624
0.150296
0.258748
0.373493
0.494142
0.614244
0.714653
0.787634
0.839865
0.875561
0.897181
0.907295
0.910172
0.910353
0.910135
-0.279619
-0.267878
-0.223708
-0.152211
-0.0650863
0.0310065
0.134074
0.243973
0.360492
0.483432
0.606617
0.710925
0.787975
0.843996
0.882628
0.905399
0.91449
0.915548
0.914795
0.914487
-0.3002
-0.288139
-0.243313
-0.171059
-0.083108
0.0138787
0.118002
0.229132
0.347134
0.472002
0.5979
0.705838
0.787044
0.847272
0.889728
0.914945
0.923734
0.922343
0.919338
0.918071
-0.320128
-0.307759
-0.262218
-0.189276
-0.100611
-0.00285222
0.102164
0.214305
0.333532
0.459994
0.588174
0.699316
0.784631
0.849247
0.896165
0.925521
0.936385
0.934012
0.926936
0.917628
-0.339325
-0.326704
-0.280524
-0.207025
-0.117812
-0.0194724
0.0862138
0.199078
0.319222
0.446885
0.576884
0.690758
0.780173
0.849384
0.900932
0.935868
0.952265
0.951839
0.941658
0.934248
-0.357747
-0.3449
-0.298226
-0.224275
-0.13471