/*--------------------------------*- C++ -*----------------------------------*\
  =========                 |
  \\      /  F ield         | OpenFOAM: The Open Source CFD Toolbox
   \\    /   O peration     | Website:  https://openfoam.org
    \\  /    A nd           | Version:  10
     \\/     M anipulation  |
\*---------------------------------------------------------------------------*/
FoamFile
{
    format      ascii;
    class       volScalarField;
    location    "31";
    object      p;
}
// * * * * * * * * * * * * * * * * * * * * * * * * * * * * * * * * * * * * * //

dimensions      [0 2 -2 0 0 0 0];

internalField   nonuniform List<scalar> 
8800
(
1.54669
1.4989
1.4602
1.4312
1.41032
1.39547
1.38485
1.37733
1.37246
1.37033
1.3715
1.3756
1.38218
1.39144
1.40418
1.42189
1.44665
1.48057
1.52311
1.58181
1.37795
1.38563
1.39309
1.39639
1.39488
1.38979
1.38328
1.37718
1.37241
1.3695
1.36912
1.37153
1.37594
1.38182
1.38854
1.39478
1.39839
1.39764
1.39221
1.38351
1.35637
1.36253
1.36665
1.36959
1.37163
1.37221
1.37108
1.36893
1.36686
1.36586
1.36671
1.369
1.37172
1.37383
1.37439
1.37315
1.37078
1.36737
1.3628
1.35903
1.3506
1.35325
1.356
1.3584
1.36002
1.36116
1.36187
1.36194
1.36158
1.36143
1.36206
1.36312
1.36387
1.36385
1.36318
1.36204
1.36019
1.35759
1.35517
1.35366
1.34528
1.3467
1.34848
1.35051
1.35228
1.3536
1.35456
1.3553
1.35584
1.35629
1.3568
1.35717
1.35715
1.35677
1.35599
1.35468
1.35293
1.35104
1.34971
1.34888
1.34028
1.3412
1.34244
1.34401
1.34563
1.34714
1.34839
1.3494
1.35028
1.35104
1.35156
1.35173
1.35154
1.35098
1.34999
1.34871
1.3473
1.34599
1.34514
1.34459
1.33547
1.33614
1.33711
1.33842
1.33983
1.34127
1.34269
1.34395
1.34505
1.346
1.34663
1.34679
1.34652
1.34585
1.3449
1.34383
1.34272
1.34172
1.3411
1.3407
1.33082
1.33134
1.33213
1.33328
1.33456
1.33593
1.33735
1.33877
1.34009
1.34125
1.34201
1.34222
1.34195
1.34135
1.34056
1.33968
1.33877
1.33799
1.33752
1.33722
1.32627
1.32668
1.32735
1.32838
1.3296
1.33093
1.33234
1.33384
1.33534
1.33672
1.33767
1.338
1.33787
1.33743
1.33681
1.33609
1.33534
1.33472
1.33436
1.33412
1.32175
1.32207
1.32266
1.32362
1.3248
1.32612
1.32756
1.32912
1.33076
1.33238
1.33357
1.33414
1.33422
1.33398
1.33353
1.33298
1.33237
1.33188
1.3316
1.33141
1.31719
1.31746
1.31798
1.31891
1.32009
1.32143
1.32295
1.32463
1.32646
1.32835
1.32987
1.33073
1.33106
1.33102
1.33074
1.33034
1.32986
1.32948
1.32927
1.32911
1.31255
1.31276
1.31324
1.31417
1.31538
1.31679
1.31842
1.32028
1.32236
1.32458
1.32651
1.32773
1.32835
1.32853
1.32844
1.32818
1.32782
1.32754
1.32738
1.32725
1.30777
1.30793
1.3084
1.30934
1.31062
1.31213
1.31389
1.31597
1.3184
1.32108
1.32348
1.32511
1.32607
1.32655
1.32668
1.32657
1.32634
1.32614
1.32603
1.32592
1.30281
1.30294
1.30338
1.30435
1.3057
1.30734
1.30928
1.31162
1.31439
1.31759
1.32061
1.32282
1.32425
1.32507
1.32548
1.32559
1.32549
1.32539
1.32533
1.32524
1.29758
1.29767
1.29811
1.29914
1.30061
1.30243
1.30465
1.30738
1.3107
1.31461
1.31837
1.3212
1.32309
1.32429
1.32499
1.32532
1.3254
1.32539
1.32538
1.32531
1.29205
1.29211
1.29253
1.29358
1.29515
1.29715
1.29964
1.30278
1.30671
1.31144
1.31614
1.31981
1.3224
1.32414
1.32524
1.32588
1.32621
1.32635
1.32639
1.32633
1.28591
1.28596
1.2864
1.28748
1.28919
1.29144
1.29434
1.29807
1.30281
1.30861
1.31446
1.31908
1.32241
1.32475
1.32638
1.32743
1.32805
1.32836
1.32845
1.32839
1.27888
1.27891
1.27939
1.28053
1.28244
1.28503
1.28844
1.29292
1.29869
1.30582
1.31305
1.31885
1.32312
1.32621
1.32843
1.32993
1.3309
1.33138
1.3315
1.33143
1.27045
1.27048
1.27102
1.27234
1.27454
1.27761
1.28172
1.28718
1.29425
1.30303
1.31198
1.31919
1.32456
1.32849
1.33138
1.33342
1.33475
1.33539
1.33556
1.33548
1.26019
1.26022
1.26087
1.26246
1.26515
1.26892
1.27401
1.28078
1.28954
1.30039
1.31139
1.32028
1.32692
1.33182
1.33544
1.33802
1.33971
1.34053
1.34073
1.34063
1.24756
1.2476
1.24842
1.25041
1.25378
1.25853
1.26493
1.27342
1.28432
1.29772
1.31123
1.3221
1.33021
1.33623
1.3407
1.34389
1.34598
1.34696
1.34719
1.34708
1.23182
1.23188
1.23294
1.23554
1.23988
1.24598
1.25418
1.26496
1.27865
1.29521
1.31169
1.32484
1.33466
1.34194
1.34738
1.3513
1.35381
1.35496
1.35523
1.35509
1.21182
1.2119
1.21335
1.21684
1.22265
1.23068
1.2414
1.25525
1.27248
1.29289
1.31286
1.32864
1.34037
1.34912
1.35567
1.36039
1.36338
1.36471
1.36501
1.36485
1.1858
1.18592
1.188
1.19296
1.20105
1.21201
1.2263
1.24427
1.26596
1.29097
1.31493
1.33366
1.34756
1.35792
1.36574
1.37137
1.37485
1.37638
1.3767
1.3765
1.15086
1.15111
1.15446
1.16208
1.17397
1.18946
1.20884
1.23222
1.25938
1.28971
1.31811
1.34006
1.35631
1.36849
1.3777
1.3843
1.3883
1.39002
1.39035
1.39011
1.10144
1.10257
1.10923
1.12225
1.14066
1.16305
1.18942
1.2196
1.25319
1.28945
1.32261
1.34794
1.36669
1.3808
1.39146
1.39911
1.40371
1.4056
1.40589
1.4056
1.0288
1.03637
1.05173
1.0747
1.10266
1.13413
1.169
1.20703
1.24778
1.29055
1.32895
1.35808
1.37968
1.39606
1.40854
1.41756
1.42302
1.42532
1.42571
1.42549
0.951189
0.968666
0.993427
1.02673
1.06451
1.10516
1.14861
1.1947
1.24311
1.29325
1.33803
1.3721
1.39751
1.41688
1.43182
1.44291
1.44965
1.45237
1.45303
1.453
0.887375
0.907739
0.940328
0.982129
1.02841
1.0776
1.12927
1.18324
1.23913
1.2964
1.34721
1.38577
1.41453
1.43648
1.45334
1.46571
1.4735
1.47703
1.47757
1.47762
0.835428
0.857584
0.895341
0.943146
0.996104
1.05235
1.11123
1.17238
1.23526
1.29922
1.35559
1.39813
1.42969
1.45364
1.47203
1.48568
1.49465
1.49823
1.49888
1.49901
0.792336
0.815578
0.8568
0.909387
0.967652
1.02969
1.09472
1.16218
1.23137
1.30145
1.36285
1.40887
1.44278
1.46841
1.48803
1.50252
1.512
1.51605
1.51696
1.51713
0.755508
0.779382
0.823357
0.879609
0.94229
1.00923
1.07955
1.15258
1.22744
1.30308
1.36901
1.41807
1.45397
1.4809
1.50139
1.5165
1.52634
1.53081
1.53197
1.53214
0.722989
0.7473
0.793351
0.852716
0.919132
0.990315
1.06531
1.14332
1.22333
1.30406
1.37416
1.42596
1.46355
1.49152
1.51265
1.52816
1.53822
1.54298
1.54421
1.54438
0.693357
0.718063
0.765855
0.827859
0.897506
0.97241
1.05157
1.13409
1.21884
1.30435
1.37838
1.43276
1.47188
1.50072
1.52227
1.53802
1.54814
1.553
1.55431
1.55442
0.665746
0.690809
0.740164
0.804422
0.876914
0.955111
1.03801
1.12465
1.21382
1.30387
1.38172
1.43862
1.47925
1.50891
1.53087
1.54675
1.55694
1.56186
1.56325
1.56333
0.639439
0.664917
0.715687
0.781946
0.856986
0.93813
1.0244
1.11481
1.20812
1.30254
1.3842
1.44369
1.48589
1.51646
1.53887
1.55495
1.56516
1.56999
1.57142
1.57155
0.614166
0.640075
0.69192
0.760151
0.837466
0.92126
1.01058
1.10447
1.20165
1.3003
1.38581
1.44804
1.49199
1.52359
1.54657
1.56289
1.57315
1.57793
1.57926
1.57934
0.589566
0.61603
0.668916
0.738854
0.818201
0.904377
0.996463
1.09353
1.19434
1.29711
1.38655
1.45174
1.49766
1.53047
1.55413
1.57079
1.58112
1.58584
1.58702
1.58702
0.565561
0.592466
0.646476
0.717936
0.799112
0.887426
0.982007
1.08198
1.18618
1.29293
1.38638
1.45477
1.50291
1.53715
1.56165
1.5787
1.58908
1.59367
1.59473
1.59463
0.542071
0.569519
0.624488
0.697345
0.78017
0.870393
0.967209
1.06981
1.17714
1.2877
1.38521
1.45704
1.50774
1.54366
1.56913
1.58662
1.59701
1.6014
1.60229
1.60211
0.519007
0.547051
0.602946
0.677081
0.761374
0.853301
0.952106
1.05706
1.16725
1.2814
1.38294
1.45847
1.51209
1.55001
1.57663
1.59456
1.60487
1.60896
1.60965
1.60941
0.496378
0.525075
0.581877
0.65717
0.742777
0.836199
0.936757
1.04379
1.15653
1.27399
1.37951
1.45893
1.51585
1.5562
1.5842
1.60254
1.61257
1.61622
1.6167
1.61641
0.474357
0.503659
0.561322
0.637654
0.724424
0.819159
0.921232
1.03008
1.14506
1.26553
1.37483
1.45824
1.51884
1.56216
1.59199
1.61072
1.62014
1.6231
1.6233
1.62298
0.452973
0.482853
0.541313
0.618592
0.706383
0.802251
0.905629
1.01601
1.13293
1.25605
1.36886
1.45626
1.52084
1.56775
1.60013
1.61953
1.62787
1.62955
1.62934
1.62903
0.432169
0.462696
0.521892
0.600025
0.688721
0.785562
0.890042
1.00171
1.12025
1.24563
1.36158
1.45284
1.52156
1.57263
1.60861
1.62965
1.63674
1.63608
1.63478
1.63466
0.412118
0.443213
0.503119
0.582022
0.6715
0.769175
0.874568
0.987275
1.10714
1.23438
1.353
1.44786
1.52068
1.57623
1.61697
1.64158
1.64884
1.64523
1.64107
1.64004
0.392733
0.424414
0.484975
0.564559
0.65469
0.753044
0.859149
0.972658
1.09352
1.22223
1.343
1.44105
1.51787
1.57778
1.62403
1.65469
1.66586
1.66296
1.65248
1.63539
0.374086
0.406307
0.467338
0.547444
0.637997
0.736834
0.843365
0.957362
1.07885
1.20851
1.33089
1.43155
1.51244
1.57608
1.62711
1.66497
1.68109
1.67207
1.6555
1.63758
0.356349
0.388755
0.450393
0.53092
0.621721
0.720893
0.827445
0.941721
1.06344
1.19353
1.31683
1.41904
1.5039
1.57017
1.62104
1.65915
1.67822
1.66038
1.58961
1.55596
0.340171
0.370597
0.434473
0.515577
0.606575
0.705709
0.811683
0.925961
1.04753
1.17743
1.30083
1.40335
1.49118
1.56018
1.60183
1.63157
1.63424
1.58443
1.51247
1.46755
0.284269
0.354711
0.419868
0.500247
0.591115
0.689886
0.796019
0.909814
1.03077
1.15979
1.28236
1.38413
1.47101
1.54727
1.55085
1.56613
1.53124
1.46654
1.38907
1.34541
0.323073
0.339009
0.398607
0.478522
0.568669
0.667139
0.772232
0.885128
1.00472
1.13171
1.25137
1.35034
1.42859
1.50469
1.50182
1.39659
1.29268
1.22072
1.1467
1.18215
0.292055
0.321265
0.38168
0.461085
0.551214
0.649332
0.754564
0.866691
0.985013
1.1099
1.2263
1.32101
1.39166
1.43167
1.38686
1.24211
1.11293
1.021
0.919928
0.975165
0.268169
0.300364
0.361962
0.441674
0.531854
0.629811
0.734854
0.846019
0.962764
1.08501
1.19743
1.28643
1.34727
1.35625
1.25226
1.07521
0.91748
0.794973
0.660022
0.697404
0.244866
0.278601
0.34137
0.421916
0.512264
0.610071
0.714538
0.824622
0.939615
1.0589
1.16657
1.24923
1.29535
1.27138
1.11322
0.909468
0.710086
0.530188
0.330696
0.322358
0.222305
0.256384
0.320023
0.401295
0.491845
0.589451
0.693234
0.802135
0.915145
1.03114
1.13354
1.20902
1.23775
1.17913
0.980804
0.760639
0.530183
0.325085
0.0651921
-0.259364
0.199508
0.233537
0.297662
0.379422
0.470185
0.567642
0.670817
0.778521
0.889471
1.00198
1.09895
1.16616
1.17747
1.06785
0.865801
0.645718
0.427142
0.241315
0.170302
0.0717541
0.175622
0.209619
0.273975
0.355969
0.446817
0.544041
0.646521
0.752865
0.861457
0.970016
1.06114
1.11848
1.10505
0.958375
0.764308
0.563617
0.390827
0.290502
0.266225
0.248046
0.150326
0.184313
0.248808
0.330871
0.421633
0.518469
0.620028
0.724723
0.830552
0.93454
1.01934
1.0646
1.03034
0.857208
0.67256
0.497912
0.363201
0.320592
0.305534
0.303577
0.123415
0.157477
0.222114
0.304164
0.394714
0.490956
0.591362
0.69409
0.796728
0.895572
0.973364
1.00541
0.953512
0.762429
0.587642
0.431417
0.341913
0.327179
0.32521
0.325178
0.0948791
0.129124
0.193895
0.275886
0.366085
0.461558
0.560571
0.661008
0.760033
0.85322
0.923067
0.943303
0.858514
0.675535
0.508559
0.378456
0.339988
0.335701
0.335353
0.335971
0.0650301
0.0994792
0.164298
0.246164
0.335881
0.430386
0.527752
0.625577
0.720554
0.807609
0.869005
0.873614
0.761503
0.59384
0.443567
0.354735
0.345552
0.343139
0.342052
0.342371
0.0344453
0.0689535
0.13361
0.215259
0.304343
0.397668
0.493138
0.588027
0.678565
0.759008
0.812192
0.79777
0.671587
0.51983
0.389036
0.364492
0.347466
0.345236
0.34597
0.346476
0.0035922
0.0380131
0.102382
0.183601
0.271867
0.363802
0.457108
0.548761
0.634512
0.708054
0.752556
0.721994
0.580645
0.452121
0.356457
0.315256
0.335033
0.344854
0.347814
0.348534
-0.0267117
0.00744475
0.0713677
0.15184
0.23904
0.329359
0.42024
0.508398
0.589079
0.655552
0.690009
0.645455
0.485602
0.386954
0.343366
0.343864
0.33501
0.334979
0.338131
0.340064
-0.0549205
-0.021627
0.0414261
0.120844
0.206729
0.295135
0.383355
0.46782
0.54328
0.602438
0.628907
0.566812
0.384455
0.275429
0.319601
0.290669
0.280335
0.279095
0.283523
0.287444
-0.0797292
-0.0474378
0.0136467
0.0918082
0.175981
0.262189
0.347521
0.428188
0.498509
0.550162
0.572629
0.48596
0.276793
0.0755964
0.0827746
0.132325
0.170956
0.1856
0.191668
0.195418
-0.0992149
-0.0687481
-0.00992166
0.0660835
0.148057
0.231778
0.314071
0.390943
0.456518
0.501022
0.5206
0.417446
0.203131
-0.132817
-0.327294
-0.0976427
0.022035
0.0618195
0.0738063
0.0826815
-0.111545
-0.0836527
-0.0278694
0.0453246
0.124541
0.205381
0.284523
0.357823
0.419266
0.45816
0.473894
0.383267
0.255799
0.0830363
-0.132581
-0.049865
-0.0404091
-0.0355687
-0.026486
-0.0224537
-0.11447
-0.0903214
-0.0385505
0.0311273
0.107062
0.184602
0.260584
0.330793
0.388728
0.424278
0.434276
0.38119
0.440045
0.790108
0.903345
0.424707
0.0573213
0.00685912
-0.00711018
-0.00781131
-0.106668
-0.0868193
-0.0401575
0.0248677
0.0969406
0.170975
0.243988
0.311867
0.367483
0.400578
0.403187
0.341933
0.322021
0.485611
0.3843
-0.00428601
-0.174311
-0.123423
-0.044593
-0.0653198
-0.0863526
-0.0706685
-0.0314165
0.0274888
0.0950789
0.165607
0.236187
0.302882
0.359001
0.391652
0.380396
0.175621
-0.404109
-1.39307
-2.04578
-2.39038
-2.13199
-1.6305
-1.18453
-1.02086
-0.0549347
-0.0441491
-0.0126792
0.0387935
0.101526
0.168797
0.23793
0.305357
0.365911
0.407048
0.399063
0.149792
-0.550703
-1.4965
-2.19535
-2.44241
-2.22356
-1.85267
-1.48636
-1.30726
-0.0166987
-0.010288
0.0127041
0.0567085
0.114715
0.179593
0.248774
0.319947
0.388279
0.451883
0.484833
0.431866
0.230375
0.119044
0.116392
0.341605
0.653977
0.927993
1.11296
1.19648
0.0224681
0.0260155
0.0402122
0.0771696
0.131637
0.195532
0.266312
0.343123
0.425235
0.513037
0.615284
0.761385
1.02201
1.50979
2.10301
2.66193
3.073
3.3072
3.40813
3.4349
0.056605
0.0586272
0.0665716
0.0961771
0.14773
0.212666
0.286433
0.369282
0.463657
0.572458
0.702519
0.842764
1.1265
1.7023
2.35181
2.9207
3.32609
3.55455
3.65416
3.68082
0.0899455
0.0905885
0.0933252
0.113755
0.161311
0.227573
0.304148
0.390557
0.486595
0.597144
0.711783
0.836321
1.00435
1.45452
1.977
2.41438
2.73453
2.92032
3.0049
3.02966
0.118385
0.119521
0.120284
0.132295
0.174582
0.241215
0.319539
0.405821
0.498722
0.603602
0.707288
0.80805
0.913818
1.19503
1.58477
1.90553
2.1401
2.27757
2.34058
2.35745
0.134491
0.135032
0.13413
0.143507
0.187317
0.257341
0.337036
0.420809
0.509167
0.605274
0.694693
0.770938
0.836419
1.01599
1.27809
1.50214
1.66601
1.75928
1.80051
1.81138
0.152136
0.149045
0.145843
0.157502
0.207615
0.28214
0.361458
0.439966
0.520189
0.604573
0.6808
0.739926
0.794103
0.906884
1.08153
1.22577
1.3287
1.38804
1.4134
1.41823
0.21653
0.211244
0.206995
0.219876
0.265442
0.33083
0.39911
0.466132
0.534102
0.60496
0.670123
0.719672
0.763274
0.836269
0.951552
1.04344
1.1058
1.14077
1.15476
1.15606
0.342202
0.338609
0.335629
0.343108
0.369596
0.408358
0.452735
0.500224
0.551511
0.607985
0.661546
0.703533
0.74165
0.790493
0.860963
0.91955
0.958905
0.980277
0.989086
0.989246
0.477656
0.476211
0.473981
0.473444
0.478628
0.490559
0.510076
0.536589
0.570582
0.612282
0.65495
0.692831
0.727326
0.760979
0.800406
0.836841
0.862225
0.877461
0.883075
0.882423
0.573165
0.572664
0.570261
0.564433
0.55724
0.553868
0.557246
0.56844
0.587909
0.615918
0.647131
0.679249
0.709369
0.733609
0.757341
0.779533
0.797232
0.808131
0.812627
0.811541
0.622522
0.622135
0.619699
0.613158
0.603275
0.594474
0.590174
0.592223
0.601228
0.617137
0.637346
0.660003
0.686859
0.699252
0.71336
0.731322
0.74684
0.756842
0.760706
0.759276
0.641988
0.641508
0.63936
0.634058
0.625688
0.616988
0.61053
0.60806
0.610213
0.616499
0.624418
0.633979
0.645096
0.649652
0.662435
0.682642
0.700708
0.712257
0.716747
0.715122
0.647343
0.646825
0.645081
0.64125
0.635351
0.628547
0.622393
0.618188
0.616044
0.614549
0.609904
0.599938
0.588787
0.589652
0.609152
0.634644
0.655135
0.667572
0.672487
0.671347
0.64765
0.64718
0.645826
0.642995
0.638925
0.634082
0.629156
0.624849
0.620913
0.614578
0.599063
0.56755
0.533134
0.533496
0.567031
0.599104
0.620525
0.6317
0.635543
0.634621
0.646416
0.646088
0.645172
0.643097
0.640126
0.636756
0.633331
0.630129
0.62678
0.619512
0.600733
0.559225
0.511221
0.520938
0.559298
0.58944
0.606361
0.613249
0.61528
0.614789
0.64358
0.64346
0.643062
0.641853
0.639759
0.637669
0.635935
0.635016
0.634402
0.631433
0.618777
0.586511
0.55356
0.569884
0.597589
0.614264
0.6217
0.62419
0.625522
0.625916
0.63746
0.637531
0.637593
0.637212
0.636414
0.635874
0.636369
0.638614
0.643615
0.648293
0.649889
0.640479
0.634406
0.649144
0.6617
0.667209
0.669817
0.67229
0.673267
0.672151
0.626373
0.626647
0.627168
0.627631
0.628227
0.629717
0.633144
0.639444
0.650447
0.665981
0.683691
0.697736
0.716237
0.726367
0.722164
0.718473
0.719588
0.722396
0.722104
0.720534
0.608787
0.609238
0.610181
0.611506
0.613513
0.617144
0.623602
0.634657
0.652381
0.677879
0.708149
0.737746
0.771873
0.772661
0.760725
0.75453
0.75431
0.754831
0.753908
0.752815
0.582187
0.583071
0.584492
0.586611
0.589922
0.595485
0.604775
0.620062
0.643305
0.676468
0.71346
0.747699
0.778789
0.776883
0.770171
0.771544
0.77508
0.776562
0.773523
0.772198
0.54362
0.544713
0.546661
0.549597
0.554052
0.560976
0.571831
0.588991
0.614871
0.651967
0.69245
0.72162
0.737696
0.738319
0.74783
0.77022
0.785915
0.784502
0.779467
0.778864
0.489602
0.490972
0.493312
0.496865
0.501907
0.508772
0.518264
0.53215
0.553728
0.587738
0.634284
0.665511
0.662498
0.666884
0.713509
0.756409
0.786665
0.790556
0.785383
0.785366
0.418396
0.419839
0.422255
0.42587
0.43021
0.434264
0.437042
0.438156
0.439978
0.462531
0.527568
0.575903
0.56867
0.587162
0.67019
0.745677
0.784185
0.786439
0.782285
0.780762
0.331596
0.332781
0.334813
0.337588
0.33916
0.336159
0.323611
0.295113
0.256613
0.259077
0.363525
0.453046
0.460873
0.508313
0.606169
0.693333
0.735955
0.727447
0.721124
0.71844
0.236336
0.236858
0.238116
0.239298
0.236292
0.222091
0.183915
0.105211
-0.0013958
-0.0152513
0.153128
0.292847
0.33348
0.411474
0.510616
0.578181
0.593748
0.589982
0.585435
0.583067
0.146012
0.145399
0.145786
0.14562
0.13849
0.112649
0.0454233
-0.0900237
-0.259345
-0.27831
-0.0542267
0.134851
0.187645
0.298711
0.380443
0.418201
0.407669
0.404738
0.404401
0.404121
0.0724068
0.0720615
0.0736187
0.0732113
0.066445
0.0404809
-0.0341023
-0.18985
-0.363508
-0.382899
-0.156649
0.00838738
0.072634
0.184238
0.223433
0.228647
0.227238
0.225927
0.226356
0.226543
0.028009
0.0274878
0.0284227
0.0310852
0.0323922
0.029065
0.00776724
-0.0542475
-0.129526
-0.167458
-0.0965317
-0.00606147
-0.0118785
-0.0456001
-0.0374868
0.0532153
0.0525097
0.0474274
0.0463133
0.0453867
0.574561
0.757082
0.970017
1.15206
1.2987
1.4157
1.51335
1.59578
1.63262
1.60969
0.906943
1.0374
1.17675
1.29737
1.39952
1.48453
1.55336
1.60218
1.62693
1.63874
1.14303
1.232
1.32669
1.41068
1.4831
1.54371
1.59185
1.62697
1.65214
1.66983
1.31428
1.37677
1.44308
1.50376
1.55658
1.60137
1.63806
1.66719
1.69086
1.70898
1.44643
1.49218
1.54039
1.58649
1.6272
1.66266
1.6929
1.71795
1.73888
1.75662
1.55471
1.58907
1.62877
1.66584
1.69976
1.73005
1.75645
1.77856
1.79677
1.81407
1.64972
1.67932
1.7144
1.74746
1.77822
1.80607
1.83035
1.85047
1.86623
1.88329
1.7399
1.76967
1.80436
1.83697
1.86708
1.89411
1.91732
1.93607
1.94963
1.96667
1.83623
1.86969
1.90678
1.94074
1.97111
1.99758
2.01976
2.03721
2.04921
2.06662
1.95194
1.98974
2.02869
2.06323
2.09278
2.11769
2.1382
2.1542
2.16576
2.18384
2.09735
2.13605
2.17215
2.20295
2.22875
2.25094
2.27008
2.28567
2.29816
2.31617
2.27233
2.30425
2.3305
2.35297
2.37301
2.39179
2.40955
2.42607
2.44145
2.45953
2.46108
2.47837
2.49353
2.50982
2.52575
2.54032
2.55355
2.5675
2.58507
2.60523
2.64307
2.65251
2.66408
2.67491
2.68422
2.69383
2.70465
2.71604
2.72742
2.74278
2.8502
2.8539
2.83897
2.82417
2.81793
2.82363
2.84212
2.87245
2.90463
2.93129
3.15655
3.02168
2.94506
2.90274
2.88533
2.8893
2.91672
2.97313
3.07576
3.30013
1.43728
1.43515
1.43067
1.42203
1.4098
1.39766
1.38741
1.37948
1.37382
1.37049
1.37004
1.37267
1.37768
1.38484
1.39418
1.40568
1.4183
1.42932
1.43542
1.43847
1.36175
1.3676
1.37393
1.37842
1.38088
1.38054
1.37778
1.37394
1.37037
1.36803
1.36778
1.36987
1.37344
1.37765
1.3814
1.38325
1.38228
1.37877
1.37359
1.36696
1.35336
1.35566
1.35906
1.36205
1.36411
1.36559
1.36632
1.36597
1.36489
1.36392
1.36398
1.36528
1.36699
1.36821
1.36833
1.36739
1.3658
1.36343
1.36014
1.35722
1.34789
1.34898
1.35081
1.35318
1.3552
1.35661
1.3576
1.35831
1.35865
1.35877
1.35914
1.3598
1.36028
1.36024
1.35975
1.35884
1.35731
1.35519
1.35307
1.35168
1.34275
1.34342
1.34452
1.34623
1.348
1.34962
1.35089
1.35186
1.35267
1.35335
1.35393
1.35431
1.35435
1.35406
1.35339
1.35225
1.35075
1.34915
1.34779
1.347
1.33786
1.33832
1.3391
1.3404
1.34189
1.3434
1.34484
1.34609
1.34715
1.34808
1.34881
1.34917
1.34914
1.3487
1.34786
1.34676
1.34553
1.34432
1.34336
1.34283
1.33313
1.33348
1.33409
1.33517
1.33647
1.33784
1.33927
1.34067
1.34196
1.3431
1.344
1.34444
1.34438
1.34389
1.3431
1.34217
1.34119
1.34022
1.33948
1.33909
1.32854
1.3288
1.3293
1.33023
1.33141
1.33272
1.3341
1.33554
1.337
1.33835
1.33944
1.34
1.34001
1.33961
1.33899
1.33822
1.33741
1.33663
1.33606
1.33577
1.32401
1.32421
1.32463
1.32545
1.32657
1.32783
1.3292
1.33068
1.33224
1.33381
1.33513
1.33588
1.33605
1.33584
1.33539
1.3348
1.33413
1.33351
1.33307
1.33284
1.31948
1.31964
1.32
1.32076
1.32184
1.32309
1.32448
1.32602
1.3277
1.32945
1.33105
1.33209
1.33253
1.33254
1.33228
1.33185
1.33133
1.33083
1.33049
1.33031
1.31489
1.31501
1.31532
1.31605
1.31712
1.3184
1.31987
1.32154
1.3234
1.32542
1.32736
1.32875
1.32948
1.32972
1.32964
1.32937
1.32899
1.32861
1.32835
1.32821
1.31018
1.31027
1.31055
1.31126
1.31237
1.31372
1.31529
1.31712
1.31922
1.32158
1.32395
1.32577
1.32684
1.32737
1.32752
1.32741
1.32716
1.32688
1.3267
1.32659
1.30532
1.30538
1.30563
1.30634
1.3075
1.30894
1.31063
1.31264
1.31503
1.31781
1.32072
1.32305
1.32456
1.32546
1.3259
1.32602
1.32592
1.32576
1.32564
1.32557
1.30023
1.30027
1.3005
1.30123
1.30245
1.30401
1.30589
1.30819
1.31096
1.31424
1.31779
1.32082
1.32288
1.32417
1.32491
1.32528
1.32537
1.32533
1.32529
1.32524
1.29488
1.29488
1.29509
1.29583
1.29714
1.29885
1.30095
1.30358
1.30684
1.31083
1.31522
1.319
1.32168
1.3235
1.32464
1.32527
1.32561
1.32573
1.32577
1.32576
1.28907
1.28906
1.28928
1.29001
1.29138
1.29324
1.2956
1.29863
1.30246
1.30723
1.31263
1.31744
1.32096
1.32342
1.32506
1.32615
1.32683
1.32717
1.3273
1.3273
1.28254
1.28251
1.28274
1.28351
1.28499
1.28706
1.28981
1.29341
1.29806
1.3039
1.31056
1.31654
1.32097
1.32415
1.32641
1.32799
1.32903
1.32962
1.32986
1.32987
1.27486
1.27482
1.27508
1.27594
1.27757
1.27995
1.28318
1.28748
1.29311
1.30025
1.30847
1.31592
1.32152
1.32562
1.32859
1.33072
1.33221
1.33307
1.3334
1.33342
1.26556
1.26551
1.26582
1.26683
1.26876
1.27162
1.27555
1.28084
1.28779
1.29661
1.30675
1.31594
1.32287
1.32799
1.33177
1.33454
1.33645
1.33757
1.33799
1.33801
1.25417
1.2541
1.2545
1.25576
1.25814
1.26169
1.26659
1.27318
1.28182
1.29275
1.30524
1.31651
1.32503
1.33136
1.33603
1.33947
1.34187
1.34326
1.34377
1.3438
1.24005
1.23996
1.2405
1.24214
1.24515
1.24968
1.2559
1.26425
1.27511
1.28869
1.30404
1.31779
1.32815
1.33584
1.34156
1.34578
1.34873
1.3504
1.35099
1.35102
1.2223
1.22219
1.22295
1.22513
1.22907
1.23497
1.24305
1.25379
1.26756
1.28448
1.30328
1.31992
1.33237
1.34162
1.34853
1.35364
1.35722
1.35919
1.35988
1.3599
1.19944
1.19933
1.20045
1.20348
1.20883
1.21678
1.22756
1.24158
1.25916
1.28021
1.30308
1.32302
1.33786
1.34887
1.35713
1.36327
1.36753
1.36982
1.3706
1.37062
1.16924
1.16916
1.17092
1.17538
1.18308
1.19431
1.20907
1.22763
1.25008
1.27612
1.30367
1.3273
1.34476
1.35775
1.36753
1.3748
1.37976
1.38239
1.38326
1.38327
1.12774
1.12783
1.13102
1.13841
1.15035
1.16689
1.18751
1.21217
1.24069
1.27256
1.30531
1.33291
1.3532
1.36832
1.37974
1.38825
1.39395
1.39693
1.39786
1.39784
1.06751
1.06877
1.07653
1.09033
1.10991
1.13476
1.16352
1.19591
1.23157
1.26994
1.30824
1.33998
1.36318
1.38049
1.39359
1.4033
1.40988
1.4132
1.41411
1.41403
0.995987
0.99801
1.01264
1.03637
1.06662
1.10107
1.13871
1.17936
1.22276
1.2684
1.31332
1.35039
1.37761
1.39808
1.41361
1.42515
1.43297
1.43696
1.43804
1.43802
0.922586
0.929233
0.950857
0.98448
1.02452
1.06824
1.11467
1.1636
1.21482
1.26788
1.31963
1.36223
1.39355
1.41721
1.43536
1.44909
1.4583
1.46219
1.46344
1.4637
0.863566
0.872157
0.898488
0.93884
0.986386
1.03788
1.0921
1.1487
1.20735
1.26752
1.32572
1.37337
1.4083
1.43461
1.45471
1.46982
1.47988
1.48484
1.48688
1.48725
0.815658
0.824817
0.854583
0.899783
0.953061
1.01074
1.07149
1.13482
1.20018
1.26691
1.33107
1.38324
1.42124
1.44971
1.47142
1.48782
1.4991
1.50484
1.50716
1.50758
0.775509
0.784896
0.816985
0.865928
0.923803
0.986567
1.05283
1.12198
1.19332
1.26598
1.33554
1.39175
1.43238
1.46263
1.48559
1.50291
1.51487
1.52123
1.52383
1.5243
0.740608
0.750092
0.783887
0.835891
0.897563
0.964637
1.03567
1.10995
1.18663
1.26468
1.33916
1.39899
1.44192
1.47362
1.49751
1.51548
1.52793
1.53481
1.53754
1.53802
0.70937
0.718896
0.754033
0.808577
0.873456
0.944255
1.01949
1.09835
1.17989
1.2629
1.34196
1.40515
1.45014
1.48308
1.50768
1.52603
1.53876
1.54588
1.54866
1.54917
0.680612
0.690194
0.726454
0.783203
0.850839
0.924899
1.00386
1.08687
1.17286
1.26051
1.34394
1.41035
1.4573
1.49137
1.51658
1.53519
1.54803
1.55529
1.55804
1.55858
0.65356
0.663202
0.700456
0.759118
0.829234
0.906191
0.988483
1.07524
1.16536
1.25739
1.34506
1.41468
1.46363
1.49884
1.52466
1.54358
1.55653
1.56383
1.56661
1.56697
0.627714
0.637454
0.675642
0.735921
0.808295
0.887847
0.973138
1.06331
1.15724
1.25345
1.34528
1.4182
1.46925
1.50575
1.53228
1.55154
1.56463
1.5719
1.57465
1.57499
0.602672
0.612596
0.651616
0.713447
0.787804
0.869682
0.957683
1.05096
1.14844
1.24861
1.34459
1.42094
1.47431
1.51226
1.53963
1.55935
1.57263
1.57989
1.58253
1.58287
0.578252
0.588417
0.628199
0.691517
0.767639
0.851601
0.942043
1.03815
1.1389
1.24285
1.34294
1.42291
1.47884
1.51846
1.54684
1.56711
1.58061
1.58785
1.59036
1.59065
0.554399
0.564786
0.605366
0.67
0.74773
0.833565
0.926192
1.02486
1.1286
1.23611
1.34028
1.42403
1.48281
1.52437
1.55396
1.57488
1.58861
1.59577
1.5981
1.5983
0.531002
0.541705
0.583012
0.648877
0.728056
0.815563
0.910141
1.0111
1.11757
1.2284
1.33652
1.42421
1.48616
1.52999
1.561
1.58265
1.59659
1.6036
1.6057
1.60579
0.508122
0.519116
0.561171
0.628153
0.708641
0.797635
0.893941
0.996925
1.10583
1.2197
1.33162
1.42334
1.48878
1.53529
1.56801
1.59048
1.60451
1.61122
1.61303
1.61301
0.48573
0.497035
0.539863
0.607867
0.689525
0.779828
0.877649
0.982411
1.09346
1.21005
1.32554
1.42132
1.49051
1.54016
1.57503
1.59847
1.6124
1.61856
1.61997
1.61985
0.464015
0.475559
0.519125
0.588065
0.67077
0.762225
0.86134
0.967637
1.08054
1.19954
1.31828
1.41801
1.49117
1.54443
1.58209
1.60686
1.6205
1.62563
1.62642
1.62619
0.442848
0.454735
0.498996
0.568784
0.652416
0.744873
0.845115
0.952696
1.06717
1.18824
1.30985
1.41333
1.49054
1.54783
1.58908
1.61603
1.62943
1.63277
1.63233
1.63191
0.422396
0.434597
0.479511
0.550082
0.63455
0.727863
0.82906
0.937714
1.05348
1.17625
1.30033
1.4072
1.4884
1.54995
1.5956
1.62614
1.6404
1.64155
1.63835
1.63677
0.402609
0.415101
0.460724
0.532014
0.617215
0.711266
0.813259
0.922774
1.03957
1.1637
1.2898
1.39958
1.48459
1.55033
1.60083
1.63661
1.65441
1.65552
1.64832
1.63821
0.383566
0.396295
0.442535
0.514428
0.6002
0.694795
0.797371
0.907461
1.02498
1.15007
1.27769
1.38983
1.47848
1.5483
1.60346
1.64577
1.6704
1.67528
1.66668
1.65736
0.365325
0.378268
0.424943
0.497369
0.58352
0.678449
0.781418
0.891764
1.00967
1.13527
1.26384
1.37762
1.46944
1.54316
1.60095
1.64793
1.67586
1.68585
1.64993
1.59573
0.348149
0.361792
0.408051
0.480896
0.567063
0.662097
0.765358
0.875804
0.993721
1.11936
1.24824
1.36284
1.45652
1.53468
1.59144
1.63169
1.66071
1.65155
1.59419
1.52799
0.331733
0.346188
0.392049
0.465619
0.551157
0.646217
0.748973
0.859643
0.977274
1.10253
1.23091
1.3454
1.43873
1.52402
1.574
1.62711
1.6014
1.56202
1.49214
1.4223
0.345846
0.363887
0.412453
0.490081
0.580468
0.679249
0.787253
0.90076
1.0213
1.14973
1.27161
1.37285
1.45776
1.54816
1.59899
1.51846
1.47472
1.41284
1.3392
1.29013
0.321477
0.33792
0.373476
0.441426
0.526536
0.621051
0.723903
0.83387
0.950569
1.07434
1.20048
1.31271
1.40233
1.48156
1.55248
1.55488
1.4345
1.3508
1.28786
1.20309
0.301491
0.317184
0.358496
0.427871
0.513234
0.607323
0.708971
0.817969
0.933578
1.05575
1.17987
1.28955
1.37603
1.44243
1.46933
1.3997
1.25774
1.16035
1.08404
0.993182
0.281099
0.293629
0.33944
0.410118
0.495662
0.589914
0.691475
0.800067
0.914654
1.03513
1.15617
1.26109
1.34043
1.39114
1.36906
1.2395
1.08364
0.962854
0.86259
0.722029
0.257512
0.270601
0.318439
0.390257
0.476127
0.570399
0.671807
0.77973
0.893092
1.01151
1.12896
1.22844
1.29983
1.33084
1.27229
1.08609
0.898019
0.738168
0.590736
0.389365
0.235026
0.247736
0.296805
0.369793
0.456165
0.550393
0.651399
0.758405
0.870296
0.986292
1.09978
1.19328
1.25602
1.25787
1.14728
0.941109
0.719317
0.505587
0.319188
-0.10141
0.21259
0.224876
0.274433
0.348291
0.435072
0.529321
0.629917
0.735994
0.846304
0.959649
1.06885
1.15573
1.20799
1.17527
1.02249
0.812611
0.583861
0.358028
0.164597
-0.149728
0.189296
0.201419
0.25112
0.325509
0.412575
0.506855
0.607078
0.712251
0.820923
0.93145
1.03612
1.11594
1.15503
1.10278
0.909948
0.708324
0.499532
0.321282
0.245452
0.209111
0.164692
0.176638
0.226503
0.301162
0.388313
0.482463
0.582161
0.686203
0.79291
0.900137
0.999643
1.07171
1.09604
1.01433
0.809645
0.620606
0.448729
0.333826
0.296037
0.284166
0.138582
0.15047
0.20043
0.275247
0.36236
0.456215
0.55518
0.657838
0.76221
0.865629
0.95929
1.02342
1.026
0.90904
0.718786
0.5435
0.396762
0.335614
0.32087
0.316037
0.110926
0.122578
0.172847
0.247777
0.334755
0.428145
0.526173
0.627161
0.728832
0.827984
0.915094
0.970933
0.946576
0.809183
0.632647
0.468451
0.361448
0.323153
0.329664
0.330193
0.0817337
0.0933619
0.143794
0.218825
0.305573
0.398343
0.495206
0.594248
0.692849
0.787245
0.867325
0.912986
0.871309
0.714494
0.553866
0.406966
0.35879
0.343918
0.339558
0.339204
0.0514191
0.0630573
0.113493
0.188593
0.274989
0.366969
0.462439
0.559254
0.654412
0.743591
0.816297
0.850204
0.800435
0.63002
0.482684
0.37576
0.327248
0.340688
0.343557
0.344011
0.0204624
0.0320326
0.0824833
0.157421
0.243343
0.334335
0.428186
0.522485
0.613855
0.697428
0.762283
0.787011
0.71484
0.550451
0.423205
0.347067
0.342359
0.343885
0.346062
0.347117
-0.0102794
0.000989916
0.0514363
0.125836
0.211134
0.300927
0.392907
0.484418
0.571707
0.649378
0.706224
0.720114
0.61793
0.472159
0.374944
0.364235
0.341802
0.341094
0.346355
0.34774
-0.0398913
-0.0289865
0.0209503
0.0948515
0.179061
0.267449
0.357296