/*--------------------------------*- C++ -*----------------------------------*\
  =========                 |
  \\      /  F ield         | OpenFOAM: The Open Source CFD Toolbox
   \\    /   O peration     | Website:  https://openfoam.org
    \\  /    A nd           | Version:  10
     \\/     M anipulation  |
\*---------------------------------------------------------------------------*/
FoamFile
{
    format      ascii;
    class       volScalarField;
    location    "52";
    object      p;
}
// * * * * * * * * * * * * * * * * * * * * * * * * * * * * * * * * * * * * * //

dimensions      [0 2 -2 0 0 0 0];

internalField   nonuniform List<scalar> 
2200
(
0.777583
0.756083
0.740175
0.724508
0.709899
0.697377
0.687022
0.678915
0.673206
0.670257
0.670713
0.674504
0.680849
0.689409
0.700087
0.712851
0.727632
0.743542
0.759577
0.781077
0.710014
0.706755
0.703832
0.699711
0.694243
0.687767
0.681147
0.67519
0.670682
0.668284
0.668771
0.672058
0.677227
0.683676
0.69065
0.697397
0.703061
0.707167
0.710025
0.71338
0.670101
0.670321
0.672372
0.673713
0.674106
0.67325
0.671262
0.66858
0.666034
0.664538
0.665092
0.667539
0.670803
0.674012
0.676348
0.677346
0.677071
0.676064
0.674409
0.674161
0.647595
0.649042
0.651647
0.654114
0.656554
0.65857
0.659725
0.659951
0.659571
0.659268
0.659887
0.661257
0.662448
0.662834
0.662143
0.66047
0.658302
0.656092
0.653476
0.652071
0.633282
0.635257
0.638073
0.640897
0.643745
0.646571
0.649025
0.650882
0.652103
0.652893
0.65361
0.654075
0.653827
0.652705
0.650835
0.648457
0.645908
0.643183
0.640385
0.638461
0.625934
0.627532
0.629729
0.632255
0.634921
0.637586
0.64017
0.642578
0.644582
0.64608
0.646926
0.646927
0.646091
0.644571
0.64267
0.640524
0.638193
0.63585
0.633754
0.632178
0.622529
0.623553
0.624818
0.626678
0.628818
0.630981
0.633169
0.63545
0.637662
0.639492
0.640503
0.640499
0.639703
0.638486
0.637075
0.635505
0.633811
0.632235
0.631114
0.630098
0.619893
0.620564
0.621195
0.622494
0.624104
0.625781
0.627525
0.629442
0.631491
0.633432
0.634659
0.634952
0.634609
0.633975
0.633186
0.632221
0.631148
0.630212
0.629761
0.629085
0.616651
0.617096
0.61749
0.618483
0.619744
0.621125
0.622614
0.624262
0.62609
0.628026
0.629508
0.630263
0.630509
0.630438
0.630142
0.629663
0.629071
0.628525
0.628331
0.627867
0.612634
0.612931
0.613288
0.614156
0.615261
0.616522
0.617945
0.619544
0.621326
0.623307
0.62514
0.626432
0.627172
0.627523
0.627576
0.627411
0.627089
0.626746
0.626611
0.626289
0.607979
0.608182
0.608551
0.609377
0.610465
0.611768
0.61328
0.615002
0.61695
0.619172
0.621393
0.623153
0.624312
0.624968
0.625263
0.625312
0.625165
0.624964
0.62485
0.624615
0.602822
0.602968
0.60334
0.604147
0.605292
0.606726
0.608434
0.610408
0.612673
0.61529
0.618027
0.620268
0.621783
0.622712
0.623215
0.623424
0.623469
0.62341
0.623327
0.62314
0.597262
0.597371
0.597749
0.598564
0.599774
0.601355
0.603301
0.605621
0.60835
0.611536
0.614875
0.617651
0.619569
0.620795
0.621538
0.621965
0.622191
0.622256
0.622212
0.622052
0.591317
0.591385
0.591764
0.592608
0.593945
0.595715
0.597931
0.600647
0.603964
0.607895
0.611987
0.615324
0.617675
0.619279
0.620366
0.621075
0.621509
0.621708
0.621703
0.621553
0.584872
0.584913
0.585332
0.586239
0.587707
0.589685
0.592208
0.595368
0.599299
0.604035
0.609021
0.613124
0.616102
0.618256
0.61977
0.6208
0.621477
0.621815
0.621859
0.621711
0.577822
0.577796
0.578215
0.579202
0.580883
0.583117
0.585967
0.589612
0.594251
0.599947
0.606002
0.611157
0.614951
0.617734
0.619798
0.621234
0.622178
0.622667
0.622764
0.622617
0.569898
0.569869
0.570319
0.571438
0.573341
0.575875
0.57918
0.583461
0.588954
0.595803
0.603187
0.60953
0.614352
0.61792
0.620566
0.62247
0.623734
0.624392
0.624541
0.624386
0.561004
0.561028
0.561451
0.562669
0.564894
0.567877
0.571807
0.576906
0.583476
0.591726
0.600702
0.608468
0.614406
0.618875
0.622209
0.624615
0.626214
0.627046
0.627249
0.627084
0.550655
0.550633
0.551173
0.552609
0.555213
0.558793
0.563554
0.569734
0.577666
0.587625
0.598508
0.607985
0.61526
0.620729
0.624794
0.627786
0.629764
0.630768
0.631022
0.630837
0.538392
0.538324
0.538999
0.540814
0.543933
0.548273
0.554114
0.561723
0.571493
0.583681
0.59687
0.608228
0.616915
0.623505
0.628473
0.632059
0.634453
0.635637
0.635937
0.635729
0.523862
0.523753
0.524523
0.52673
0.530619
0.536049
0.543352
0.552889
0.56508
0.580018
0.595819
0.609222
0.619497
0.627345
0.633233
0.637562
0.640409
0.64176
0.642097
0.641862
0.506125
0.506037
0.50703
0.509789
0.514684
0.521604
0.530916
0.542946
0.558095
0.576287
0.595172
0.611033
0.623085
0.632293
0.639248
0.64437
0.647672
0.649204
0.649568
0.6493
0.484207
0.484052
0.485356
0.488951
0.495332
0.504356
0.516323
0.531543
0.550235
0.572214
0.594667
0.613426
0.627632
0.638398
0.64656
0.652532
0.656308
0.657998
0.65837
0.658064
0.455961
0.455963
0.458017
0.463007
0.471608
0.483675
0.499363
0.518714
0.54174
0.568153
0.594704
0.616613
0.633109
0.645638
0.655144
0.662035
0.666283
0.668112
0.668457
0.668105
0.418513
0.418751
0.422251
0.430086
0.442635
0.45957
0.480504
0.505294
0.53373
0.565319
0.596152
0.621204
0.639989
0.654258
0.665095
0.672922
0.677546
0.679395
0.679667
0.679269
0.368475
0.368845
0.375774
0.388911
0.407923
0.432051
0.460029
0.491506
0.526196
0.563488
0.598932
0.627207
0.648266
0.664261
0.676408
0.684942
0.689649
0.691273
0.691377
0.691022
0.302408
0.305229
0.320244
0.341489
0.369352
0.402376
0.4385
0.477449
0.519096
0.562832
0.603541
0.635602
0.659584
0.67783
0.691532
0.701108
0.705995
0.707353
0.707312
0.707141
0.227216
0.236586
0.261593
0.292676
0.330622
0.372645
0.4169
0.463503
0.512346
0.562826
0.609291
0.646257
0.673914
0.694868
0.71085
0.721605
0.726631
0.727598
0.727513
0.727479
0.159879
0.174556
0.20584
0.245696
0.293129
0.343931
0.396165
0.45038
0.506356
0.563461
0.616037
0.657339
0.688107
0.711654
0.72912
0.740905
0.746175
0.747069
0.747328
0.747303
0.108467
0.121627
0.15827
0.204237
0.258973
0.317256
0.376881
0.438421
0.501551
0.565407
0.623473
0.668483
0.702238
0.72771
0.746711
0.759404
0.765079
0.766505
0.766662
0.766712
0.066104
0.0785136
0.118825
0.168753
0.228995
0.2933
0.359418
0.427519
0.496971
0.566718
0.629468
0.678666
0.715038
0.742534
0.76314
0.776504
0.782867
0.784666
0.78478
0.784863
0.0297421
0.0424296
0.0854276
0.138243
0.202857
0.271992
0.343535
0.417207
0.492159
0.567554
0.635715
0.688322
0.726851
0.756038
0.777889
0.792042
0.798714
0.800755
0.800938
0.801031
-0.00196198
0.0109363
0.0561015
0.111491
0.179662
0.252752
0.328873
0.407413
0.487555
0.568347
0.640892
0.696402
0.737402
0.76804
0.790669
0.805433
0.812566
0.814762
0.815035
0.815109
-0.0302685
-0.0173089
0.0295395
0.0873808
0.158648
0.235125
0.315222
0.398109
0.482942
0.568274
0.644756
0.703723
0.74647
0.778139
0.80146
0.816854
0.824191
0.826623
0.826961
0.827009
-0.0561071
-0.0431021
0.00493026
0.0651449
0.139191
0.218676
0.302279
0.388947
0.477834
0.56752
0.648468
0.709977
0.754252
0.78716
0.810685
0.826491
0.834169
0.83676
0.837158
0.837176
-0.0802952
-0.0669584
-0.0180811
0.0442958
0.12078
0.202967
0.289652
0.379626
0.472251
0.566208
0.650908
0.714951
0.761194
0.794843
0.819076
0.834857
0.842728
0.84543
0.845847
0.845811
-0.103027
-0.0895232
-0.0397544
0.0245148
0.103076
0.187642
0.277044
0.370022
0.466138
0.563952
0.652341
0.719668
0.767523
0.802087
0.826658
0.842232
0.850151
0.852803
0.853206
0.853026
-0.124468
-0.110914
-0.0603701
0.00550478
0.085831
0.172505
0.264352
0.360083
0.459338
0.56066
0.652964
0.723565
0.773314
0.808885
0.833593
0.849006
0.856578
0.859218
0.859593
0.859495
-0.145042
-0.131304
-0.0801412
-0.0129274
0.0689284
0.157492
0.251535
0.349714
0.451756
0.556519
0.65296
0.726888
0.778999
0.815711
0.840305
0.855262
0.862648
0.865048
0.865418
0.865317
-0.165146
-0.150873
-0.0992631
-0.0308924
0.052299
0.142547
0.23855
0.338911
0.443542
0.551659
0.652032
0.729563
0.784633
0.822582
0.847261
0.861657
0.868384
0.870496
0.870766
0.870667
-0.184935
-0.169908
-0.117858
-0.048436
0.0359275
0.127657
0.225379
0.327713
0.434757
0.545929
0.650141
0.731721
0.789908
0.82995
0.854939
0.868382
0.874236
0.875557
0.875697
0.875615
-0.204265
-0.188507
-0.135994
-0.0655774
0.0198085
0.112811
0.212041
0.316178
0.425448
0.539415
0.647318
0.733093
0.795049
0.837792
0.86373
0.876252
0.880277
0.880297
0.880138
0.880017
-0.223058
-0.206703
-0.153663
-0.0823184
0.0039626
0.098067
0.198614
0.304375
0.415656
0.53212
0.64332
0.733365
0.799613
0.846106
0.874181
0.885805
0.887444
0.8848
0.884384
0.885232
-0.241221
-0.224413
-0.170837
-0.0986314
-0.0115604
0.0834876
0.185167
0.292335
0.405362
0.523986
0.638122
0.732438
0.803575
0.85465
0.886319
0.898592
0.89744
0.890794
0.885738
0.884367
-0.25877
-0.241582
-0.187458
-0.114474
-0.0267048
0.0691484
0.171769
0.280104
0.394619
0.515142
0.631841
0.730072
0.806182
0.863068
0.900066
0.915515
0.915185
0.90348
0.902512
0.906712
-0.275674
-0.25813
-0.203481
-0.129793
-0.0414099
0.0551069
0.158476
0.267755
0.383508
0.505641
0.624459
0.726
0.807137
0.870312
0.914434
0.936353
0.939222
0.910475
0.870372
0.834835
-0.2919
-0.274082
-0.218932
-0.144656
-0.0557785
0.0412407
0.145151
0.25513
0.371845
0.495278
0.615744
0.719841
0.805306
0.875318
0.92846
0.960109
0.978019
0.959054
0.976021
1.03479
-0.307386
-0.289456
-0.233909
-0.159206
-0.0699913
0.0273241
0.131528
0.241912
0.359209
0.483476
0.605099
0.710898
0.799631
0.875188
0.933885
0.969972
0.980832
0.95902
0.917708
0.932621
-0.32212
-0.304244
-0.248358
-0.173389
-0.0839766
0.0134603
0.117748
0.228251
0.345726
0.47033
0.592526
0.698873
0.788227
0.865382
0.924778
0.960316
0.947948
0.894039
0.830028
0.817722
-0.336071
-0.318412
-0.262277
-0.187206
-0.0977282
-0.000343069
0.103828
0.214169
0.33142
0.455843
0.577892
0.683556
0.770938
0.843506
0.897285
0.90577
0.870742
0.793852
0.719324
0.697025
-0.34929
-0.331973
-0.275672
-0.200669
-0.111267
-0.0140993
0.0897652
0.199679
0.316332
0.440009
0.561053
0.664607
0.746406
0.807385
0.836534
0.823812
0.765954
0.664399
0.577083
0.554949
-0.362226
-0.345307
-0.288941
-0.214147
-0.124942
-0.0281219
0.0752831
0.184558
0.300302
0.422693
0.541815
0.641605
0.716001
0.761288
0.756414
0.721697
0.610992
0.488672
0.381338
0.354244
-0.375781
-0.359251
-0.302779
-0.228257
-0.139329
-0.0428994
0.0599684
0.168473
0.283066
0.403647
0.519843
0.613966
0.681213
0.702632
0.669069
0.581556
0.425808
0.273316
0.144139
0.116595
-0.390467
-0.374159
-0.317519
-0.243251
-0.154607
-0.0585611
0.0437323
0.151372
0.264612
0.382905
0.495221
0.582822
0.639859
0.633106
0.580566
0.431229
0.23181
0.019551
-0.160324
-0.208677
-0.406414
-0.390194
-0.333213
-0.259138
-0.170762
-0.0750825
0.0266062
0.133289
0.244977
0.360511
0.467808
0.549526
0.591907
0.553456
0.466352
0.278952
0.0481884
-0.240041
-0.560927
-0.708715
-0.423678
-0.407373
-0.349996
-0.276033
-0.187849
-0.0925222
0.00852238
0.11415
0.224114
0.336548
0.438028
0.513582
0.538158
0.469253
0.333297
0.128303
-0.105281
-0.448516
-1.03479
-1.60649
-0.442359
-0.425882
-0.367918
-0.29397
-0.205894
-0.110881
-0.0104888
0.0940344
0.202196
0.311431
0.406994
0.474945
0.480798
0.395211
0.204651
-0.0283966
-0.230673
-0.464802
-1.01974
-2.5343
-0.462455
-0.445674
-0.387108
-0.31311
-0.225057
-0.130357
-0.0306692
0.0726615
0.178894
0.284803
0.374413
0.432937
0.418579
0.3374
0.111825
-0.126006
-0.273331
-0.310143
-0.29964
-0.687287
-0.483922
-0.467071
-0.407701
-0.333709
-0.245742
-0.151459
-0.0526448
0.0492717
0.153268
0.255284
0.339355
0.387636
0.357725
0.28855
0.0621642
-0.139818
-0.25014
-0.257721
-0.204358
-0.244573
-0.506566
-0.489717
-0.429739
-0.355886
-0.268038
-0.174306
-0.0765651
0.0236983
0.125093
0.222631
0.301923
0.340262
0.303992
0.235677
0.0306421
-0.129916
-0.211762
-0.219425
-0.267317
-0.271503
-0.530511
-0.513669
-0.453081
-0.379569
-0.291924
-0.198928
-0.102479
-0.00412361
0.0943378
0.187265
0.262043
0.290961
0.257485
0.175503
0.00282357
-0.119848
-0.189985
-0.166719
-0.187221
-0.188788
-0.555323
-0.538322
-0.477697
-0.404748
-0.317274
-0.225241
-0.130299
-0.0340658
0.0611793
0.149578
0.219713
0.238187
0.216844
0.108149
-0.0316971
-0.11473
-0.153978
-0.201044
-0.175964
-0.184384
-0.580846
-0.563451
-0.503344
-0.431124
-0.343825
-0.253089
-0.159855
-0.0659376
0.0257407
0.10991
0.176046
0.18432
0.174548
0.0478934
-0.0684481
-0.13284
-0.110734
-0.170432
-0.150999
-0.155812
-0.606085
-0.588506
-0.529937
-0.458439
-0.371287
-0.282236
-0.190847
-0.0993773
-0.011733
0.0686435
0.132034
0.132936
0.123256
-0.00382754
-0.0951272
-0.146747
-0.134994
-0.15063
-0.156061
-0.154295
-0.630738
-0.613297
-0.55662
-0.485824
-0.399236
-0.312304
-0.222876
-0.13402
-0.0507336
0.0260669
0.0880464
0.0850981
0.0668214
-0.046965
-0.109524
-0.139654
-0.178384
-0.151095
-0.157382
-0.151988
-0.653713
-0.637012
-0.582332
-0.512605
-0.427393
-0.342789
-0.2554
-0.169266
-0.0903772
-0.0174757
0.0438653
0.0411194
0.0115112
-0.084427
-0.125124
-0.113408
-0.185414
-0.132955
-0.148223
-0.140858
-0.674401
-0.658823
-0.606049
-0.5376
-0.455238
-0.372815
-0.287697
-0.204525
-0.129708
-0.0615572
-0.000791725
9.04968e-05
-0.0358013
-0.103614
-0.137774
-0.0975062
-0.141818
-0.123365
-0.129666
-0.126778
-0.691149
-0.677221
-0.627067
-0.560594
-0.481946
-0.401373
-0.318975
-0.238979
-0.167753
-0.105242
-0.0459601
-0.0397957
-0.0709544
-0.108386
-0.133879
-0.113046
-0.124079
-0.123773
-0.123614
-0.123854
-0.703163
-0.691344
-0.644359
-0.580388
-0.505471
-0.42757
-0.348272
-0.271689
-0.203591
-0.147241
-0.089872
-0.077903
-0.100188
-0.106055
-0.123611
-0.137378
-0.124685
-0.13336
-0.126981
-0.12784
-0.708987
-0.699588
-0.6568
-0.596112
-0.524903
-0.45033
-0.374534
-0.301475
-0.236324
-0.185648
-0.130275
-0.115271
-0.137445
-0.109591
-0.093931
-0.128428
-0.108669
-0.140784
-0.140038
-0.14189
-0.708581
-0.701309
-0.662759
-0.60579
-0.538646
-0.468166
-0.396341
-0.326986
-0.264914
-0.218375
-0.165702
-0.151261
-0.179516
-0.14193
-0.0300941
-0.0635898
-0.0716908
-0.0890225
-0.0947553
-0.103591
-0.700956
-0.693666
-0.660365
-0.608677
-0.546326
-0.480169
-0.412451
-0.346527
-0.287295
-0.243051
-0.194392
-0.188221
-0.220042
-0.255171
-0.227591
-0.300267
-0.30804
-0.29321
-0.282243
-0.274836
-0.681239
-0.673042
-0.647373
-0.602747
-0.546192
-0.485068
-0.421727
-0.358799
-0.301071
-0.257155
-0.211426
-0.207493
-0.292572
-0.486481
-0.818622
-0.984378
-1.02218
-0.989463
-0.904975
-0.83425
-0.640721
-0.633029
-0.622329
-0.589022
-0.539493
-0.483162
-0.42387
-0.362468
-0.303531
-0.256577
-0.212508
-0.188612
-0.306407
-0.533528
-0.803204
-0.892592
-0.862866
-0.776025
-0.705263
-0.671285
-0.597781
-0.594591
-0.593302
-0.567326
-0.526053
-0.475487
-0.41916
-0.357796
-0.294002
-0.237696
-0.185012
-0.10955
-0.046183
0.0491237
0.121806
0.246567
0.369201
0.44936
0.513988
0.567708
-0.57389
-0.574966
-0.566596
-0.548683
-0.513794
-0.465662
-0.40896
-0.346046
-0.274418
-0.197773
-0.12025
0.0239705
0.229525
0.56494
0.889243
1.1546
1.34041
1.44554
1.49102
1.50709
-0.542548
-0.54308
-0.538476
-0.532085
-0.502055
-0.456109
-0.398084
-0.331672
-0.2523
-0.157375
-0.0537555
0.0944777
0.349233
0.703533
1.04956
1.33527
1.53669
1.65416
1.70761
1.72631
-0.520286
-0.518888
-0.520556
-0.515214
-0.491179
-0.447648
-0.388267
-0.317583
-0.233683
-0.130109
-0.0160927
0.105162
0.349055
0.658928
0.965788
1.23026
1.43251
1.55618
1.61181
1.62793
-0.50302
-0.501162
-0.504263
-0.497343
-0.483481
-0.443467
-0.382348
-0.307744
-0.221557
-0.117624
-0.00733503
0.0804458
0.283466
0.545373
0.800117
1.02147
1.19938
1.3081
1.35605
1.36823
-0.486327
-0.484409
-0.482731
-0.478063
-0.476678
-0.439595
-0.378594
-0.302643
-0.217658
-0.12064
-0.0174768
0.0476768
0.204135
0.423359
0.628226
0.800328
0.938757
1.02391
1.06034
1.06942
-0.489611
-0.487724
-0.484558
-0.487105
-0.483579
-0.440136
-0.376177
-0.299523
-0.217297
-0.131425
-0.0345191
0.0192816
0.132164
0.310228
0.471832
0.599787
0.699692
0.763277
0.790872
0.797078
-0.506831
-0.506982
-0.508248
-0.517697
-0.503236
-0.447594
-0.374465
-0.294956
-0.215441
-0.141344
-0.0509407
-0.00267122
0.0732963
0.213157
0.337136
0.430865
0.502828
0.549801
0.568645
0.573778
-0.508448
-0.511074
-0.518466
-0.525775
-0.506097
-0.443006
-0.364415
-0.284772
-0.208347
-0.145227
-0.0636181
-0.0186621
0.0287438
0.13583
0.229135
0.297416
0.350318
0.385313
0.398228
0.402995
-0.448901
-0.452714
-0.46479
-0.469071
-0.450996
-0.397818
-0.331738
-0.262349
-0.192889
-0.140085
-0.0708979
-0.0301073
0.000173116
0.0817866
0.14964
0.19823
0.237445
0.263697
0.274001
0.276672
-0.322181
-0.327081
-0.332354
-0.336277
-0.327055
-0.299833
-0.261672
-0.217341
-0.165656
-0.124427
-0.0715428
-0.0372801
-0.0161082
0.0474855
0.0951472
0.12841
0.155759
0.172682
0.18016
0.182274
-0.187575
-0.189754
-0.192914
-0.196915
-0.194809
-0.18769
-0.175527
-0.156502
-0.127708
-0.100394
-0.065694
-0.0387812
-0.0225819
0.0250556
0.0577195
0.0801758
0.0969798
0.10644
0.110032
0.110484
-0.0778964
-0.0791054
-0.0815285
-0.0867973
-0.0924481
-0.0979564
-0.100905
-0.0980194
-0.0873369
-0.0742301
-0.0547425
-0.0365527
-0.0225196
0.0101387
0.0315844
0.0455586
0.0544063
0.0582642
0.0586619
0.0578168
-0.0049715
-0.00583514
-0.00773033
-0.0138179
-0.0250563
-0.0376029
-0.0473485
-0.0528578
-0.0529525
-0.0505706
-0.0413149
-0.0306636
-0.0204475
-0.000406178
0.0121945
0.0193926
0.0228017
0.0231002
0.0216655
0.0203608
0.0337721
0.0331662
0.0315102
0.025616
0.0139667
-0.000331643
-0.0129867
-0.0227881
-0.0281391
-0.0317331
-0.0280688
-0.0230767
-0.0173952
-0.00751365
-0.00213866
0.000271939
0.00086696
-0.000582487
-0.00279034
-0.00422765
0.0507072
0.0501938
0.0487058
0.0434734
0.0332137
0.0198837
0.00703179
-0.00422614
-0.0118098
-0.0181156
-0.0168835
-0.0154155
-0.0144455
-0.0110999
-0.0103753
-0.0108627
-0.0122755
-0.0146516
-0.0168355
-0.0182036
0.054711
0.0543163
0.0531226
0.0489192
0.0406295
0.0294402
0.0177829
0.00666244
-0.00152762
-0.00878055
-0.00895568
-0.00905454
-0.0112741
-0.0116619
-0.0130463
-0.0149728
-0.017525
-0.0201962
-0.022188
-0.0234881
0.0520933
0.0518093
0.0508972
0.0477209
0.0414504
0.0327553
0.023036
0.0130838
0.00527205
-0.00222626
-0.00344096
-0.00495965
-0.00793137
-0.00933992
-0.0117014
-0.0145916
-0.0174847
-0.0198798
-0.0215549
-0.0227249
0.0465928
0.046408
0.0457527
0.0434602
0.0389086
0.0324833
0.0248799
0.0166226
0.00997516
0.00252272
0.000520525
-0.00170239
-0.00446857
-0.00603402
-0.00872196
-0.0116376
-0.0142407
-0.0162365
-0.0174464
-0.0184863
0.0399986
0.0398882
0.0394321
0.0378434
0.0346539
0.0300335
0.024401
0.0178685
0.0126623
0.0056921
0.00335094
0.00155676
-0.00110048
-0.00313161
-0.00584602
-0.00837899
-0.0104635
-0.0120114
-0.0127539
-0.0136471
0.0333543
0.0332839
0.0329639
0.0318495
0.0295741
0.026211
0.0220243
0.0169114
0.0132584
0.00736261
0.00529292
0.00378172
0.00135664
-0.000514972
-0.00324228
-0.00557374
-0.00719029
-0.00828311
-0.00863255
-0.00938595
0.0271071
0.0270722
0.0268695
0.0261405
0.0245811
0.0221368
0.0189586
0.0148737
0.0122928
0.00763617
0.00589903
0.0045267
0.00232314
0.000881078
-0.00125125
-0.00286608
-0.0040303
-0.00490855
-0.00513487
-0.00576458
0.0212593
0.0212147
0.0210466
0.0205538
0.0195505
0.017951
0.0157643
0.0126816
0.0107682
0.00708972
0.00540156
0.00416472
0.00208451
0.00095254
-0.00027781
-0.00106681
-0.00176555
-0.00230462
-0.0023844
-0.00292464
0.0162307
0.0161866
0.0160745
0.0157539
0.0150969
0.0140403
0.0126071
0.0103461
0.00903368
0.00588861
0.00433478
0.00292946
0.00075566
0.000395451
1.45368e-05
-0.000186231
-0.000365691
-0.000588153
-0.000654886
-0.00116447
0.0119975
0.0119542
0.0118901
0.0117099
0.0113353
0.0106442
0.00969794
0.00803004
0.00725783
0.0044029
0.00315968
0.00136959
-0.000647294
-0.000424164
-0.000196827
-1.14409e-05
0.000110947
4.10125e-05
3.18591e-05
-0.000376715
0.00818175
0.00814317
0.0080906
0.00796164
0.00772284
0.00729871
0.00680576
0.00560411
0.00527125
0.00291484
0.00200099
0.000237344
-0.00132334
-0.000804817
-0.000571894
-0.000251876
0.000125941
0.000207054
0.000223187
-0.000185786
0.00479269
0.004755
0.0047318
0.00470693
0.00459505
0.00431586
0.00408873
0.00319247
0.0031755
0.00148199
0.00100298
-0.000402946
-0.0015795
-0.000645748
-0.000788229
-0.000675227
-0.000355819
-0.00017462
-3.72092e-05
-0.00036764
0.0018894
0.00187487
0.00188143
0.00190786
0.001907
0.00178327
0.00171233
0.00110352
0.00137583
0.000476771
0.000565537
-6.30074e-06
-0.00069178
-0.000102671
-0.00122847
-0.00199831
-0.00273305
-0.00315394
-0.00286418
-0.00288997
-1.07263
-0.232621
0.0374431
0.313764
0.495479
0.651598
0.778074
0.906997
1.04864
1.13097
-0.0921363
0.314692
0.331268
0.519587
0.643606
0.754898
0.850698
0.936039
0.963478
0.921416
0.28495
0.498828
0.534012
0.67045
0.756414
0.836274
0.90215
0.95159
0.953692
0.967748
0.514507
0.657512
0.692601
0.794456
0.851348
0.909096
0.953922
0.986278
0.995337
1.019
0.692537
0.79399
0.823748
0.891448
0.935885
0.97695
1.00908
1.03336
1.04313
1.0747
0.835883
0.904732
0.935065
0.978002
1.0141
1.04425
1.06854
1.08926
1.1034
1.13168
0.955097
1.00569
1.03126
1.05926
1.08693
1.11072
1.13068
1.14991
1.1648
1.1913
1.05891
1.09593
1.11701
1.13767
1.15847
1.17787
1.19527
1.21337
1.22825
1.25191
1.15292
1.18204
1.19838
1.21365
1.22976
1.24582
1.26137
1.27828
1.2919
1.31422
1.2412
1.26166
1.27651
1.28968
1.30325
1.31702
1.33052
1.34511
1.35665
1.37629
1.32664
1.34243
1.35625
1.36806
1.37998
1.39161
1.40275
1.41443
1.42211
1.43891
1.41187
1.42441
1.43812
1.44987
1.46051
1.4703
1.47913
1.48739
1.49096
1.50221
1.50061
1.51142
1.5249
1.53444
1.54201
1.5493
1.55649
1.56298
1.56407
1.57144
1.59902
1.60362
1.61182
1.61657
1.61997
1.62446
1.63045
1.63813
1.64202
1.6519
1.71233
1.69923
1.69194
1.68622
1.68349
1.68483
1.69119
1.70356
1.71837
1.74803
1.83433
1.77829
1.74727
1.73008
1.72186
1.7218
1.73061
1.75021
1.78205
1.8513
)
;

boundaryField
{
    wall-4
    {
        type            zeroGradient;
    }
    pressure-outlet-7
    {
        type            fixedValue;
        value           uniform 0;
    }
    velocity-inlet-6
    {
        type            zeroGradient;
    }
    velocity-inlet-5
    {
        type            zeroGradient;
    }
    frontAndBackPlanes
    {
        type            empty;
    }
}


// ************************************************************************* //
