/*--------------------------------*- C++ -*----------------------------------*\
  =========                 |
  \\      /  F ield         | OpenFOAM: The Open Source CFD Toolbox
   \\    /   O peration     | Website:  https://openfoam.org
    \\  /    A nd           | Version:  10
     \\/     M anipulation  |
\*---------------------------------------------------------------------------*/
FoamFile
{
    format      ascii;
    class       surfaceScalarField;
    location    "52";
    object      phi;
}
// * * * * * * * * * * * * * * * * * * * * * * * * * * * * * * * * * * * * * //

dimensions      [0 3 -1 0 0 0 0];

internalField   nonuniform List<scalar> 
4262
(
0.107142
0.470846
0.0955809
0.705147
0.069408
0.858476
0.0474242
1.02075
0.0310612
1.21488
0.0198511
1.44943
0.0124413
1.73327
0.00724048
2.07624
0.00332692
2.48916
-0.000368866
2.98599
-0.00405794
2.98598
-0.00792337
2.48911
-0.0129777
2.07609
-0.0201754
1.73306
-0.0311744
1.44922
-0.0472501
1.21459
-0.0689908
1.0205
-0.0952358
0.858548
-0.107079
0.705429
0.470909
0.112878
0.357969
0.135294
0.68273
0.120389
0.873381
0.0977998
1.04334
0.0745378
1.23814
0.052841
1.47113
0.0344638
1.75165
0.020244
2.09046
0.00889655
2.5005
-0.00124106
2.99613
-0.0112841
2.99602
-0.0224238
2.50025
-0.0364794
2.09015
-0.0547715
1.75135
-0.0764849
1.47093
-0.100138
1.23825
-0.123282
1.04365
-0.136907
0.872174
-0.113524
0.682046
0.357385
0.0920603
0.265909
0.125006
0.649784
0.121165
0.877222
0.104971
1.05953
0.0863312
1.25678
0.0671701
1.49029
0.0482207
1.7706
0.0301905
2.10849
0.0137164
2.51698
-0.00210186
3.01194
-0.0177549
3.01168
-0.0338191
2.51631
-0.0513567
2.10768
-0.0698476
1.76984
-0.0883271
1.48941
-0.105694
1.25561
-0.119921
1.05788
-0.125231
0.877483
-0.0923329
0.649148
0.265052
0.0640413
0.201867
0.104921
0.608905
0.106676
0.875467
0.0952418
1.07096
0.0813249
1.2707
0.0666027
1.50501
0.0504755
1.78673
0.0333317
2.12563
0.0156246
2.53469
-0.00310404
3.03067
-0.0216135
3.03019
-0.038837
2.53354
-0.0553388
2.12419
-0.0706224
1.78513
-0.0844816
1.50327
-0.0981696
1.2693
-0.10991
1.06962
-0.106973
0.874546
-0.0648847
0.60706
0.200167
0.0374727
0.164395
0.0807226
0.565655
0.0910856
0.865104
0.0838932
1.07816
0.0712977
1.28329
0.0594755
1.51683
0.0464873
1.79972
0.0315493
2.14057
0.014632
2.5516
-0.0044505
3.04976
-0.0230932
3.04883
-0.0391628
2.54961
-0.05312
2.13814
-0.0652349
1.79724
-0.0764833
1.51452
-0.0884306
1.28125
-0.0948293
1.07601
-0.0830539
0.862771
-0.0383356
0.562341
0.161832
0.0194994
0.144895
0.0573038
0.52785
0.0727726
0.849635
0.070754
1.08018
0.0620143
1.29203
0.0511729
1.52767
0.040007
1.81088
0.0273866
2.15319
0.0123655
2.56662
-0.0053122
3.06743
-0.0228278
3.06635
-0.0372031
2.56398
-0.0487506
2.14969
-0.0586894
1.80718
-0.0685021
1.52433
-0.0761662
1.28891
-0.0770269
1.07687
-0.059936
0.84568
-0.0203524
0.522758
0.141479
0.010646
0.134249
0.0424209
0.496076
0.0585241
0.833532
0.0587979
1.0799
0.0526857
1.29815
0.0433899
1.53697
0.0331162
1.82116
0.0217984
2.16451
0.00846529
2.57996
-0.00751083
3.08341
-0.0228235
3.08166
-0.0347221
2.57588
-0.0445973
2.15957
-0.0534587
1.81604
-0.061401
1.53227
-0.0659995
1.29351
-0.0641
1.07498
-0.0457877
0.827368
-0.0116705
0.48864
0.129809
0.00661391
0.127635
0.0331145
0.469575
0.049508
0.817139
0.0510764
1.07833
0.0459594
1.30326
0.0375497
1.54538
0.0279253
1.83078
0.0171226
2.17531
0.00522994
2.59185
-0.00848088
3.09712
-0.0218938
3.09507
-0.0327581
2.58674
-0.0419147
2.16872
-0.0497354
1.82386
-0.0564211
1.53896
-0.0597216
1.29681
-0.0561534
1.07141
-0.037105
0.80832
-0.0078414
0.459377
0.121967
0.00477268
0.122863
0.0267086
0.447639
0.042606
0.801241
0.0448104
1.07613
0.040269
1.3078
0.0326752
1.55297
0.0235886
1.83987
0.0131251
2.18577
0.00140405
2.60357
-0.0116819
3.11021
-0.0235607
3.10695
-0.0332293
2.59641
-0.041553
2.17705
-0.0484665
1.83078
-0.0538703
1.54436
-0.0561837
1.29912
-0.0512875
1.06651
-0.031767
0.788799
-0.00629712
0.433907
0.11567
0.00378535
0.119077
0.021851
0.429573
0.0371373
0.785955
0.0399959
1.07327
0.0357226
1.31208
0.0284732
1.56022
0.0197391
1.8486
0.00967496
2.19584
-0.00148938
2.61474
-0.0134629
3.12218
-0.0249117
3.1184
-0.0342945
2.6058
-0.0418332
2.18458
-0.0480439
1.83699
-0.052847
1.54917
-0.0541064
1.30038
-0.0477565
1.06016
-0.0279897
0.769032
-0.00568112
0.411598
0.109989
0.00307764
0.116
0.017646
0.415005
0.0317042
0.771897
0.0348664
1.07011
0.0309481
1.316
0.0239918
1.56718
0.0155921
1.857
0.00579422
2.20564
-0.00543526
2.62596
-0.0178101
3.13455
-0.0287377
3.12933
-0.0369584
2.61402
-0.0435233
2.19115
-0.0486274
1.84209
-0.0522688
1.55281
-0.0525002
1.30061
-0.0449386
1.0526
-0.0251674
0.749261
-0.00538917
0.39182
0.1046
0.00244535
0.113554
0.0140623
0.403388
0.0268043
0.759155
0.0299906
1.06692
0.026076
1.31991
0.0191612
1.57409
0.0108221
1.86534
0.0012179
2.21524
-0.00942003
2.6366
-0.0208486
3.14598
-0.0312861
3.13976
-0.0393289
2.62206
-0.0451069
2.19693
-0.0494494
1.84643
-0.0523527
1.55571
-0.0518204
1.30008
-0.042889
1.04367
-0.0230893
0.729461
-0.0052071
0.373938
0.0993929
0.00173196
0.111822
0.0106561
0.394464
0.0216072
0.748204
0.0243763
1.06415
0.0204169
1.32387
0.0135141
1.581
0.00524092
1.87361
-0.00409268
2.22457
-0.0147811
2.64729
-0.0266482
3.15785
-0.0364377
3.14955
-0.0428398
2.62846
-0.0475521
2.20164
-0.0511739
1.85006
-0.0531075
1.55765
-0.0517695
1.29874
-0.0417048
1.0336
-0.0217768
0.709533
-0.00513831
0.3573
0.0942546
0.00090126
0.110921
0.00730158
0.388064
0.0166964
0.738809
0.019134
1.06172
0.014834
1.32817
0.00754454
1.58829
-0.00100579
1.88216
-0.0106062
2.23417
-0.0209666
2.65765
-0.0317562
3.16864
-0.0408318
3.15863
-0.0469978
2.63463
-0.0508461
2.20549
-0.0536769
1.85289
-0.0546103
1.55858
-0.0522733
1.29641
-0.0408892
1.02222
-0.0207538
0.689398
-0.00502218
0.341568
0.0892324
0.000191441
0.11073
0.00435303
0.383902
0.0112559
0.731906
0.0125186
1.06045
0.00799022
1.3327
0.000606492
1.59567
-0.00839878
1.89117
-0.0183395
2.24411
-0.0290925
2.6684
-0.0400007
3.17955
-0.04833
3.16696
-0.0529336
2.63923
-0.0557679
2.20832
-0.0577116
1.85483
-0.0577025
1.55857
-0.0539698
1.29267
-0.041059
1.00931
-0.0204387
0.668778
-0.00507863
0.326208
0.0841538
-0.000740822
0.11147
0.000731497
0.38243
0.00574568
0.726892
0.00639892
1.0598
0.00113962
1.33796
-0.00713578
1.60394
-0.0166927
1.90072
-0.027054
2.25448
-0.0377155
2.67907
-0.0477246
3.18956
-0.0549151
3.17415
-0.0591049
2.64342
-0.0612644
2.21048
-0.0622498
1.85582
-0.0612561
1.55758
-0.0559393
1.28736
-0.0415489
0.994918
-0.0204007
0.647629
-0.00516412
0.310971
0.0789896
-0.00158839
0.113059
-0.00236222
0.383204
-0.000306054
0.724835
-0.00188623
1.06138
-0.00793196
1.344
-0.0165279
1.61254
-0.0267624
1.91096
-0.0380471
2.26576
-0.0495036
2.69052
-0.0596755
3.19973
-0.0663419
3.18081
-0.0692659
2.64634
-0.0699507
2.21117
-0.0694392
1.8553
-0.0668149
1.55495
-0.0595729
1.28012
-0.0432519
0.978597
-0.0210321
0.62541
-0.00540545
0.295345
0.0735842
-0.00297236
0.116031
-0.00613142
0.386363
-0.00755756
0.726262
-0.0102724
1.06409
-0.0174612
1.35119
-0.0275296
1.62261
-0.038735
1.92216
-0.050421
2.27745
-0.0618042
2.70191
-0.0714455
3.20937
-0.0766856
3.18605
-0.0783256
2.64798
-0.0779167
2.21076
-0.0765845
1.85397
-0.0731844
1.55155
-0.0641571
1.27109
-0.0456692
0.960109
-0.0221036
0.601844
-0.00576032
0.279001
0.0678239
-0.00425896
0.12029
-0.0103522
0.392456
-0.0152512
0.731161
-0.0212102
1.07005
-0.0296876
1.35967
-0.0407046
1.63363
-0.0530812
1.93454
-0.0661835
2.29055
-0.0788276
2.71455
-0.0887067
3.21925
-0.0930078
3.19036
-0.0934101
2.64839
-0.0917576
2.20911
-0.0881004
1.85032
-0.0819579
1.54541
-0.070331
1.25946
-0.0490996
0.938878
-0.0236867
0.576431
-0.00621332
0.261528
0.0616105
-0.00571336
0.126003
-0.0153501
0.402093
-0.0241524
0.739963
-0.0327998
1.0787
-0.0433957
1.37027
-0.0565221
1.64675
-0.0704443
1.94846
-0.0842678
2.30437
-0.0968265
2.72711
-0.106323
3.22874
-0.109656
3.19369
-0.107917
2.64665
-0.103295
2.20448
-0.0987903
1.84581
-0.0919253
1.53854
-0.0777188
1.24526
-0.0533787
0.914538
-0.0256954
0.548748
-0.00675906
0.242592
0.0548515
-0.00798054
0.133984
-0.0221168
0.416229
-0.0363049
0.754151
-0.0483434
1.09074
-0.0606836
1.38261
-0.075502
1.66157
-0.0914287
1.96439
-0.107522
2.32046
-0.121815
2.7414
-0.131259
3.23819
-0.13229
3.19472
-0.128306
2.64267
-0.122907
2.19908
-0.115126
1.83803
-0.104418
1.52784
-0.0866465
1.22748
-0.0586309
0.886522
-0.0280443
0.518161
-0.00733862
0.221886
0.0475129
-0.0104552
0.144439
-0.0294816
0.435255
-0.049775
0.774444
-0.0666168
1.10758
-0.0821675
1.39816
-0.0998596
1.67926
-0.1183
1.98283
-0.135698
2.33786
-0.149358
2.75506
-0.156295
3.24513
-0.155555
3.19398
-0.149599
2.63671
-0.14095
2.19044
-0.131464
1.82854
-0.118925
1.5153
-0.0971491
1.20571
-0.0645653
0.853938
-0.0306182
0.484214
-0.00791867
0.199186
0.0395942
-0.0151456
0.159585
-0.0417365
0.461846
-0.0689043
0.801612
-0.0909114
1.12959
-0.11035
1.41759
-0.131634
1.70055
-0.152491
2.00369
-0.171393
2.35676
-0.1854
2.76907
-0.191411
3.25114
-0.186805
3.18937
-0.177175
2.62708
-0.166204
2.17946
-0.153267
1.81561
-0.135806
1.49784
-0.109184
1.17909
-0.0714987
0.816253
-0.0334826
0.446198
-0.00845602
0.17416
0.0311382
-0.0194698
0.179055
-0.0553143
0.497691
-0.0925181
0.838816
-0.121959
1.15903
-0.146634
1.44227
-0.171639
1.72555
-0.194683
2.02673
-0.213686
2.37577
-0.225836
2.78122
-0.227396
3.2527
-0.219196
3.18117
-0.206223
2.6141
-0.191049
2.16429
-0.175411
1.79997
-0.154995
1.47742
-0.122513
1.1466
-0.0785665
0.772307
-0.0360649
0.403696
-0.00870243
0.146797
0.0224357
-0.0325028
0.211557
-0.0815365
0.546724
-0.128698
0.885978
-0.164738
1.19507
-0.195307
1.47284
-0.224796
1.75504
-0.249113
2.05105
-0.267551
2.39421
-0.277173
2.79084
-0.274782
3.25031
-0.260575
3.16697
-0.242672
2.5962
-0.224903
2.14652
-0.204722
1.77979
-0.177557
1.45026
-0.138228
1.10727
-0.087035
0.721114
-0.0388703
0.355532
-0.00879939
0.116726
0.0136363
-0.0469826
0.25854
-0.120469
0.62021
-0.183379
0.948888
-0.227786
1.23948
-0.264049
1.5091
-0.294035
1.78503
-0.31587
2.07288
-0.329601
2.40794
-0.332674
2.79391
-0.323186
3.24082
-0.303712
3.14749
-0.281387
2.57388
-0.257822
2.12296
-0.233459
1.75542
-0.201935
1.41873
-0.153641
1.05898
-0.0930592
0.660532
-0.0396836
0.302156
-0.00870963
0.0857525
0.00492671
-0.0339345
0.292474
-0.0972012
0.683477
-0.155444
1.00713
-0.202493
1.28652
-0.244981
1.55159
-0.282644
1.82269
-0.317405
2.10765
-0.348381
2.43891
-0.371802
2.81733
-0.380949
3.24997
-0.371499
3.13804
-0.352304
2.55468
-0.330279
2.10093
-0.299747
1.72489
-0.251079
1.37006
-0.182063
0.989964
-0.102932
0.581401
-0.0403512
0.239575
-0.00902176
0.054423
-0.00409505
-0.0128515
0.305326
-0.0478994
0.718525
-0.0892717
1.0485
-0.128353
1.32561
-0.167061
1.5903
-0.201118
1.85675
-0.232363
2.13889
-0.258308
2.46486
-0.274105
2.83313
-0.275223
3.25108
-0.262661
3.12548
-0.241924
2.53395
-0.211866
2.07087
-0.176318
1.68935
-0.136504
1.33025
-0.0879841
0.941445
-0.0407957
0.534213
-0.0136781
0.212457
-0.00320856
0.0439534
-0.0073036
0.000122316
0.305204
-0.0248019
0.743449
-0.0544371
1.07814
-0.0843295
1.3555
-0.115319
1.62129
-0.145397
1.88683
-0.172748
2.16624
-0.194854
2.48696
-0.208528
2.8468
-0.21038
3.25294
-0.193482
3.10858
-0.163849
2.50431
-0.134426
2.04145
-0.102539
1.65746
-0.0644551
1.29216
-0.0272643
0.904254
-0.00307398
0.510023
0.00236114
0.207022
0.000552395
0.0457622
-0.00675121
0.000754184
0.304449
-0.0124915
0.756695
-0.0339373
1.09958
-0.0585599
1.38012
-0.0842661
1.64699
-0.109464
1.91202
-0.132556
2.18933
-0.15108
2.50549
-0.161304
2.85703
-0.156334
3.24796
-0.135456
3.08771
-0.110512
2.47937
-0.0797938
2.01073
-0.0463969
1.62406
-0.0176829
1.26345
0.00401385
0.882557
0.0135461
0.50049
0.00966023
0.210908
0.00279369
0.0526287
-0.00395752
0.00388282
0.300567
-0.00566863
0.766246
-0.0235702
1.11749
-0.0439883
1.40054
-0.0654015
1.66841
-0.0868004
1.93342
-0.107023
2.20956
-0.123415
2.52188
-0.132325
2.86594
-0.12805
3.24369
-0.110313
3.06997
-0.0833565
2.45241
-0.0523939
1.97977
-0.0240666
1.59573
0.00368853
1.2357
0.0226346
0.863611
0.0244121
0.498713
0.0145055
0.220815
0.00419537
0.0629388
0.000237846
0.00520532
0.295361
-0.000861524
0.772313
-0.016905
1.13353
-0.0352602
1.41889
-0.0543829
1.68753
-0.0732712
1.95231
-0.0909522
2.22724
-0.105031
2.53596
-0.111693
2.8726
-0.105751
3.23775
-0.086797
3.05101
-0.061089
2.4267
-0.0352481
1.95393
-0.00741902
1.56791
0.0137727
1.2145
0.025766
0.851618
0.0256973
0.498782
0.0149836
0.231528
0.00442563
0.0734968
0.00466347
0.00385831
0.291503
-0.000653212
0.776825
-0.0140978
1.14697
-0.0308263
1.43562
-0.0479441
1.70465
-0.0649696
1.96934
-0.0811826
2.24345
-0.0945298
2.54931
-0.101825
2.8799
-0.0983213
3.23424
-0.080334
3.03303
-0.0561987
2.40257
-0.0302247
1.92795
-0.00826972
1.54595
0.0124248
1.19381
0.0248789
0.839164
0.0230814
0.500579
0.0136201
0.24099
0.00412492
0.0829919
0.00878839
0.0024211
0.289082
-0.00141581
0.780662
-0.0134673
1.15903
-0.0283755
1.45053
-0.044572
1.72084
-0.0606744
1.98544
-0.0760656
2.25884
-0.0890469
2.56229
-0.0959535
2.8868
-0.0918254
3.23012
-0.0754602
3.01666
-0.0546342
2.38174
-0.0340382
1.90736
-0.00999531
1.52191
0.00748337
1.17633
0.0174944
0.829153
0.0180866
0.499987
0.0104163
0.24866
0.003169
0.0902392
0.0119574
0.000158133
0.288924
-0.00379395
0.784614
-0.014517
1.16975
-0.0279841
1.464
-0.0430454
1.7359
-0.0584018
2.00079
-0.0735073
2.27395
-0.0865274
2.57531
-0.0943146
2.89459
-0.0929075
3.22871
-0.0795999
3.00335
-0.0604068
2.36255
-0.0380876
1.88504
-0.0193851
1.5032
-0.000726515
1.15767
0.0110486
0.817377
0.0112213
0.499814
0.00687464
0.253007
0.00220945
0.0949044
0.0141668
-0.000656754
0.289581
-0.00572218
0.789679
-0.0156688
1.1797
-0.0282747
1.4766
-0.0427811
1.75041
-0.0577523
2.01577
-0.0726819
2.28888
-0.0860842
2.58871
-0.0951833
2.90369
-0.0950338
3.22856
-0.0834351
2.99176
-0.066857
2.34597
-0.0484119
1.86659
-0.0269827
1.48178
-0.0104937
1.14118
-0.000133313
0.807017
0.00385302
0.495828
0.00249113
0.254368
0.00112446
0.0962711
0.0152913
-0.00219726
0.291778
-0.00763495
0.795117
-0.0172516
1.18931
-0.029264
1.48862
-0.0430336
1.76418
-0.0575537
2.03029
-0.0725366
2.30386
-0.086589
2.60276
-0.0969213
2.91402
-0.0990545
3.23069
-0.0904625
2.98316
-0.0744564
2.32997
-0.0544951
1.84663
-0.0377047
1.46499
-0.0201517
1.12363
-0.00731472
0.79418
-0.00281164
0.491325
-0.000977912
0.252535
-0.000137572
0.0954308
0.0151537
-0.00356973
0.295348
-0.00930923
0.800856
-0.0185666
1.19857
-0.0301277
1.50018
-0.0435242
1.77758
-0.057846
2.04461
-0.0729776
2.31899
-0.0877212
2.6175
-0.099557
2.92586
-0.104695
3.23583
-0.0980262
2.9765
-0.083157
2.3151
-0.066219
1.82969
-0.0449254
1.44369
-0.0280348
1.10674
-0.0158824
0.782028
-0.00757852
0.483021
-0.00344698
0.248403
-0.000706594
0.0926904
0.0144471
-0.00418624
0.299534
-0.010445
0.807115
-0.0197465
1.20787
-0.0309707
1.5114
-0.0438951
1.7905
-0.0579807
2.05869
-0.0732563
2.33427
-0.0885811
2.63283
-0.101781
2.93906
-0.109464
3.24351
-0.10533
2.97236
-0.091923
2.30169
-0.0714225
1.80919
-0.0533028
1.42557
-0.0343685
1.0878
-0.0196885
0.767348
-0.0116159
0.474948
-0.00483207
0.241619
-0.00114141
0.0889997
0.0133057
-0.00441328
0.303947
-0.011304
0.814006
-0.0205136
1.21708
-0.0314685
1.52236
-0.0441649
1.8032
-0.0580901
2.07262
-0.0734598
2.34964
-0.0894534
2.64882
-0.104469
2.95407
-0.115219
3.25426
-0.114218
2.97136
-0.101358
2.28883
-0.0831154
1.79095
-0.0588859
1.40134
-0.039433
1.06835
-0.0247195
0.752634
-0.0128734
0.463102
-0.00558009
0.234326
-0.00123867
0.0846583
0.0120671
-0.00445295
0.3084
-0.0116824
0.821235
-0.0209499
1.22635
-0.031694
1.5331
-0.0440584
1.81556
-0.0577891
2.08635
-0.0732488
2.3651
-0.0898048
2.66538
-0.10603
2.9703
-0.118821
3.26705
-0.121127
2.97367
-0.110221
2.27792
-0.0879633
1.76869
-0.0653498
1.37873
-0.0421745
1.04518
-0.0244654
0.734925
-0.0134288
0.452066
-0.00496312
0.22586
-0.00102714
0.0807223
0.0110399
-0.00454892
0.312949
-0.0120355
0.828722
-0.0210862
1.2354
-0.031599
1.54361
-0.0437587
1.82772
-0.057296
2.09989
-0.0727786
2.38058
-0.0898402
2.68244
-0.107518
2.98798
-0.123064
3.2826
-0.128027
2.97863
-0.118175
2.26807
-0.0997541
1.75027
-0.0705845
1.34956
-0.0439276
1.01852
-0.0237414
0.714739
-0.00903042
0.437355
-0.00220578
0.219036
0.000205973
0.0783105
0.0112459
-0.00455587
0.317505
-0.0120033
0.836169
-0.0209408
1.24434
-0.0312006
1.55387
-0.0430205
1.83954
-0.0563609
2.11323
-0.0718613
2.39608
-0.0893035
2.69988
-0.107969
3.00664
-0.125258
3.29989
-0.1342
2.98757
-0.127713
2.26158
-0.104898
1.72746
-0.0769968
1.32166
-0.0438756
0.985399
-0.0169453
0.687809
-0.00141945
0.421829
0.00308425
0.214532
-0.0013339
0.0827287
0.00991199
-0.00458143
0.322086
-0.0120132
0.843601
-0.0206186
1.25294
-0.0305832
1.56384
-0.0421489
1.85111
-0.0552478
2.12633
-0.0706568
2.41149
-0.0883881
2.71761
-0.108032
3.02628
-0.127508
3.31936
-0.138609
2.99867
-0.134011
2.25698
-0.11752
1.71097
-0.0839309
1.28807
-0.0444232
0.945891
-0.00587112
0.649256
0.0254291
0.390529
0.0372968
0.202664
0.0255602
0.0944653
0.0354722
-0.0044569
0.326543
-0.0116738
0.850818
-0.0200824
1.26135
-0.0297223
1.57348
-0.0408881
1.86227
-0.0537336
2.13917
-0.0690329
2.42679
-0.0869115
2.73549
-0.107214
3.04659
-0.128212
3.34036
-0.142431
3.01289
-0.143537
2.25809
-0.12407
1.6915
-0.0926512
1.25665
-0.0455084
0.898748
0.00316376
0.600584
0.0460745
0.347618
0.0471108
0.201628
0.0207408
0.120835
0.0562129
-0.00431908
0.330862
-0.0114188
0.857918
-0.0194459
1.26938
-0.0287227
1.58275
-0.0396125
1.87316
-0.0521514
2.15171
-0.0672413
2.44188
-0.085204
2.75346
-0.106095
3.06748
-0.128747
3.36301
-0.144685
3.02883
-0.148156
2.26156
-0.138196
1.68154
-0.105163
1.22362
-0.0553275
0.848912
0.0174269
0.52783
0.116877
0.248167
0.192641
0.125864
0.181784
0.131693
0.237997
-0.00416485
0.335027
-0.0110859
0.864839
-0.0191126
1.2774
-0.0283839
1.59203
-0.0393951
1.88417
-0.0523983
2.16471
-0.0684128
2.45789
-0.0879351
2.77298
-0.111452
3.091
-0.138356
3.38992
-0.160623
3.0511
-0.171112
2.27205
-0.160842
1.67127
-0.13224
1.19501
-0.0755445
0.792217
-0.0192293
0.471515
-0.069692
0.29863
-0.357648
0.41382
-0.941377
0.715421
0.900058
-1.60344
-0.00400048
0.339028
-0.0108114
0.871649
-0.0185525
1.28514
-0.0276557
1.60113
-0.0386234
1.89514
-0.0517273
2.17782
-0.0681361
2.4743
-0.0886203
2.79346
-0.113998
3.11637
-0.144409
3.42033
-0.170996
3.07769
-0.1855
2.28655
-0.193658
1.67943
-0.176153
1.17751
-0.149939
0.766003
-0.241702
0.563278
-0.693206
0.750133
-1.44178
1.1624
-2.04955
1.32319
1.21691
-2.3664
-0.0037653
0.342793
-0.0102476
0.878132
-0.0178204
1.29272
-0.0267296
1.61004
-0.0375098
1.90592
-0.0507
2.19101
-0.067512
2.49111
-0.088846
2.8148
-0.116045
3.14357
-0.150109
3.45439
-0.183521
3.1111
-0.209032
2.31206
-0.217804
1.6882
-0.207955
1.16766
-0.294235
0.852283
-0.753484
1.02253
-1.54387
1.54051
-2.10971
1.72825
-2.34903
1.5625
1.33121
-2.46334
-0.0036113
0.346404
-0.00981563
0.884336
-0.0170216
1.29992
-0.0257001
1.61872
-0.0363727
1.91659
-0.0495949
2.20423
-0.0666839
2.5082
-0.0888561
2.83697
-0.117848
3.17256
-0.155508
3.49205
-0.194125
3.14971
-0.224041
2.34198
-0.252564
1.71672
-0.333321
1.24842
-0.685963
1.20492
-1.43684
1.7734
-2.02668
2.13036
-2.26646
1.96802
-2.37969
1.67573
1.39551
-2.44398
-0.00330932
0.349713
-0.00907516
0.890102
-0.016026
1.30687
-0.0244405
1.62713
-0.0349194
1.92707
-0.0481375
2.21745
-0.0654906
2.52555
-0.0883495
2.85983
-0.118991
3.20321
-0.160285
3.53335
-0.20684
3.19627
-0.251199
2.38634
-0.293565
1.75909
-0.474328
1.42918
-1.09353
1.82412
-1.78736
2.46724
-2.10819
2.45118
-2.25644
2.11628
-2.3385
1.75779
1.46134
-2.40433
-0.00326659
0.35298
-0.00900712
0.895842
-0.0158465
1.31371
-0.0242992
1.63558
-0.0350828
1.93786
-0.0486073
2.23097
-0.0664522
2.5434
-0.0903006
2.88368
-0.122779
3.23568
-0.167734
3.5783
-0.219949
3.24849
-0.266126
2.43252
-0.356434
1.8494
-0.747644
1.82039
-1.48972
2.5662
-1.96311
2.94062
-2.16297
2.65105
-2.26919
2.22249
-2.34623
1.83484
1.52484
-2.40973
-0.00333052
0.356311
-0.0092315
0.901743
-0.0165378
1.32102
-0.0254443
1.64449
-0.036671
1.94908
-0.0508385
2.24514
-0.0695841
2.56214
-0.0946486
2.90874
-0.129079
3.27011
-0.177872
3.6271
-0.235056
3.30567
-0.297913
2.49537
-0.487297
2.03878
-1.04635
2.37944
-1.6778
3.19765
-1.95353
3.21635
-2.10043
2.79796
-2.21421
2.33627
-2.30771
1.92833
1.58649
-2.36936
-0.00341814
0.359729
-0.00975098
0.908076
-0.0173543
1.32862
-0.0267394
1.65388
-0.0385874
1.96093
-0.0534406
2.25999
-0.0730523
2.58176
-0.0994563
2.93514
-0.135904
3.30656
-0.188494
3.67969
-0.25133
3.36851
-0.337066
2.58111
-0.618541
2.32026
-1.26342
3.02432
-1.75272
3.68695
-1.95979
3.42342
-2.09969
2.93786
-2.22337
2.45995
-2.33379
2.03876
1.64506
-2.39236
-0.00336033
0.363089
-0.00981296
0.914529
-0.018047
1.33686
-0.0280032
1.66383
-0.0403205
1.97325
-0.0558585
2.27553
-0.0764398
2.60234
-0.104096
2.9628
-0.142419
3.34488
-0.197759
3.73503
-0.264752
3.4355
-0.389769
2.70613
-0.775969
2.70646
-1.41003
3.65839
-1.76296
4.03987
-1.93585
3.59631
-2.03774
3.03975
-2.12623
2.54845
-2.19348
2.10601
1.63785
-2.18627
-0.00332626
0.366415
-0.010278
0.921481
-0.0187897
1.34537
-0.0292706
1.67431
-0.0423393
1.98632
-0.0586415
2.29183
-0.0801199
2.62382
-0.109134
2.99181
-0.149376
3.38513
-0.206646
3.7923
-0.285685
3.51454
-0.455749
2.87619
-0.906828
3.15754
-1.46241
4.21397
-1.72435
4.30181
-1.87614
3.7481
-1.96932
3.13293
-1.97077
2.54989
-1.90178
2.03702
1.60258
-1.86651
-0.003108
0.369523
-0.00998602
0.928359
-0.0191948
1.35458
-0.0302278
1.68535
-0.0436179
1.99971
-0.0603339
2.30855
-0.0822948
2.64578
-0.111662
3.02118
-0.152202
3.42567
-0.208599
3.84869
-0.293676
3.59961
-0.498208
3.08072
-0.988087
3.64742
-1.42958
4.65546
-1.59478
4.46701
-1.66188
3.81521
-1.66637
3.13741
-1.51875
2.40228
-1.01863
1.53689
0.583953
-0.00263591
0.372159
-0.0102177
0.93594
-0.019629
1.36399
-0.0313078
1.69702
-0.0458928
2.01429
-0.0640039
2.32666
-0.0877948
2.66957
-0.119922
3.05331
-0.164525
3.47027
-0.227604
3.91177
-0.331285
3.70329
-0.585832
3.33527
-1.12413
4.18571
-1.48235
5.01369
-1.58167
4.56633
-1.57957
3.8131
-1.47597
3.03382
-1.23674
2.16305
-0.632964
0.933108
-0.0490109
-0.00223784
0.374397
-0.0091938
0.942896
-0.0194188
1.37421
-0.0319735
1.70958
-0.0473149
2.02963
-0.0666633
2.34601
-0.0923783
2.69528
-0.127122
3.08805
-0.175905
3.51905
-0.244998
3.98087
-0.366914
3.82521
-0.681143
3.6495
-1.24138
4.74596
-1.50305
5.27535
-1.56139
4.62467
-1.53947
3.79118
-1.33729
2.83164
-0.784212
1.60997
-0.109352
0.258248
-0.158363
-0.00165107
0.376048
-0.0089456
0.950191
-0.019007
1.38428
-0.0320715
1.72264
-0.0485914
2.04615
-0.0693494
2.36677
-0.0969303
2.72286
-0.134585
3.12571
-0.187118
3.57159
-0.264439
4.05819
-0.413286
3.97406
-0.786244
4.02246
-1.32096
5.28067
-1.49689
5.45128
-1.52824
4.65603
-1.44005
3.70298
-1.10318
2.49477
-0.314315
0.821106
0.0251417
-0.0812089
-0.133221
-0.000453911
0.376502
-0.00649847
0.956235
-0.0173567
1.39513
-0.031346
1.73663
-0.0484103
2.06322
-0.0702629
2.38862
-0.0996635
2.75226
-0.139628
3.16567
-0.194936
3.62689
-0.280779
4.14403
-0.455093
4.14837
-0.892777
4.46014
-1.36439
5.75229
-1.48193
5.56881
-1.4845
4.6586
-1.26039
3.47888
-0.688468
1.92285
-0.0626596
0.195297
0.030695
-0.174564
-0.102526
0.000367724
0.376134
-0.00490931
0.961513
-0.0151671
1.40539
-0.0294179
1.75088
-0.0474013
2.0812
-0.0705832
2.4118
-0.10163
2.78331
-0.144032
3.20807
-0.202406
3.68527
-0.297493
4.23912
-0.498975
4.34985
-0.986921
4.94809
-1.36188
6.12724
-1.42522
5.63216
-1.37918
4.61256
-1.09026
3.18995
-0.323982
1.15657
0.00499334
-0.133678
0.0153334
-0.184904
-0.0871927
0.00331365
0.372821
0.00047446
0.964352
-0.0108174
1.41668
-0.0259527
1.76602
-0.0439696
2.09922
-0.0679799
2.43581
-0.100346
2.81568
-0.144334
3.25206
-0.205298
3.74623
-0.308473
4.34229
-0.535678
4.57706
-1.04769
5.4601
-1.32321
6.40276
-1.36478
5.67372
-1.22559
4.47337
-0.774451
2.73881
-0.0706133
0.452734
0.0455739
-0.249865
0.0249922
-0.164322
-0.0622004
0.0048215
0.367999
0.00323912
0.965934
-0.00608872
1.42601
-0.0201351
1.78007
-0.0385949
2.11768
-0.0635996
2.46082
-0.0969862
2.84906
-0.142669
3.29774
-0.206168
3.80973
-0.317328
4.45345
-0.574525
4.83426
-1.06953
5.9551
-1.26083
6.59406
-1.26997
5.68287
-1.05071
4.25411
-0.460959
2.14906
-0.0151389
0.00691319
-0.00387249
-0.261131
0.00662969
-0.174824
-0.0555708
0.00862852
0.359371
0.0100642
0.964498
0.00249946
1.43358
-0.011398
1.79396
-0.0296511
2.13593
-0.054701
2.48587
-0.0883151
2.88268
-0.133994
3.34342
-0.198973
3.87471
-0.316239
4.57072
-0.594309
5.11233
-1.04699
6.40779
-1.16791
6.71497
-1.15486
5.66982
-0.897892
3.99714
-0.265077
1.51624
-0.0703464
-0.187817
-0.0377786
-0.293699
-0.0130431
-0.19956
-0.0686139
0.0117917
0.347579
0.0170469
0.959243
0.0126539
1.43797
0.00185605
1.80476
-0.017156
2.15494
-0.0418425
2.51055
-0.0750642
2.9159
-0.121016
3.38937
-0.186567
3.94026
-0.307803
4.69195
-0.593578
5.3981
-0.979715
6.79393
-1.04974
6.785
-0.978747
5.59883
-0.682055
3.70045
-0.0805558
0.914744
0.00398494
-0.272358
-0.0087174
-0.280997
-0.00443018
-0.203847
-0.073044
0.0183741
0.329205
0.02999
0.947627
0.0282659
1.43969
0.0173777
1.81565
0.000102749
2.17222
-0.0219286
2.53258
-0.053603
2.94757
-0.0975218
3.43329
-0.161103
4.00384
-0.281215
4.81206
-0.556761
5.67365
-0.866713
7.10388
-0.901042
6.81933
-0.806301
5.50409
-0.458642
3.35279
0.0487908
0.407311
0.0627937
-0.286361
0.0445226
-0.262726
0.0163018
-0.175626
-0.0567423
0.024466
0.304739
0.0432042
0.928889
0.0472363
1.43566
0.0404891
1.8224
0.0272324
2.18548
0.00568125
2.55414
-0.0238543
2.97711
-0.0650635
3.4745
-0.125409
4.06419
-0.239805
4.92646
-0.483271
5.91711
-0.706209
7.32682
-0.738388
6.85151
-0.625228
5.39093
-0.303502
3.03107
-0.00684176
0.110651
0.0167068
-0.309909
0.0308443
-0.276863
0.01546
-0.160242
-0.0412823
0.034693
0.270046
0.0645655
0.899017
0.07506
1.42517
0.0718025
1.82565
0.0619296
2.19535
0.0438611
2.5722
0.0178991
3.00307
-0.018941
3.51134
-0.0722451
4.11749
-0.168832
5.02305
-0.364545
6.11283
-0.517428
7.4797
-0.547662
6.88174
-0.454229
5.2975
-0.168322
2.74516
-0.0448723
-0.0127987
-0.0219088
-0.332873
0.0065098
-0.305282
0.00824311
-0.161975
-0.0330392
0.0441872
0.225859
0.0870141
0.85619
0.108125
1.40406
0.113047
1.82073
0.108419
2.19998
0.0943721
2.58625
0.0742401
3.0232
0.0442343
3.54135
-0.0045222
4.16625
-0.0745578
5.09308
-0.205016
6.24328
-0.28731
7.56199
-0.306681
6.90111
-0.247208
5.23802
-0.0308874
2.52884
-0.0542542
0.010568
-0.0635659
-0.323561
-0.021878
-0.34697
0.0144867
-0.19834
-0.0185524
0.0567293
0.169129
0.118489
0.79443
0.1541
1.36844
0.166144
1.80869
0.167366
2.19875
0.159064
2.59455
0.146204
3.03606
0.126521
3.56103
0.0963718
4.1964
0.0552292
5.13422
0.0135878
6.28493
-0.0223225
7.5979
-0.0263118
6.9051
-0.0713526
5.28306
-0.104946
2.56243
-0.344089
0.249712
-0.362302
-0.305349
-0.241308
-0.467964
-0.069355
-0.370292
-0.0879074
0.0596299
0.109499
0.148599
0.705461
0.205412
1.31163
0.233003
1.7811
0.244198
2.18756
0.243266
2.59548
0.238697
3.04063
0.230077
3.56965
0.218602
4.20787
0.205237
5.14759
0.279419
6.21074
0.34151
7.53581
0.281385
6.96523
0.0532725
5.51118
-0.319308
2.93501
-0.694554
0.624958
-0.702113
-0.29779
-0.531045
-0.639032
-0.243988
-0.657349
-0.331896
0.0507644
0.0587351
0.179989
0.576236
0.272129
1.21949
0.315823
1.7374
0.336856
2.16653
0.346307
2.58603
0.349653
3.03729
0.35628
3.56302
0.369627
4.19453
0.400993
5.11622
0.565422
6.04632
0.761235
7.34
0.803624
6.92284
0.746539
5.56826
0.284241
3.39731
-0.291164
1.20036
-0.628224
0.0392697
-0.627244
-0.640012
-0.337795
-0.946797
-0.669691
0.0354894
0.0232456
0.213755
0.397971
0.338348
1.0949
0.414975
1.66078
0.454418
2.12708
0.477492
2.56296
0.488954
3.02582
0.509149
3.54283
0.546038
4.15764
0.627234
5.03503
0.937974
5.73558
1.43244
6.84553
1.82155
6.53373
2.11895
5.27086
1.86095
3.65531
1.13572
1.92559
0.517027
0.657965
0.105194
-0.228178
-0.0673445
-0.774259
-0.737036
0.0312045
-0.00795887
0.233454
0.195721
0.430368
0.897985
0.537824
1.55332
0.59095
2.07396
0.626601
2.52731
0.650285
3.00214
0.682074
3.51104
0.747549
4.09216
0.889537
4.89304
1.30957
5.31554
2.06569
6.08942
2.45639
6.14303
2.65824
5.06901
2.49716
3.81639
1.97434
2.44841
1.42226
1.21004
0.881659
0.312426
0.337909
-0.230509
-0.399126
0.0278043
-0.0357632
0.172498
0.0510281
0.481172
0.58931
0.666249
1.36824
0.758208
1.982
0.808694
2.47682
0.848393
2.96244
0.881816
3.47762
0.958945
4.01503
1.10763
4.74436
1.47757
4.9456
2.26002
5.30696
2.62853
5.77452
2.80787
4.88967
2.71583
3.90843
2.26013
2.90411
1.62287
1.84729
0.970576
0.964723
0.415482
0.324585
0.0163557
0.00842579
-0.044189
0.0898322
-0.0303783
0.408434
0.270709
0.673049
1.10363
0.798309
1.85674
0.834833
2.4403
0.845062
2.95221
0.835676
3.487
0.835104
4.0156
0.8794
4.70006
1.00012
4.82488
1.38723
4.91986
1.59158
5.57017
1.61261
4.86864
1.53663
3.98441
1.33052
3.11022
0.985233
2.19258
0.620901
1.32906
0.255276
0.69021
0.271632
-0.000696168
-0.0434928
0.0380079
-0.0690823
0.23001
0.0787063
0.504228
0.829411
0.658189
1.70278
0.710592
2.3879
0.724673
2.93813
0.719049
3.49263
0.702546
4.03211
0.718243
4.68436
0.769134
4.77399
1.00905
4.67994
1.22978
5.34944
1.23651
4.86192
1.17372
4.0472
1.02789
3.25605
0.773083
2.44739
0.480727
1.62141
0.196153
0.974784
0.467785
-0.000605595
-0.0428872
0.0229645
-0.0926524
0.108854
-0.00718316
0.355111
0.583154
0.503525
1.55436
0.569178
2.32224
0.589439
2.91787
0.592103
3.48996
0.573141
4.05107
0.564129
4.69338
0.585135
4.75298
0.730335
4.53474
0.907173
5.1726
0.905764
4.86333
0.840519
4.11244
0.725781
3.37079
0.549036
2.62413
0.332073
1.83837
0.127267
1.17959
0.595052
0.000352116
-0.0432393
0.0220675
-0.114368
0.0719276
-0.0570432
0.257775
0.397306
0.384894
1.42724
0.439905
2.26723
0.454081
2.90369
0.459386
3.48466
0.449858
4.0606
0.439197
4.70404
0.439668
4.75251
0.524468
4.44994
0.647611
5.04946
0.64207
4.86887
0.575828
4.17868
0.483288
3.46333
0.358861
2.74856
0.208767
1.98847
0.0698496
1.31851
0.664901
0.0280244
-0.0712637
0.0790918
-0.165435
0.117798
-0.0957496
0.188491
0.326613
0.273983
1.34175
0.311867
2.22935
0.322908
2.89265
0.331777
3.47579
0.333274
4.0591
0.328198
4.70911
0.322296
4.75841
0.363379
4.40886
0.440096
4.97274
0.432446
4.87652
0.375847
4.23528
0.306261