/*--------------------------------*- C++ -*----------------------------------*\
  =========                 |
  \\      /  F ield         | OpenFOAM: The Open Source CFD Toolbox
   \\    /   O peration     | Website:  https://openfoam.org
    \\  /    A nd           | Version:  10
     \\/     M anipulation  |
\*---------------------------------------------------------------------------*/
FoamFile
{
    format      ascii;
    class       volVectorField;
    location    "37";
    object      U;
}
// * * * * * * * * * * * * * * * * * * * * * * * * * * * * * * * * * * * * * //

dimensions      [0 1 -1 0 0 0 0];

internalField   nonuniform List<vector> 
8800
(
(0.980153 -0.0915212 0)
(1.00234 -0.0587236 0)
(0.999603 -0.0321247 0)
(0.999994 -0.0165159 0)
(1.00006 -0.00883065 0)
(1.00004 -0.00508192 0)
(1.00002 -0.00298959 0)
(0.999992 -0.00169767 0)
(0.999977 -0.000805506 0)
(1.00006 -0.000113774 0)
(0.99998 0.000586866 0)
(0.999996 0.00133802 0)
(1.00001 0.00237264 0)
(1.00002 0.00398556 0)
(1.00003 0.00673489 0)
(0.999997 0.0120397 0)
(0.999818 0.0230912 0)
(0.999046 0.0431573 0)
(1.00723 0.079028 0)
(0.775023 0.0478396 0)
(0.358976 -0.0147491 0)
(1.04649 -0.072494 0)
(1.08848 -0.0660315 0)
(1.04946 -0.0509263 0)
(1.02554 -0.0377073 0)
(1.0127 -0.0258983 0)
(1.00653 -0.0167116 0)
(1.00359 -0.0102507 0)
(1.00216 -0.00563886 0)
(1.0015 -0.00205366 0)
(1.00137 0.00114687 0)
(1.00173 0.00444911 0)
(1.00271 0.00834089 0)
(1.00473 0.0136685 0)
(1.00896 0.0213638 0)
(1.01794 0.0318643 0)
(1.0358 0.044644 0)
(1.06743 0.0580935 0)
(1.09472 0.0699635 0)
(0.845661 0.0555033 0)
(0.217757 -0.0013817 0)
(1.07566 -0.050669 0)
(1.09942 -0.0489564 0)
(1.06438 -0.0400425 0)
(1.03985 -0.0325819 0)
(1.02374 -0.0253738 0)
(1.01398 -0.0181849 0)
(1.00848 -0.0115928 0)
(1.00563 -0.00585415 0)
(1.00448 -0.000580131 0)
(1.00479 0.00451366 0)
(1.00665 0.00979482 0)
(1.01057 0.0157813 0)
(1.01788 0.0225639 0)
(1.0305 0.0296862 0)
(1.05049 0.0367828 0)
(1.08006 0.0445674 0)
(1.10569 0.051903 0)
(0.943341 0.0409943 0)
(0.217245 0.00140311 0)
(0.176597 -0.000629207 0)
(1.01935 -0.0354813 0)
(1.1057 -0.0414374 0)
(1.07795 -0.0364275 0)
(1.05238 -0.0303846 0)
(1.03514 -0.0245162 0)
(1.02331 -0.0187596 0)
(1.01551 -0.0128029 0)
(1.01091 -0.00673939 0)
(1.0089 -0.0005242 0)
(1.00944 0.0056215 0)
(1.01253 0.0115273 0)
(1.01848 0.0173067 0)
(1.02807 0.0229099 0)
(1.04229 0.0284905 0)
(1.0631 0.0342861 0)
(1.0939 0.0401803 0)
(1.09451 0.0417228 0)
(0.830372 0.0227513 0)
(0.175722 0.000646213 0)
(0.154669 -0.000463041 0)
(0.958079 -0.0257105 0)
(1.10436 -0.0351513 0)
(1.08804 -0.0327083 0)
(1.06116 -0.0282009 0)
(1.0431 -0.023258 0)
(1.03074 -0.0180121 0)
(1.02216 -0.0125153 0)
(1.01663 -0.0066449 0)
(1.014 -0.00023314 0)
(1.01467 0.0061964 0)
(1.01847 0.0120568 0)
(1.02525 0.0173888 0)
(1.03539 0.0224237 0)
(1.05017 0.0272807 0)
(1.0721 0.0317473 0)
(1.10109 0.0356454 0)
(1.06986 0.0338846 0)
(0.742869 0.0144156 0)
(0.153361 0.000482249 0)
(0.139965 -0.000335028 0)
(0.900996 -0.0193452 0)
(1.09672 -0.0302619 0)
(1.09613 -0.0294014 0)
(1.06881 -0.0256362 0)
(1.04997 -0.0215838 0)
(1.03703 -0.0169458 0)
(1.02807 -0.011751 0)
(1.02215 -0.00608582 0)
(1.0192 0.000216334 0)
(1.01986 0.0065555 0)
(1.0239 0.0121859 0)
(1.03093 0.0171781 0)
(1.04144 0.0216913 0)
(1.05685 0.0256821 0)
(1.07966 0.0292253 0)
(1.10346 0.0319576 0)
(1.03824 0.0280018 0)
(0.676289 0.0102534 0)
(0.138127 0.000357778 0)
(0.129207 -0.000253801 0)
(0.851045 -0.0149467 0)
(1.08429 -0.0261646 0)
(1.10175 -0.0265254 0)
(1.07557 -0.0232151 0)
(1.05621 -0.0195985 0)
(1.04285 -0.015487 0)
(1.03352 -0.0107108 0)
(1.02733 -0.00529659 0)
(1.02418 0.000791728 0)
(1.02475 0.00688895 0)
(1.02882 0.0122249 0)
(1.03602 0.0167826 0)
(1.04684 0.020675 0)
(1.06264 0.0240697 0)
(1.0859 0.0271621 0)
(1.10281 0.029026 0)
(1.00384 0.0234038 0)
(0.624579 0.00783103 0)
(0.126726 0.000281297 0)
(0.121005 -0.000195184 0)
(0.808477 -0.0117539 0)
(1.06888 -0.022566 0)
(1.10519 -0.023918 0)
(1.08174 -0.0210946 0)
(1.0619 -0.0177353 0)
(1.04826 -0.0139126 0)
(1.03868 -0.00945801 0)
(1.03223 -0.00433628 0)
(1.02886 0.00148349 0)
(1.0293 0.00728096 0)
(1.03337 0.0122477 0)
(1.04066 0.016354 0)
(1.05159 0.019802 0)
(1.06767 0.0228142 0)
(1.09134 0.02558 0)
(1.09933 0.0265348 0)
(0.969162 0.0197501 0)
(0.583286 0.00623694 0)
(0.11774 0.000228489 0)
(0.114647 -0.000150535 0)
(0.772602 -0.00935411 0)
(1.0519 -0.019374 0)
(1.10737 -0.0214621 0)
(1.08744 -0.0190316 0)
(1.06721 -0.0158547 0)
(1.05333 -0.0122332 0)
(1.04357 -0.00803172 0)
(1.03689 -0.00320465 0)
(1.03329 0.00231904 0)
(1.03356 0.00778346 0)
(1.03755 0.0123345 0)
(1.04481 0.0160077 0)
(1.05577 0.0190695 0)
(1.07209 0.021738 0)
(1.09551 0.0241877 0)
(1.09315 0.0243826 0)
(0.935637 0.0168706 0)
(0.549445 0.00512413 0)
(0.11043 0.000191071 0)
(0.109687 -0.000115469 0)
(0.742518 -0.00748507 0)
(1.03447 -0.0165336 0)
(1.10863 -0.0191567 0)
(1.09286 -0.0170487 0)
(1.0723 -0.0139923 0)
(1.05812 -0.0105017 0)
(1.04819 -0.00646731 0)
(1.04135 -0.00185964 0)
(1.0375 0.00333547 0)
(1.03755 0.00839096 0)
(1.04134 0.0125419 0)
(1.04849 0.0158527 0)
(1.05951 0.0185735 0)
(1.07611 0.0209302 0)
(1.09853 0.0230451 0)
(1.08471 0.0225195 0)
(0.903934 0.014611 0)
(0.521059 0.00432315 0)
(0.104316 0.000164348 0)
(0.105837 -8.63992e-05 0)
(0.717444 -0.00596414 0)
(1.01739 -0.0139466 0)
(1.10893 -0.0169016 0)
(1.09807 -0.0151464 0)
(1.07723 -0.0121766 0)
(1.06277 -0.00875572 0)
(1.05262 -0.00481502 0)
(1.04555 -0.000378928 0)
(1.04143 0.00454292 0)
(1.04118 0.00924224 0)
(1.04477 0.0129984 0)
(1.05178 0.0159368 0)
(1.06282 0.0183388 0)
(1.07963 0.0204237 0)
(1.10021 0.0221282 0)
(1.0744 0.0209137 0)
(0.874253 0.0128436 0)
(0.496726 0.0037407 0)
(0.0990571 0.000146378 0)
(0.102912 -6.13399e-05 0)
(0.696782 -0.00467638 0)
(1.00139 -0.0115584 0)
(1.10852 -0.014626 0)
(1.10301 -0.0130853 0)
(1.08208 -0.0101189 0)
(1.06731 -0.00675047 0)
(1.0569 -0.00292996 0)
(1.04956 0.00134039 0)
(1.04512 0.00600998 0)
(1.04452 0.0103558 0)
(1.04779 0.0137188 0)
(1.05465 0.0162627 0)
(1.06567 0.0182786 0)
(1.08268 0.0200514 0)
(1.10094 0.0214003 0)
(1.06264 0.019553 0)
(0.846595 0.0114772 0)
(0.475442 0.00331804 0)
(0.0944163 0.000134641 0)
(0.100795 -3.82649e-05 0)
(0.680098 -0.00352541 0)
(0.986911 -0.00928795 0)
(1.10763 -0.0122971 0)
(1.10773 -0.0109274 0)
(1.08689 -0.00796701 0)
(1.07175 -0.00459328 0)
(1.06103 -0.000799774 0)
(1.05334 0.003361 0)
(1.04846 0.00778692 0)
(1.04743 0.0117593 0)
(1.05038 0.0147007 0)
(1.05703 0.0168261 0)
(1.06807 0.0184585 0)
(1.08524 0.0199274 0)
(1.10071 0.0208899 0)
(1.04971 0.0184345 0)
(0.820774 0.010421 0)
(0.456453 0.00301383 0)
(0.0902015 0.000128024 0)
(0.09943 -1.45963e-05 0)
(0.667164 -0.00244096 0)
(0.974377 -0.00704402 0)
(1.10646 -0.00979721 0)
(1.1122 -0.00857498 0)
(1.09173 -0.00564528 0)
(1.07624 -0.00219704 0)
(1.06519 0.00163334 0)
(1.05709 0.00572131 0)
(1.0517 0.00994953 0)
(1.05012 0.0135825 0)
(1.05264 0.0161021 0)
(1.05903 0.0178402 0)
(1.07 0.0191353 0)
(1.08717 0.0201978 0)
(1.09943 0.0206628 0)
(1.03577 0.0175462 0)
(0.796559 0.00962882 0)
(0.43918 0.00280734 0)
(0.0862652 0.000126519 0)
(0.0988074 1.21053e-05 0)
(0.657904 -0.00136558 0)
(0.964205 -0.0047549 0)
(1.10541 -0.00702777 0)
(1.11655 -0.00579008 0)
(1.09665 -0.00280876 0)
(1.08078 0.000700071 0)
(1.06928 0.00453396 0)
(1.06068 0.00857273 0)
(1.05466 0.0126034 0)
(1.05242 0.0158427 0)
(1.05441 0.0178687 0)
(1.06048 0.0190518 0)
(1.07139 0.0198485 0)
(1.08852 0.0205781 0)
(1.09695 0.0205374 0)
(1.02104 0.016841 0)
(0.773743 0.00904708 0)
(0.423181 0.00267454 0)
(0.0824967 0.00012719 0)
(0.0989504 3.09526e-05 0)
(0.652289 -0.000254966 0)
(0.956677 -0.00239167 0)
(1.10491 -0.00406612 0)
(1.12106 -0.00272666 0)
(1.10168 0.00034007 0)
(1.08535 0.00396219 0)
(1.07338 0.00788832 0)
(1.06417 0.0119525 0)
(1.05739 0.0158379 0)
(1.05432 0.0187101 0)
(1.05563 0.0202574 0)
(1.06128 0.0209218 0)
(1.07208 0.021156 0)
(1.08913 0.0213922 0)
(1.09326 0.0208223 0)
(1.00562 0.0164679 0)
(0.751991 0.0086987 0)
(0.408021 0.00262591 0)
(0.0787767 0.00013314 0)
(0.0999323 7.1678e-05 0)
(0.650515 0.00093344 0)
(0.95211 0.000157634 0)
(1.10511 -0.000753359 0)
(1.12569 0.00070051 0)
(1.10692 0.0038509 0)
(1.09017 0.00774513 0)
(1.07762 0.0119164 0)
(1.06764 0.0160742 0)
(1.05985 0.0198159 0)
(1.05581 0.022264 0)
(1.05635 0.0232293 0)
(1.06146 0.0233233 0)
(1.07204 0.0230452 0)
(1.08856 0.0226734 0)
(1.08818 0.0213899 0)
(0.989343 0.016305 0)
(0.731006 0.00855012 0)
(0.393316 0.00264428 0)
(0.0749964 0.000141587 0)
(0.1019 0.000100755 0)
(0.652602 0.00215599 0)
(0.950949 0.00290484 0)
(1.10656 0.0030354 0)
(1.13065 0.00481552 0)
(1.11254 0.00822664 0)
(1.09536 0.0123824 0)
(1.08212 0.0167693 0)
(1.07122 0.0210431 0)
(1.06229 0.0246889 0)
(1.05697 0.0267356 0)
(1.05648 0.0270876 0)
(1.06093 0.0264559 0)
(1.07117 0.0254936 0)
(1.08689 0.0244256 0)
(1.08147 0.0223077 0)
(0.972312 0.0165191 0)
(0.710401 0.00864942 0)
(0.378682 0.00273826 0)
(0.0710738 0.000151554 0)
(0.104981 0.000151632 0)
(0.659323 0.00361989 0)
(0.95347 0.00585514 0)
(1.1098 0.00720441 0)
(1.13629 0.00951417 0)
(1.11855 0.0133522 0)
(1.10077 0.0178731 0)
(1.08667 0.0225934 0)
(1.07461 0.0270959 0)
(1.0642 0.0306702 0)
(1.0574 0.032238 0)
(1.05574 0.0318926 0)
(1.05935 0.0304648 0)
(1.06918 0.0287449 0)
(1.08389 0.0269527 0)
(1.07316 0.0239376 0)
(0.954155 0.0172862 0)
(0.689561 0.00908702 0)
(0.363597 0.00293909 0)
(0.0669123 0.000163863 0)
(0.109434 0.000216075 0)
(0.670752 0.00526964 0)
(0.959988 0.00918851 0)
(1.11513 0.0118559 0)
(1.1429 0.0147514 0)
(1.12532 0.0191499 0)
(1.10687 0.0242769 0)
(1.0918 0.0295787 0)
(1.0784 0.0344702 0)
(1.06621 0.0380208 0)
(1.05754 0.0390755 0)
(1.05437 0.0379573 0)
(1.05685 0.0357045 0)
(1.06606 0.0331754 0)
(1.07941 0.0305587 0)
(1.06291 0.0264061 0)
(0.934462 0.0187587 0)
(0.667725 0.00998064 0)
(0.347336 0.00327448 0)
(0.0623811 0.000178543 0)
(0.115516 0.000299044 0)
(0.687351 0.00721284 0)
(0.971201 0.0130796 0)
(1.12297 0.0172778 0)
(1.15071 0.0209856 0)
(1.13311 0.0262092 0)
(1.11383 0.0322074 0)
(1.0974 0.0382649 0)
(1.08214 0.0435681 0)
(1.06769 0.0470432 0)
(1.05683 0.0474404 0)
(1.05197 0.0453799 0)
(1.05323 0.0422166 0)
(1.06167 0.0388507 0)
(1.07328 0.0353338 0)
(1.05046 0.0299283 0)
(0.912855 0.0211712 0)
(0.643806 0.0114175 0)
(0.328995 0.0037641 0)
(0.0572958 0.000199567 0)
(0.123641 0.000413006 0)
(0.70976 0.00970445 0)
(0.987667 0.0177817 0)
(1.13419 0.0237822 0)
(1.16045 0.0287816 0)
(1.14239 0.0352503 0)
(1.12194 0.0422946 0)
(1.10367 0.0491414 0)
(1.08608 0.054816 0)
(1.06892 0.0580608 0)
(1.05545 0.0576048 0)
(1.04858 0.0544024 0)
(1.04848 0.0501096 0)
(1.05596 0.0458091 0)
(1.06541 0.0413843 0)
(1.03571 0.0347144 0)
(0.888569 0.0245663 0)
(0.616538 0.013337 0)
(0.307728 0.00437592 0)
(0.051485 0.00022488 0)
(0.134506 0.000580534 0)
(0.739047 0.0131513 0)
(1.0102 0.0238411 0)
(1.14971 0.0318659 0)
(1.17305 0.0384664 0)
(1.15357 0.0465888 0)
(1.13126 0.0548566 0)
(1.11053 0.0625755 0)
(1.08999 0.0686192 0)
(1.06954 0.0714961 0)
(1.05305 0.0699706 0)
(1.04393 0.0654083 0)
(1.04232 0.059803 0)
(1.04894 0.0543673 0)
(1.05577 0.0490826 0)
(1.01815 0.0409016 0)
(0.860501 0.0288831 0)
(0.584717 0.0156422 0)
(0.282882 0.00506399 0)
(0.0448232 0.000253035 0)
(0.149302 0.000845991 0)
(0.776986 0.0182118 0)
(1.04026 0.0321077 0)
(1.17014 0.0425471 0)
(1.18909 0.0512002 0)
(1.16692 0.0610122 0)
(1.14192 0.0707185 0)
(1.11799 0.0793483 0)
(1.09379 0.0855961 0)
(1.06942 0.0877848 0)
(1.04949 0.0848871 0)
(1.03783 0.078778 0)
(1.03457 0.0716549 0)
(1.04024 0.0648873 0)
(1.04405 0.0582639 0)
(0.996831 0.0483131 0)
(0.827548 0.0339465 0)
(0.547369 0.0181778 0)
(0.25416 0.00575581 0)
(0.0373193 0.000276269 0)
(0.170193 0.00131204 0)
(0.82684 0.0260749 0)
(1.08055 0.0443008 0)
(1.19617 0.0578288 0)
(1.20872 0.0689575 0)
(1.18262 0.0805705 0)
(1.15392 0.0916046 0)
(1.12581 0.10075 0)
(1.09712 0.106546 0)
(1.06824 0.107314 0)
(1.04453 0.102381 0)
(1.03014 0.0943379 0)
(1.02503 0.0856422 0)
(1.02941 0.0773524 0)
(1.0293 0.0690691 0)
(0.970925 0.0569037 0)
(0.788624 0.03972 0)
(0.503866 0.0208561 0)
(0.221674 0.00640623 0)
(0.0291296 0.00028921 0)
(0.20065 0.00236796 0)
(0.894652 0.0396244 0)
(1.134 0.0643212 0)
(1.22826 0.0812524 0)
(1.23195 0.0952585 0)
(1.20017 0.108209 0)
(1.1665 0.119636 0)
(1.13309 0.128121 0)
(1.09914 0.132196 0)
(1.06529 0.13032 0)
(1.03762 0.12232 0)
(1.02059 0.111614 0)
(1.01367 0.100948 0)
(1.01622 0.0912623 0)
(1.01122 0.0813454 0)
(0.93976 0.0668631 0)
(0.742353 0.045955 0)
(0.454487 0.0236268 0)
(0.18644 0.00701921 0)
(0.0206852 0.00028668 0)
(0.242332 0.00864 6.72948e-20)
(0.984441 0.066882 5.83878e-20)
(1.1986 0.098206 -2.0176e-20)
(1.26465 0.116463 0)
(1.25654 0.1336 -4.88839e-34)
(1.21767 0.146199 7.07836e-21)
(1.17803 0.15626 -1.23564e-20)
(1.13857 0.162554 0)
(1.09883 0.163763 2.44967e-34)
(1.05957 0.15843 -1.44739e-20)
(1.0275 0.146941 0)
(1.00753 0.133269 -1.68097e-20)
(0.998775 0.120347 -4.93282e-20)
(0.999411 0.109462 -2.32204e-20)
(0.988868 0.0989389 -6.95256e-21)
(0.899008 0.0810965 -4.11843e-21)
(0.683561 0.0545999 0)
(0.396505 0.0276692 2.88477e-21)
(0.149186 0.00859998 3.40817e-21)
(0.0128012 0.00054404 6.13525e-20)
(0.270831 0.024167 5.45049e-20)
(1.05801 0.109392 5.1977e-22)
(1.25124 0.146674 5.62606e-21)
(1.29853 0.165485 0)
(1.27871 0.182081 -2.56251e-20)
(1.2329 0.192919 -2.86124e-20)
(1.18698 0.200767 -1.26753e-20)
(1.14126 0.204629 -4.38772e-20)
(1.09537 0.203206 0)
(1.05 0.195065 6.18969e-20)
(1.01247 0.181121 6.07104e-20)
(0.988384 0.165636 1.7915e-20)
(0.977008 0.151194 6.46012e-20)
(0.974333 0.138263 9.00787e-20)
(0.952126 0.123496 0)
(0.841755 0.0998629 1.26609e-19)
(0.614973 0.0663653 1.81793e-19)
(0.338455 0.0339286 2.02004e-19)
(0.116761 0.0109836 -2.31105e-19)
(0.00647423 0.000609446 -4.3381e-21)
(0.270869 0.0396571 0)
(1.10348 0.16468 1.08083e-20)
(1.28693 0.206358 0)
(1.32513 0.225028 -3.68372e-20)
(1.2965 0.238047 0)
(1.24452 0.245197 -5.7698e-20)
(1.19265 0.249432 2.62441e-20)
(1.14116 0.249977 -8.97328e-20)
(1.08962 0.245512 -1.56704e-21)
(1.03871 0.234661 3.23325e-20)
(0.996244 0.218665 1.33259e-19)
(0.968046 0.201761 -3.02447e-22)
(0.952728 0.185837 -4.69242e-20)
(0.943812 0.16998 -8.49803e-20)
(0.911609 0.150381 1.00543e-19)
(0.797264 0.121322 -1.77935e-19)
(0.578724 0.082009 -2.34848e-20)
(0.31877 0.0435416 0)
(0.112363 0.0149892 7.64723e-24)
(0.00629207 0.000897538 0)
(0.263811 0.0530967 1.71933e-19)
(1.12671 0.223084 -7.93066e-20)
(1.30887 0.270717 -5.50113e-20)
(1.34265 0.289169 1.82296e-20)
(1.30812 0.297984 -3.02288e-20)
(1.25141 0.30065 1.21807e-19)
(1.19479 0.300712 5.52263e-20)
(1.1385 0.297555 0)
(1.08213 0.289754 -1.65345e-19)
(1.02632 0.275854 0)
(0.979279 0.257209 -7.03596e-20)
(0.946873 0.23794 -8.56309e-20)
(0.926592 0.219534 -5.11264e-20)
(0.910736 0.200575 -6.1719e-20)
(0.87314 0.177939 0)
(0.765042 0.145951 0)
(0.562511 0.102478 -1.53768e-19)
(0.320884 0.0576697 3.03543e-20)
(0.120957 0.0216917 -1.78243e-20)
(0.00915777 0.00174939 -2.08386e-20)
(0.255892 0.0650461 -9.10277e-20)
(1.13561 0.281281 0)
(1.32043 0.335871 1.23875e-19)
(1.35193 0.354553 5.40441e-20)
(1.31351 0.359199 6.80331e-20)
(1.25348 0.357341 0)
(1.19333 0.35329 5.53919e-20)
(1.13323 0.346397 1.00365e-19)
(1.07279 0.335057 8.55866e-20)
(1.01261 0.317583 1.52015e-19)
(0.961269 0.295408 0)
(0.92465 0.272942 -1.84805e-19)
(0.899526 0.251654 -1.10526e-19)
(0.878118 0.230441 -6.51188e-20)
(0.838698 0.206494 3.97527e-19)
(0.739798 0.173465 4.7365e-20)
(0.554656 0.125954 2.23048e-19)
(0.329457 0.0747362 -1.05389e-18)
(0.134018 0.0306757 6.25918e-19)
(0.0133877 0.00324091 -7.54381e-19)
(0.248566 0.0758388 -7.14351e-20)
(1.13552 0.337397 1.73666e-20)
(1.32412 0.40004 -1.61621e-20)
(1.35436 0.419428 -6.37104e-20)
(1.31351 0.420195 -6.27312e-20)
(1.25128 0.414092 1.75644e-21)
(1.18855 0.406195 -5.98355e-20)
(1.12541 0.395662 1.04739e-19)
(1.06149 0.380655 -1.841e-19)
(0.997333 0.359192 0)
(0.941965 0.332988 -8.42557e-20)
(0.901488 0.3071 -1.61187e-21)
(0.872249 0.283223 -1.20572e-19)
(0.847078 0.260548 0)
(0.807804 0.235868 -8.59793e-20)
(0.71827 0.201742 -2.04506e-19)
(0.548866 0.15083 5.47593e-19)
(0.338388 0.0932947 -5.38528e-19)
(0.146325 0.0408571 7.65966e-19)
(0.0174332 0.00509219 -7.95915e-19)
(0.242614 0.0858733 -4.06099e-22)
(1.13004 0.390875 -1.42596e-20)
(1.32215 0.462315 -5.88373e-20)
(1.3514 0.482652 2.9626e-20)
(1.3091 0.480071 -3.23387e-20)
(1.24557 0.470186 0)
(1.18095 0.458746 -5.79183e-20)
(1.1153 0.444694 -1.10251e-19)
(1.0483 0.425969 -9.63049e-20)
(0.980499 0.400322 0)
(0.921438 0.36998 -8.78922e-20)
(0.87765 0.340813 -1.07353e-19)
(0.845345 0.314744 1.30476e-19)
(0.817875 0.290973 -7.87296e-20)
(0.779342 0.265939 -3.7393e-19)
(0.696822 0.230804 2.2331e-19)
(0.541665 0.17642 6.69125e-20)
(0.343582 0.112281 0)
(0.155145 0.0512717 -7.38522e-19)
(0.020603 0.00703496 -2.70614e-20)
(0.238096 0.0954828 -7.05325e-21)
(1.12157 0.441591 1.25304e-20)
(1.31627 0.52257 3.01786e-20)
(1.34437 0.54355 9.98822e-20)
(1.30122 0.538243 -1.26904e-19)
(1.23705 0.525086 1.28331e-19)
(1.17102 0.510414 1.24414e-19)
(1.10324 0.492992 -1.76294e-19)
(1.03346 0.47058 5.76999e-20)
(0.962323 0.44075 -3.73672e-19)
(0.899943 0.406343 -9.84665e-20)
(0.853397 0.374059 0)
(0.81889 0.345932 1.41082e-19)
(0.790112 0.321031 1.68114e-19)
(0.75255 0.295273 2.00708e-19)
(0.675414 0.258485 -2.41557e-19)
(0.531566 0.200965 -7.14985e-20)
(0.343518 0.130148 8.41661e-20)
(0.158999 0.0606608 0)
(0.0224055 0.00871539 -5.85211e-20)
(0.234869 0.104837 5.30301e-20)
(1.11175 0.4897 -4.22491e-20)
(1.30772 0.58028 -3.05808e-20)
(1.33441 0.601817 6.58973e-20)
(1.29072 0.5943 -6.17633e-20)
(1.22634 0.578349 -4.03831e-21)
(1.15925 0.560766 -1.35003e-19)
(1.08962 0.540165 -6.35329e-20)
(1.01733 0.514183 -1.66815e-19)
(0.943103 0.480302 2.53663e-22)
(0.877714 0.441964 -3.09281e-19)
(0.828866 0.406623 2.56416e-19)
(0.79274 0.376407 -1.54087e-19)
(0.763155 0.350115 1.84148e-19)
(0.726419 0.323135 0)
(0.653524 0.284377 -1.30348e-19)
(0.518528 0.223418 -6.57296e-22)
(0.33843 0.145757 -3.64965e-19)
(0.158017 0.0681604 -5.36737e-20)
(0.022882 0.00992696 0)
(0.23275 0.114051 0)
(1.10151 0.535414 -4.17633e-20)
(1.29736 0.635034 -5.40346e-20)
(1.32243 0.657244 -6.56969e-20)
(1.27835 0.647961 -7.242e-20)
(1.21399 0.629661 0)
(1.14608 0.609464 -6.4349e-20)
(1.07483 0.58591 -1.14244e-21)
(1.00023 0.556569 3.57061e-19)
(0.923138 0.518844 -5.16516e-20)
(0.854978 0.476711 -2.22743e-19)
(0.804121 0.438308 1.33906e-19)
(0.766756 0.40583 -2.05608e-21)
(0.736665 0.377934 1.95756e-19)
(0.70058 0.349366 1.20004e-19)
(0.63082 0.308133 -2.81012e-19)
(0.502424 0.243106 3.33409e-19)
(0.328323 0.158342 9.85601e-20)
(0.152997 0.0732622 4.06596e-19)
(0.0221035 0.0105206 -1.08816e-18)
(0.231643 0.123254 4.37156e-21)
(1.09141 0.578899 -1.43918e-20)
(1.28611 0.686882 1.67582e-20)
(1.30914 0.709834 6.20721e-20)
(1.26474 0.69906 0)
(1.20048 0.678784 -6.54479e-20)
(1.1319 0.656268 2.12769e-19)
(1.05921 0.63002 1.40389e-19)
(0.982495 0.597584 0)
(0.9027 0.556281 -7.38154e-19)
(0.831909 0.510487 6.00377e-19)
(0.779202 0.468967 0)
(0.740788 0.43403 1.78951e-19)
(0.71035 0.404196 -2.02639e-21)
(0.674761 0.373638 -3.82719e-19)
(0.607187 0.329386 1.49974e-19)
(0.483268 0.259376 0)
(0.314028 0.167468 5.30661e-19)
(0.144334 0.0759304 0)
(0.0203059 0.0105116 -5.13211e-19)
(0.231329 0.1325 -1.35049e-21)
(1.08187 0.620246 -7.56121e-21)
(1.27427 0.735926 1.96414e-20)
(1.2951 0.75958 0)
(1.25038 0.747536 -7.0241e-20)
(1.18625 0.725591 0)
(1.1171 0.701025 -2.15092e-19)
(1.04312 0.672363 -6.75393e-20)
(0.964428 0.637139 6.39165e-20)
(0.882046 0.592559 -3.6476e-19)
(0.808655 0.543259 6.23145e-20)
(0.754117 0.49855 0)
(0.714722 0.460922 -3.81892e-19)
(0.683975 0.428822 2.05735e-21)
(0.648675 0.395846 0)
(0.582407 0.347979 2.11557e-21)
(0.461352 0.272151 4.83201e-19)
(0.296052 0.172899 -4.57823e-19)
(0.132928 0.0762128 1.34932e-19)
(0.0178599 0.0100056 0)
(0.231429 0.141647 0)
(1.07295 0.65959 -1.96248e-21)
(1.26213 0.782297 -1.17656e-20)
(1.28076 0.806499 -2.37419e-21)
(1.23565 0.793387 -3.04878e-20)
(1.17164 0.770019 -1.47352e-19)
(1.10199 0.74366 7.92064e-20)
(1.02683 0.712868 -7.75788e-20)
(0.946301 0.675178 2.82314e-19)
(0.861391 0.627658 -5.82267e-19)
(0.785348 0.575036 -3.47166e-21)
(0.728886 0.527077 -1.68852e-19)
(0.688451 0.486519 6.17914e-19)
(0.657371 0.451839 -2.40815e-21)
(0.622133 0.416003 -2.95614e-19)
(0.556358 0.363826 -5.28113e-19)
(0.436985 0.281433 0)
(0.275076 0.174792 0)
(0.119394 0.0741594 1.45647e-19)
(0.0150247 0.00902137 -8.52672e-20)
(0.232106 0.150799 6.48473e-21)
(1.06465 0.696813 -3.19963e-21)
(1.25 0.826091 1.22477e-20)
(1.26641 0.850688 0)
(1.22084 0.836647 -1.55199e-21)
(1.15694 0.812059 -1.43827e-19)
(1.08684 0.784146 1.97234e-19)
(1.0106 0.751506 3.11652e-19)
(0.928345 0.711687 3.68635e-19)
(0.840943 0.661585 -4.76567e-19)
(0.762138 0.605874 -5.13638e-19)
(0.703547 0.554641 4.51211e-19)
(0.661921 0.510917 0)
(0.630406 0.473284 -1.34251e-19)
(0.59502 0.434097 -3.19393e-19)
(0.529064 0.376867 -3.78733e-19)
(0.410286 0.287072 -4.49831e-19)
(0.251724 0.173178 1.33043e-19)
(0.104267 0.0698156 -7.82831e-20)
(0.0118611 0.00760317 2.89415e-22)
(0.232835 0.159852 0)
(1.05704 0.732395 0)
(1.23803 0.867427 2.55192e-21)
(1.25221 0.892263 0)
(1.20619 0.877396 8.94653e-20)
(1.14234 0.851751 1.05181e-19)
(1.07186 0.822494 0)
(0.994649 0.788279 3.8141e-20)
(0.910761 0.746661 6.1743e-19)
(0.820896 0.694358 -1.09383e-18)
(0.73918 0.635853 0)
(0.678179 0.581382 -2.8968e-19)
(0.635081 0.534244 -2.9282e-21)
(0.602952 0.49323 -2.37829e-21)
(0.56723 0.450092 3.40983e-19)
(0.500547 0.386965 -3.83787e-22)
(0.381378 0.288963 -9.6734e-19)
(0.226299 0.167991 2.86037e-19)
(0.0885548 0.0636742 8.45263e-20)
(0.00870214 0.00593443 0)
(0.233573 0.168734 -4.72652e-20)
(1.0498 0.766321 -1.46844e-20)
(1.22625 0.906351 3.00015e-21)
(1.23832 0.931337 -7.23445e-20)
(1.19185 0.915704 1.43224e-19)
(1.12804 0.889151 0)
(1.05721 0.858745 1.23812e-19)
(0.979129 0.823209 -8.3849e-20)
(0.893714 0.780117 3.85387e-21)
(0.801427 0.726007 7.99601e-20)
(0.716636 0.665055 6.64078e-19)
(0.652868 0.607467 -1.01775e-19)
(0.607887 0.556703 -3.79427e-19)
(0.574844 0.511775 -1.55851e-19)
(0.538593 0.463856 1.85201e-19)
(0.470862 0.393799 -2.11402e-22)
(0.351083 0.286922 2.60595e-19)
(0.200044 0.159633 -6.14848e-19)
(0.0729233 0.0561735 7.2695e-19)
(0.00569911 0.00414262 1.0598e-19)
(0.234144 0.177321 2.10234e-20)
(1.04294 0.798678 -1.0416e-20)
(1.21477 0.942986 6.11567e-21)
(1.22482 0.968034 -2.65781e-20)
(1.17793 0.951682 -2.38489e-20)
(1.11415 0.924331 -1.90641e-19)
(1.04303 0.892949 3.87132e-20)
(0.964174 0.85632 -3.515e-19)
(0.877344 0.812056 -6.8386e-19)
(0.782681 0.756533 -6.52839e-19)
(0.694666 0.693552 0)
(0.627724 0.633067 -4.43994e-19)
(0.580345 0.578555 5.45105e-19)
(0.545869 0.529081 0)
(0.508802 0.475203 -3.96146e-19)
(0.439987 0.396868 2.36825e-19)
(0.319979 0.280608 -2.79762e-19)
(0.174139 0.148411 -3.30802e-19)
(0.058283 0.0478693 -5.85305e-19)
(0.00303388 0.00238067 -4.56302e-19)
(0.234998 0.185745 -2.68238e-20)
(1.03629 0.829425 1.12095e-20)
(1.20359 0.977407 1.94206e-20)
(1.21177 1.00244 -2.65246e-20)
(1.1645 0.985422 5.45106e-20)
(1.10076 0.957379 -1.11704e-19)
(1.02941 0.925163 1.26964e-19)
(0.949877 0.88766 -3.64487e-19)
(0.861739 0.842504 -4.05572e-19)
(0.764781 0.785951 6.84213e-19)
(0.67342 0.721397 1.45587e-18)
(0.602907 0.658346 0)
(0.552492 0.600091 0)
(0.515761 0.545439 -1.79146e-19)
(0.477304 0.483979 0)
(0.40763 0.395301 5.0948e-19)
(0.288918 0.269111 6.01942e-19)
(0.150369 0.134348 0)
(0.0459322 0.0393638 0)
(0.000881038 0.000845186 4.90232e-19)
(0.235462 0.193698 3.38964e-20)
(1.02987 0.85855 2.63893e-20)
(1.19277 1.00973 1.57444e-20)
(1.1992 1.03468 1.08902e-20)
(1.15162 1.01703 5.07723e-20)
(1.08793 0.988376 1.26989e-19)
(1.01642 0.955456 -1.76292e-19)
(0.936305 0.917262 4.45373e-23)
(0.846983 0.871469 -4.98508e-21)
(0.747826 0.814256 -5.48865e-21)
(0.653067 0.748627 7.49229e-19)
(0.578604 0.683437 0)
(0.524453 0.62162 5.48821e-19)
(0.484299 0.561295 3.81539e-19)
(0.443228 0.490323 9.21992e-19)
(0.372808 0.38802 2.73815e-19)
(0.258526 0.250251 -3.24464e-19)
(0.132189 0.115565 -1.9058e-19)
(0.0404623 0.0301042 0)
(0.000666176 0.000118875 5.26576e-19)
(0.236192 0.201632 -8.33741e-20)
(1.02364 0.886162 0)
(1.18228 1.04 2.63426e-20)
(1.18712 1.06484 3.58062e-21)
(1.13931 1.0466 -4.26722e-20)
(1.07568 1.01741 -1.56695e-19)
(1.00409 0.98389 3.54267e-19)
(0.923496 0.94517 -2.89794e-20)
(0.833118 0.898965 0)
(0.731896 0.841423 -7.57231e-19)
(0.633756 0.775238 -1.62886e-18)
(0.55503 0.708439 6.54569e-20)
(0.496473 0.643427 7.53632e-19)
(0.451421 0.577238 0)
(0.405527 0.494973 6.20506e-19)
(0.333221 0.374587 0)
(0.226617 0.220104 0)
(0.122648 0.0809793 -2.06348e-19)
(0.0610757 0.00895444 0)
(0.0267103 0.0108233 1.41108e-19)
(0.236517 0.208939 -9.90335e-20)
(1.01757 0.912567 0)
(1.1721 1.06842 5.0334e-20)
(1.17547 1.09315 0)
(1.12752 1.07439 1.73942e-20)
(1.06397 1.04478 0)
(0.992366 1.01078 1.94832e-20)
(0.911361 0.971729 5.0533e-20)
(0.820033 0.925364 5.07614e-20)
(0.716843 0.867847 -8.32248e-19)
(0.615346 0.801668 4.92815e-20)
(0.53203 0.733942 5.23497e-19)
(0.468304 0.666179 7.33826e-19)
(0.416513 0.594199 9.84188e-20)
(0.362453 0.499654 4.84791e-19)
(0.284438 0.356774 0)
(0.181826 0.177702 6.8428e-19)
(0.0931016 0.0218589 -4.00999e-19)
(0.0441666 0.0443658 4.65156e-19)
(-0.0688817 0.428105 -5.49122e-19)
(0.236802 0.216023 8.54042e-20)
(1.01141 0.937564 1.22426e-19)
(1.16213 1.09531 0)
(1.16411 1.12003 5.11329e-21)
(1.11607 1.10098 -3.52257e-20)
(1.05253 1.07115 2.41123e-19)
(0.980946 1.03694 1.29587e-19)
(0.899506 0.997884 0)
(0.807215 0.951756 3.4273e-19)
(0.702019 0.894826 -4.41381e-20)
(0.596952 0.829377 0)
(0.508478 0.7617 0)
(0.438491 0.691651 6.5498e-19)
(0.377932 0.613709 -3.028e-19)
(0.311111 0.5072 -4.88872e-19)
(0.221704 0.339913 0)
(0.105254 0.1656 3.44239e-19)
(0.00744647 0.435179 -3.99187e-19)
(0.0363093 1.87208 -2.20733e-19)
(0.0663715 2.80173 -2.80766e-19)
(0.236891 0.222243 -6.82556e-20)
(1.00536 0.961328 -1.64736e-19)
(1.15239 1.12064 3.43821e-20)
(1.15302 1.14534 1.42742e-20)
(1.10499 1.12613 0)
(1.04142 1.09626 1.56102e-19)
(0.970019 1.06205 1.86679e-19)
(0.888114 1.02321 -2.50836e-20)
(0.794925 0.977628 5.07982e-20)
(0.687797 0.921748 7.95975e-19)
(0.57917 0.857689 8.23492e-19)
(0.485347 0.791285 5.84222e-19)
(0.408083 0.71958 6.56187e-19)
(0.337633 0.634465 -7.06478e-19)
(0.257521 0.520466 -7.34762e-19)
(0.14667 0.367743 0)
(0.0519179 0.825584 0)
(0.108102 2.53929 1.91292e-19)
(0.109221 3.19352 0)
(0.112127 3.38499 4.63031e-19)
(0.239524 0.227889 0)
(0.999998 0.984029 0)
(1.14264 1.14429 0)
(1.14195 1.16887 6.86842e-21)
(1.09396 1.14961 -2.64736e-20)
(1.0304 1.11995 1.00001e-19)
(0.959479 1.08601 1.23664e-19)
(0.877142 1.04759 -2.48492e-20)
(0.783131 1.00285 4.34767e-19)
(0.674209 0.948477 -9.86191e-21)
(0.562154 0.886497 1.62884e-18)
(0.463013 0.822534 -6.68284e-20)
(0.377513 0.750826 7.95755e-20)
(0.298008 0.653747 1.01501e-19)
(0.195983 0.541407 -1.8708e-21)
(0.112453 0.958263 1.8028e-21)
(0.149519 2.6961 -9.90554e-19)
(0.160167 3.28739 -3.7621e-19)
(0.14738 3.42584 1.97958e-19)
(0.132868 3.44884 -2.21685e-19)
(0.157135 0.184227 4.36304e-20)
(0.989355 1.00845 0)
(1.13265 1.16648 -8.25981e-20)
(1.13147 1.19105 -5.44339e-20)
(1.08376 1.17222 -2.02997e-20)
(1.02039 1.14289 -9.89902e-20)
(0.949226 1.10892 -1.32207e-19)
(0.866695 1.07117 2.94241e-19)
(0.772037 1.02753 -3.59971e-19)
(0.661595 0.975102 0)
(0.546357 0.915923 8.03363e-19)
(0.442075 0.85529 -4.76524e-19)
(0.347305 0.78834 0)
(0.258286 0.675626 9.43831e-20)
(0.164022 0.806612 2.25359e-19)
(0.16478 2.45639 -2.68593e-19)
(0.227623 3.32158 3.03436e-19)
(0.205211 3.4416 1.65773e-19)
(0.170179 3.46357 1.8877e-19)
(0.147002 3.47401 3.04806e-19)
(0.282897 0.266781 -7.66861e-20)
(0.974598 1.01855 0)
(1.11479 1.19159 9.80449e-20)
(1.11679 1.22346 7.77061e-20)
(1.06743 1.20546 -3.64105e-21)
(1.00349 1.17669 7.351e-20)
(0.931442 1.14419 1.51373e-19)
(0.848261 1.10756 2.2732e-20)
(0.752284 1.06593 3.51692e-19)
(0.639195 1.01707 7.00316e-19)
(0.519113 0.963758 4.60108e-20)
(0.406718 0.910152 4.24939e-19)
(0.294437 0.849716 7.47161e-20)
(0.222574 0.972887 -9.30512e-20)
(0.238812 2.30442 -2.13945e-19)
(0.302952 3.32591 2.10485e-19)
(0.286908 3.47419 -2.35896e-19)
(0.249639 3.49609 -1.37263e-19)
(0.211114 3.5236 -1.21154e-19)
(0.158274 3.51689 -1.41528e-20)
(0.270793 0.263598 0)
(0.97246 1.04123 3.43291e-20)
(1.10696 1.2149 -2.21124e-20)
(1.10695 1.24672 -1.13703e-20)
(1.05721 1.2286 -1.41739e-20)
(0.993328 1.20011 -6.47068e-20)
(0.920929 1.16779 -8.90054e-20)
(0.837608 1.13193 2.09198e-20)
(0.741243 1.09169 -3.71095e-19)
(0.627142 1.04549 -1.42948e-20)
(0.504878 0.996702 -1.46528e-18)
(0.388929 0.948834 6.02812e-20)
(0.282283 0.91714 -7.08926e-20)
(0.262726 1.4729 -8.68239e-20)
(0.339929 3.08295 1.7819e-20)
(0.363121 3.47212 8.84599e-22)
(0.322052 3.53152 3.57487e-19)
(0.283652 3.55591 1.80701e-19)
(0.233288 3.57987 -5.58276e-20)
(0.172634 3.57544 -7.13741e-20)
(0.254299 0.261861 9.24416e-20)
(0.968718 1.06656 2.40225e-19)
(1.09867 1.24032 -6.43077e-20)
(1.09655 1.27139 -4.28906e-20)
(1.0465 1.25309 0)
(0.982748 1.22467 -5.54143e-20)
(0.910291 1.1926 -1.13599e-19)
(0.827108 1.15748 1.89983e-20)
(0.730673 1.11871 -4.09032e-20)
(0.616064 1.07536 -6.47798e-19)
(0.492383 1.03138 -6.82461e-19)
(0.374593 0.990084 -5.015e-19)
(0.284366 1.04432 -5.35807e-19)
(0.331146 2.15613 5.52036e-19)
(0.427209 3.37596 4.71843e-19)
(0.408066 3.53306 0)
(0.360908 3.57763 0)
(0.323225 3.61972 -4.49297e-20)
(0.269312 3.68063 0)
(0.184702 3.65542 -6.21218e-20)
(0.243287 0.263553 -1.44566e-19)
(0.962972 1.09295 -2.11581e-19)
(1.08899 1.26693 0)
(1.08486 1.29691 6.10243e-21)
(1.0346 1.27819 -3.77617e-20)
(0.97108 1.24971 -5.41877e-20)
(0.898894 1.21791 -6.39158e-20)
(0.816051 1.18342 1.37856e-20)
(0.719786 1.14604 -2.75899e-19)
(0.605056 1.10549 3.35469e-20)
(0.480764 1.06644 0)
(0.36364 1.03459 0)
(0.310871 1.28195 -4.95399e-19)
(0.414812 2.83525 2.02883e-19)
(0.500373 3.48944 2.67173e-19)
(0.454338 3.56718 0)
(0.413894 3.62861 -3.75751e-20)
(0.376306 3.69179 -1.85148e-20)
(0.330265 3.67964 -1.0151e-19)