/*--------------------------------*- C++ -*----------------------------------*\
  =========                 |
  \\      /  F ield         | OpenFOAM: The Open Source CFD Toolbox
   \\    /   O peration     | Website:  https://openfoam.org
    \\  /    A nd           | Version:  10
     \\/     M anipulation  |
\*---------------------------------------------------------------------------*/
FoamFile
{
    format      ascii;
    class       volScalarField;
    location    "53";
    object      p;
}
// * * * * * * * * * * * * * * * * * * * * * * * * * * * * * * * * * * * * * //

dimensions      [0 2 -2 0 0 0 0];

internalField   nonuniform List<scalar> 
2200
(
0.776538
0.755038
0.73913
0.723464
0.708855
0.696334
0.685979
0.677874
0.672167
0.669222
0.669681
0.673475
0.679823
0.688384
0.699064
0.71183
0.726612
0.742525
0.758562
0.780062
0.708966
0.705707
0.702784
0.698665
0.693197
0.686723
0.680104
0.674149
0.669642
0.667248
0.667738
0.671028
0.676201
0.682653
0.689628
0.696377
0.70204
0.706144
0.709
0.712357
0.669054
0.669275
0.671325
0.672665
0.673057
0.672202
0.670214
0.667536
0.664993
0.663502
0.664061
0.666513
0.66978
0.672991
0.675328
0.676324
0.676051
0.675046
0.673392
0.673144
0.64654
0.647987
0.650594
0.653062
0.655505
0.657523
0.658679
0.658907
0.65853
0.658231
0.658856
0.66023
0.661424
0.661813
0.661126
0.659454
0.657287
0.655079
0.652465
0.651059
0.632227
0.634202
0.637019
0.639846
0.642696
0.645523
0.647981
0.649842
0.651067
0.651861
0.652582
0.653054
0.652808
0.651691
0.649821
0.647445
0.644896
0.642172
0.639373
0.637449
0.624883
0.626481
0.628679
0.631203
0.633868
0.636534
0.63912
0.641532
0.64354
0.645045
0.645897
0.645907
0.645077
0.643559
0.641663
0.639519
0.637188
0.634845
0.632749
0.631173
0.621465
0.622488
0.623753
0.625615
0.627758
0.629925
0.632116
0.634399
0.636615
0.638452
0.63947
0.639469
0.638682
0.63747
0.636066
0.634502
0.632812
0.631239
0.630119
0.629103
0.61883
0.619501
0.620133
0.621433
0.623044
0.624722
0.626471
0.628393
0.630451
0.6324
0.633638
0.633943
0.633603
0.632975
0.632188
0.631225
0.630156
0.629222
0.628772
0.628096
0.615588
0.616034
0.616428
0.617421
0.618682
0.620065
0.621557
0.62321
0.625048
0.626996
0.628488
0.629254
0.629508
0.629443
0.629154
0.628677
0.628088
0.627545
0.627352
0.626888
0.61155
0.611846
0.612204
0.613073
0.614181
0.615446
0.616875
0.618477
0.620267
0.622257
0.624104
0.625407
0.62616
0.626522
0.626584
0.626428
0.626115
0.625777
0.625644
0.625321
0.606882
0.607085
0.607454
0.608282
0.609371
0.610673
0.612189
0.613918
0.615876
0.618109
0.620349
0.622131
0.623304
0.623976
0.624279
0.624339
0.624196
0.624
0.623887
0.623653
0.601723
0.601869
0.60224
0.603049
0.604196
0.605632
0.607343
0.609324
0.611603
0.614242
0.616998
0.619252
0.620783
0.621726
0.622243
0.62246
0.622515
0.622463
0.622382
0.622195
0.596149
0.596259
0.596637
0.597453
0.598665
0.600249
0.602201
0.604524
0.607258
0.610455
0.613818
0.616622
0.618562
0.619813
0.620578
0.621018
0.621259
0.621329
0.621289
0.621126
0.59018
0.590249
0.590627
0.591472
0.592807
0.594578
0.596796
0.599515
0.602838
0.606782
0.610895
0.614282
0.616675
0.6183
0.619413
0.620144
0.620589
0.620796
0.620794
0.620643
0.583716
0.583755
0.584175
0.585082
0.586553
0.588536
0.591065
0.594235
0.598185
0.602948
0.60797
0.612097
0.615113
0.617297
0.618833
0.61989
0.620583
0.620934
0.620979
0.620829
0.57665
0.576626
0.577046
0.578036
0.57972
0.581962
0.584824
0.588485
0.593144
0.598865
0.604956
0.610141
0.613969
0.616788
0.618877
0.620337
0.621301
0.621802
0.621901
0.621752
0.568685
0.568658
0.569109
0.570227
0.572136
0.574679
0.577994
0.58229
0.587802
0.594677
0.6021
0.608494
0.613359
0.616971
0.619656
0.621586
0.622872
0.62354
0.623692
0.623535
0.559743
0.559766
0.56019
0.561412
0.563635
0.566621
0.570561
0.575679
0.582278
0.590572
0.599598
0.607399
0.613389
0.617921
0.621302
0.623737
0.625366
0.626211
0.626416
0.626247
0.549348
0.549326
0.549867
0.551308
0.553919
0.557508
0.562283
0.568487
0.576457
0.586464
0.597394
0.606914
0.614228
0.619751
0.623866
0.626907
0.628919
0.629939
0.630195
0.630007
0.537034
0.536967
0.537642
0.539459
0.542588
0.546941
0.552798
0.560422
0.570211
0.582433
0.595674
0.607113
0.61587
0.622514
0.627531
0.631178
0.633609
0.634811
0.635112
0.634899
0.522449
0.522341
0.523112
0.525317
0.529205
0.534637
0.54194
0.551481
0.563679
0.578652
0.594521
0.608026
0.618392
0.626306
0.632272
0.636659
0.639549
0.640917
0.641253
0.641013
0.504633
0.504547
0.505541
0.508297
0.51319
0.520109
0.529422
0.541468
0.556646
0.57488
0.593837
0.60977
0.621905
0.631199
0.638235
0.643425
0.646777
0.648323
0.648682
0.648408
0.482611
0.482459
0.483767
0.487368
0.493766
0.502816
0.514818
0.53009
0.548845
0.570883
0.593382
0.612177
0.626432
0.637262
0.645485
0.651524
0.655338
0.657033
0.657395
0.657084
0.454227
0.45423
0.456291
0.461307
0.469947
0.48206
0.497791
0.517187
0.54026
0.566721
0.593324
0.61529
0.631842
0.644423
0.653983
0.660914
0.665179
0.667008
0.66734
0.666986
0.416674
0.416912
0.42041
0.428252
0.440823
0.457786
0.478751
0.503566
0.532032
0.563668
0.594586
0.619709
0.638561
0.652898
0.663789
0.671653
0.676283
0.678124
0.678381
0.677986
0.366523
0.366891
0.373822
0.386974
0.406004
0.430153
0.458159
0.489669
0.524394
0.561734
0.597221
0.625571
0.646698
0.66275
0.674951
0.683508
0.688201
0.689799
0.689889
0.689538
0.300344
0.303162
0.318172
0.339438
0.367341
0.400415
0.436584
0.475572
0.517251
0.561009
0.601781
0.633865
0.657868
0.676153
0.689863
0.699409
0.704233
0.705537
0.705493
0.705322
0.225069
0.234441
0.259449
0.29055
0.328542
0.370633
0.414958
0.461632
0.51056
0.561101
0.60757
0.644498
0.672156
0.693074
0.70901
0.719662
0.72456
0.725456
0.725376
0.725337
0.157668
0.172333
0.203614
0.243507
0.290996
0.341855
0.394157
0.448425
0.504416
0.561519
0.613963
0.655351
0.686128
0.709661
0.727095
0.738737
0.743844
0.744641
0.744878
0.744849
0.1062
0.119349
0.155968
0.201965
0.256757
0.315091
0.374755
0.436308
0.499407
0.563257
0.621447
0.666446
0.700137
0.725598
0.744494
0.757022
0.762503
0.763822
0.76397
0.764016
0.0637737
0.0761748
0.116481
0.166425
0.226708
0.291061
0.357227
0.425372
0.494915
0.564732
0.627538
0.676595
0.713015
0.740421
0.760913
0.774074
0.780231
0.781904
0.782007
0.782094
0.0273993
0.0400736
0.0830535
0.135887
0.200554
0.269759
0.341379
0.415124
0.490158
0.565493
0.633511
0.68624
0.724762
0.753887
0.775692
0.789614
0.796097
0.797999
0.798157
0.798241
-0.00432912
0.00855499
0.053704
0.109123
0.177382
0.25056
0.326759
0.405336
0.485464
0.566253
0.63894
0.694464
0.735388
0.766011
0.788566
0.803124
0.810059
0.812121
0.812365
0.812439
-0.032639
-0.0197027
0.0271457
0.0850182
0.156368
0.232934
0.313101
0.396016
0.480875
0.566334
0.642816
0.701706
0.744571
0.77623
0.799518
0.81472
0.821866
0.824148
0.824454
0.824501
-0.0584702
-0.0455001
0.00254655
0.0627971
0.136916
0.216484
0.300158
0.386896
0.475874
0.565605
0.646469
0.708189
0.752476
0.785413
0.808975
0.824463
0.831974
0.834437
0.834805
0.834825
-0.082623
-0.0693203
-0.020459
0.0419628
0.118527
0.200806
0.287587
0.377654
0.470346
0.564294
0.649138
0.713267
0.759488
0.793246
0.817425
0.833101
0.840712
0.843303
0.843673
0.843647
-0.105322
-0.0918377
-0.0421068
0.0222046
0.100864
0.185549
0.275061
0.368108
0.46427
0.562158
0.650717
0.717959
0.765947
0.800569
0.825135
0.840601
0.84834
0.85085
0.851209
0.851051
-0.126722
-0.113191
-0.0626798
0.00324086
0.0836681
0.170469
0.262428
0.358223
0.457571
0.559019
0.651366
0.721987
0.771871
0.807444
0.832186
0.847482
0.854888
0.857396
0.857734
0.85763
-0.147235
-0.133533
-0.082393
-0.015135
0.0668136
0.1555
0.249656
0.347927
0.450097
0.554927
0.651356
0.725398
0.777515
0.814337
0.83896
0.853789
0.861015
0.863291
0.863626
0.863525
-0.167267
-0.153038
-0.101451
-0.0330404
0.050235
0.140596
0.236715
0.337191
0.44194
0.550124
0.650575
0.728177
0.783246
0.821287
0.845948
0.860209
0.866782
0.868769
0.869011
0.868913
-0.186988
-0.171996
-0.119979
-0.0505306
0.0339105
0.125756
0.223606
0.326059
0.433214
0.5445
0.64876
0.730337
0.788635
0.828721
0.85367
0.866939
0.872625
0.873834
0.873956
0.873884
-0.206254
-0.190526
-0.138054
-0.0676182
0.0178472
0.110972
0.21033
0.314573
0.423942
0.538014
0.645973
0.731817
0.793859
0.836644
0.86249
0.874821
0.87864
0.878573
0.878426
0.878301
-0.224992
-0.208665
-0.155667
-0.0843035
0.00205642
0.0962824
0.196949
0.302804
0.414192
0.530772
0.642098
0.732216
0.798552
0.84507
0.872995
0.88437
0.885782
0.883112
0.882724
0.883578
-0.2431
-0.226323
-0.172789
-0.100564
-0.0134161
0.0817473
0.183537
0.290806
0.403965
0.522709
0.636972
0.73137
0.802616
0.853722
0.885204
0.897146
0.895684
0.889055
0.884016
0.882676
-0.2606
-0.243442
-0.18936
-0.116359
-0.0285198
0.0674426
0.170175
0.278628
0.393285
0.513907
0.630713
0.72908
0.80535
0.862292
0.899033
0.914046
0.913347
0.901735
0.900857
0.905044
-0.277454
-0.259938
-0.205334
-0.131639
-0.0431895
0.0534385
0.156928
0.266331
0.382224
0.504456
0.623408
0.725142
0.806456
0.869699
0.913534
0.934904
0.937229
0.90841
0.868481
0.833138
-0.293636
-0.275842
-0.220738
-0.146461
-0.0575217
0.0396115
0.143648
0.253749
0.37059
0.49413
0.614766
0.719072
0.80477
0.874914
0.927779
0.95875
0.976088
0.956526
0.973527
1.03256
-0.309079
-0.291169
-0.235669
-0.16097
-0.0716967
0.0257358
0.130066
0.240563
0.35798
0.48238
0.604179
0.710239
0.799279
0.875017
0.933516
0.968952
0.979096
0.956795
0.915254
0.930347
-0.323774
-0.305917
-0.250074
-0.175111
-0.0856435
0.0119062
0.116315
0.226929
0.344533
0.46927
0.591625
0.698322
0.788017
0.865465
0.92473
0.959715
0.946749
0.892467
0.828297
0.815941
-0.337691
-0.320046
-0.263954
-0.188891
-0.0993622
-0.00186887
0.102418
0.212878
0.330276
0.454822
0.577026
0.683076
0.770868
0.843761
0.897481
0.905468
0.870113
0.792917
0.718244
0.695712
-0.350879
-0.333575
-0.277316
-0.202321
-0.112873
-0.0156017
0.0883783
0.198421
0.315227
0.439021
0.560217
0.664195
0.746409
0.807776
0.836824
0.823824
0.765517
0.663765
0.576323
0.554043
-0.363786
-0.346879
-0.290554
-0.215773
-0.126525
-0.0296009
0.0739223
0.183326
0.299216
0.42173
0.541017
0.641205
0.716094
0.761646
0.756698
0.721797
0.610717
0.488208
0.380744
0.35352
-0.377309
-0.360794
-0.304363
-0.229855
-0.140887
-0.0443543
0.0586324
0.167258
0.281987
0.402707
0.519094
0.613615
0.68132
0.702851
0.669361
0.581564
0.425624
0.272983
0.143669
0.116016
-0.391963
-0.375668
-0.319071
-0.244821
-0.156141
-0.0599915
0.0424189
0.15017
0.263537
0.381978
0.494452
0.582446
0.639811
0.633206
0.580776
0.431209
0.231696
0.0193534
-0.160588
-0.20904
-0.407879
-0.391674
-0.334732
-0.260677
-0.172268
-0.0764909
0.025308
0.132095
0.243913
0.359615
0.467067
0.549139
0.59186
0.553541
0.46642
0.278926
0.0481616
-0.240068
-0.560903
-0.708812
-0.425111
-0.408819
-0.351481
-0.277543
-0.189331
-0.0939123
0.00723827
0.11297
0.223061
0.335656
0.437298
0.513069
0.538063
0.469344
0.333268
0.128304
-0.105212
-0.448362
-1.03442
-1.60601
-0.443767
-0.427304
-0.369373
-0.295449
-0.20735
-0.112255
-0.0117615
0.092864
0.201143
0.310529
0.406276
0.474325
0.480591
0.395241
0.204584
-0.028336
-0.230523
-0.464494
-1.019
-2.53251
-0.463838
-0.447066
-0.388534
-0.314566
-0.226496
-0.131716
-0.0319291
0.0715015
0.177835
0.283859
0.373652
0.432283
0.418214
0.337347
0.111785
-0.125891
-0.273108
-0.309817
-0.299102
-0.686497
-0.485285
-0.468442
-0.409104
-0.335139
-0.247158
-0.152801
-0.0538956
0.0481103
0.152196
0.254307
0.338594
0.386979
0.357186
0.288331
0.0620668
-0.139665
-0.24988
-0.257399
-0.204025
-0.244181
-0.507914
-0.491054
-0.431121
-0.357299
-0.269443
-0.175639
-0.0778118
0.0225329
0.124019
0.221641
0.301109
0.339665
0.303482
0.235411
0.0305083
-0.1298
-0.211497
-0.219171
-0.267116
-0.271241
-0.53187
-0.515
-0.454448
-0.380957
-0.293311
-0.20025
-0.103727
-0.00530387
0.0932507
0.186261
0.261164
0.290207
0.256966
0.175186
0.00266446
-0.119715
-0.189702
-0.166559
-0.187023
-0.188601
-0.556682
-0.539656
-0.479054
-0.406125
-0.318663
-0.226566
-0.131556
-0.0352659
0.0600579
0.148551
0.21888
0.237432
0.216395
0.10786
-0.0318598
-0.11467
-0.153621
-0.200911
-0.175779
-0.18422
-0.582207
-0.564799
-0.50469
-0.432489
-0.345207
-0.25441
-0.161122
-0.0671657
0.0245789
0.108842
0.175162
0.183571
0.174153
0.0476366
-0.0686244
-0.13299
-0.110528
-0.170193
-0.150874
-0.155692
-0.607445
-0.589862
-0.531272
-0.459821
-0.372688
-0.283572
-0.192137
-0.100639
-0.012938
0.0675465
0.131109
0.13213
0.122836
-0.00397405
-0.0953131
-0.147029
-0.135433
-0.15064
-0.156087
-0.154274
-0.632106
-0.614657
-0.55797
-0.487222
-0.400644
-0.313645
-0.224191
-0.135318
-0.0519859
0.0249254
0.0870879
0.08443
0.0664478
-0.0469275
-0.109539
-0.13997
-0.178861
-0.151165
-0.157254
-0.151784
-0.655083
-0.638376
-0.583693
-0.514042
-0.42886
-0.34414
-0.256758
-0.170623
-0.0916995
-0.0186853
0.0427766
0.0403699
0.0112435
-0.0839919
-0.124532
-0.113114
-0.185781
-0.132044
-0.147612
-0.140029
-0.675786
-0.660202
-0.607444
-0.539024
-0.456729
-0.374191
-0.289128
-0.205961
-0.131105
-0.0628058
-0.00196376
-0.000643546
-0.0357533
-0.102824
-0.135977
-0.0952493
-0.14012
-0.121695
-0.128149
-0.125292
-0.692534
-0.678608
-0.628447
-0.562031
-0.483442
-0.402862
-0.320502
-0.240514
-0.169254
-0.106577
-0.0471577
-0.0403737
-0.0704313
-0.106749
-0.130767
-0.109689
-0.121536
-0.121844
-0.122278
-0.122606
-0.70456
-0.69275
-0.645818
-0.581813
-0.506943
-0.42917
-0.349904
-0.273367
-0.205261
-0.148715
-0.0912409
-0.0784085
-0.0992972
-0.104854
-0.122252
-0.135502
-0.123964
-0.132045
-0.125889
-0.127172
-0.710393
-0.701004
-0.658281
-0.597616
-0.526478
-0.452034
-0.376291
-0.303305
-0.23816
-0.187277
-0.131603
-0.11581
-0.136501
-0.109913
-0.0993163
-0.130759
-0.11207
-0.141191
-0.138519
-0.141033
-0.710002
-0.702743
-0.664262
-0.60735
-0.540304
-0.469983
-0.398282
-0.329065
-0.267021
-0.220294
-0.16718
-0.151638
-0.178144
-0.140372
-0.0399001
-0.0759271
-0.0743391
-0.0917539
-0.0976729
-0.107
-0.702373
-0.695066
-0.661827
-0.610293
-0.548121
-0.48215
-0.414614
-0.348905
-0.28977
-0.245417
-0.196374
-0.187978
-0.214965
-0.241427
-0.206809
-0.269214
-0.277177
-0.266909
-0.259181
-0.253926
-0.682593
-0.674362
-0.64885
-0.604404
-0.548067
-0.487215
-0.42419
-0.361563
-0.304077
-0.260131
-0.214251
-0.207661
-0.281567
-0.456132
-0.761965
-0.911162
-0.950502
-0.919765
-0.841782
-0.777385
-0.641832
-0.6341
-0.623683
-0.590699
-0.541515
-0.485524
-0.426614
-0.365705
-0.307303
-0.260604
-0.215927
-0.191491
-0.302836
-0.518375
-0.78052
-0.875142
-0.856558
-0.77647
-0.708167
-0.674596
-0.599206
-0.596076
-0.594901
-0.569092
-0.528237
-0.478158
-0.422351
-0.361567
-0.298585
-0.243363
-0.190687
-0.118093
-0.0630738
0.013194
0.0632978
0.16908
0.283244
0.359008
0.423821
0.476866
-0.575575
-0.576728
-0.568158
-0.550551
-0.516204
-0.468646
-0.412549
-0.350385
-0.279849
-0.205209
-0.130096
0.0124257
0.207071
0.527351
0.83887
1.09627
1.2781
1.38129
1.42579
1.44342
-0.544287
-0.544733
-0.540328
-0.534494
-0.505049
-0.459684
-0.402287
-0.336665
-0.258341
-0.165059
-0.0639337
0.0849205
0.334055
0.685452
1.02964
1.3144
1.51475
1.63225
1.68635
1.70572
-0.522967
-0.521513
-0.523425
-0.517804
-0.494221
-0.451285
-0.392755
-0.322931
-0.239915
-0.137258
-0.0245351
0.0988705
0.343954
0.655885
0.964819
1.23072
1.43341
1.55724
1.61284
1.62901
-0.506326
-0.504605
-0.507945
-0.500904
-0.487131
-0.447301
-0.38696
-0.313194
-0.227628
-0.123852
-0.0134235
0.0765322
0.282787
0.547928
0.805498
1.02908
1.20852
1.31753
1.36585
1.37835
-0.487829
-0.486503
-0.485182
-0.479561
-0.479278
-0.443418
-0.383653
-0.308418
-0.223594
-0.125828
-0.0221158
0.0445481
0.20444
0.426395
0.633984
0.808826
0.949889
1.03641
1.07348
1.08266
-0.489928
-0.488082
-0.484246
-0.485049
-0.483168
-0.443408
-0.38168
-0.3059
-0.22347
-0.136233
-0.0388039
0.0161069
0.132037
0.31281
0.476701
0.607902
0.711199
0.776212
0.804491
0.811432
-0.506273
-0.50585
-0.505942
-0.51609
-0.503875
-0.452187
-0.381082
-0.302328
-0.222331
-0.146497
-0.0554623
-0.00618031
0.0728915
0.215367
0.341737
0.437942
0.511726
0.559665
0.579203
0.583968
-0.517228
-0.5197
-0.526804
-0.53404
-0.516352
-0.45292
-0.375002
-0.293887
-0.216333
-0.151162
-0.0684684
-0.0226507
0.027633
0.137277
0.232419
0.302023
0.355699
0.39131
0.404832
0.409617
-0.475203
-0.4785
-0.4886
-0.493508
-0.475464
-0.418096
-0.347468
-0.274048
-0.202323
-0.147167
-0.0763788
-0.0342615
-0.00252602
0.0808631
0.150718
0.200572
0.240595
0.268159
0.278534
0.28117
-0.35152
-0.356976
-0.363263
-0.368499
-0.358453
-0.326326
-0.282287
-0.232557
-0.176809
-0.13293
-0.0777626
-0.0421497
-0.0203763
0.0445081
0.094149
0.128616
0.157257
0.17488
0.18283
0.185151
-0.212238
-0.21482
-0.218352
-0.222384
-0.21937
-0.209688
-0.194064
-0.171624
-0.139198
-0.109343
-0.0723807
-0.0443219
-0.0284131
0.021186
0.0551721
0.0785968
0.0963866
0.106424
0.110325
0.11095
-0.0939101
-0.0952801
-0.0979655
-0.103226
-0.10792
-0.11222
-0.113942
-0.109782
-0.0970693
-0.0821942
-0.0612516
-0.0419803
-0.0280275
0.00579862
0.0281299
0.042782
0.0522574
0.056573
0.0572389
0.0564496
-0.012886
-0.0138483
-0.0158695
-0.0221268
-0.0332458
-0.0455519
-0.0552053
-0.0604786
-0.0599883
-0.0568637
-0.0470117
-0.0356769
-0.0251297
-0.00420567
0.00897471
0.0166153
0.0203151
0.0206758
0.0193609
0.0180739
0.0310739
0.03047
0.0287864
0.0227003
0.0106449
-0.00416157
-0.0172849
-0.0273065
-0.0327522
-0.0363224
-0.0327668
-0.0273981
-0.0216054
-0.0108987
-0.00493112
-0.00229934
-0.00169696
-0.00311627
-0.00529824
-0.00672918
0.0511659
0.0506294
0.0490759
0.0436128
0.0328111
0.0187188
0.00515725
-0.00665813
-0.0147016
-0.0213015
-0.0204728
-0.0190812
-0.0179619
-0.0141061
-0.0131759
-0.0136482
-0.0149844
-0.01731
-0.0194858
-0.0208408
0.0565894
0.0561738
0.0549187
0.05049
0.0416706
0.0297282
0.0173664
0.00557016
-0.00318857
-0.0109306
-0.0114293
-0.0118999
-0.0141574
-0.0141889
-0.0157645
-0.0178114
-0.0203646
-0.0231324
-0.0251585
-0.0264295
0.054462
0.0541581
0.0531882
0.0498202
0.0431084
0.0337456
0.0233811
0.0127377
0.00434572
-0.00367495
-0.00522436
-0.00688146
-0.0102503
-0.0118241
-0.0144135
-0.017374
-0.0203977
-0.0230071
-0.0247681
-0.0259168
0.0490211
0.0488181
0.0481106
0.045658
0.0407554
0.0337892
0.025608
0.0167379
0.00953525
0.00164891
-0.000639021
-0.00311092
-0.00614024
-0.00784517
-0.0108375
-0.0141162
-0.0170221
-0.0191902
-0.0204951
-0.0215006
0.0423384
0.0422183
0.0417275
0.0400265
0.0365871
0.0315857
0.0254739
0.0184614
0.0127506
0.0053974
0.00283771
0.000622999
-0.00203898
-0.00405083
-0.00694041
-0.00973655
-0.0120844
-0.0137587
-0.0146131
-0.0154905
0.0354957
0.0354194
0.0350706
0.0338728
0.0314384
0.0278431
0.0233635
0.0179532
0.013901
0.0076957
0.00548067
0.00388967
0.00148991
-0.000746189
-0.00354397
-0.00594883
-0.00772414
-0.00884088
-0.00925118
-0.0100149
0.0290861
0.0290498
0.0288376
0.0280469
0.0263536
0.0237121
0.0203202
0.0160278
0.0132821
0.00845433
0.00687698
0.00568287
0.00351789
0.00167887
-0.000760998
-0.00274476
-0.00405248
-0.00492513
-0.00516107
-0.00580592
0.0230212
0.0229923
0.0228341
0.0223173
0.0212286
0.019468
0.0170865
0.0138123
0.0118763
0.00819135
0.00692436
0.00595421
0.00406174
0.00262397
0.000857447
-0.000371948
-0.00127381
-0.00196211
-0.00207444
-0.00261236
0.0175673
0.0175315
0.0174174
0.0170806
0.0163789
0.0152615
0.0137552
0.0114272
0.0101465
0.0071731
0.00606994
0.00513739
0.00333268
0.00243528
0.00138778
0.000919261
0.000545672
0.000192784
0.000111803
-0.000398598
0.0129505
0.0129079
0.0128414
0.0126642
0.0122771
0.0115742
0.0106097
0.00890791
0.00818269
0.00561773
0.0047398
0.00364671
0.00183691
0.00158133
0.00135043
0.00134499
0.0013213
0.00118108
0.00116136
0.000718141
0.00884477
0.00880778
0.00876166
0.0086389
0.00842024
0.00802691
0.00752224
0.00628969
0.00606977
0.00396175
0.00332678
0.00214201
0.000597759
0.000659193
0.000695242
0.000899345
0.00109786
0.00108955
0.00106832
0.000651086
0.00516101
0.00512567
0.00510766
0.00507472
0.00496874
0.00470398
0.00454131
0.00368391
0.00381051
0.00216889
0.00207336
0.00113294
-6.37524e-05
0.00044378
6.39804e-06
-0.000153177
2.53313e-05
0.000115196
0.000239523
-5.65377e-05
0.00198999
0.0019776
0.00199189
0.00202196
0.0020139
0.00184731
0.00184484
0.00125386
0.00153172
0.000476254
0.00108544
0.00092065
0.00017074
0.000580221
-0.000752817
-0.00169773
-0.00251376
-0.00302163
-0.0027429
-0.0027584
-1.07292
-0.23332
0.0367325
0.312915
0.494443
0.65035
0.776515
0.905143
1.0466
1.12913
-0.0928174
0.31382
0.330237
0.518451
0.642269
0.753381
0.849
0.934206
0.961604
0.919589
0.283946
0.497693
0.532723
0.669091
0.75491
0.834648
0.90043
0.949806
0.951883
0.965967
0.51329
0.656158
0.691196
0.792919
0.849779
0.907422
0.952204
0.984534
0.99358
1.01726
0.691153
0.792497
0.82225
0.889839
0.93427
0.975266
1.00737
1.03163
1.0414
1.07297
0.834386
0.903171
0.93349
0.97637
1.01244
1.04256
1.06683
1.08756
1.10168
1.12997
0.953525
1.00408
1.02964
1.05761
1.08526
1.10903
1.12898
1.14822
1.1631
1.18961
1.05729
1.09429
1.11536
1.13601
1.15679
1.17618
1.19358
1.21168
1.22656
1.25022
1.15127
1.18038
1.19671
1.21198
1.22808
1.24414
1.25969
1.2766
1.29022
1.31254
1.23953
1.25999
1.27484
1.288
1.30157
1.31534
1.32884
1.34343
1.35498
1.37462
1.32497
1.34075
1.35457
1.36639
1.3783
1.38993
1.40107
1.41276
1.42043
1.43724
1.41019
1.42273
1.43645
1.4482
1.45884
1.46863
1.47745
1.48572
1.48928
1.50053
1.49894
1.50975
1.52323
1.53277
1.54034
1.54762
1.55482
1.56131
1.5624
1.56977
1.59735
1.60195
1.61015
1.6149
1.6183
1.62278
1.62878
1.63646
1.64034
1.65022
1.71066
1.69756
1.69027
1.68454
1.68182
1.68316
1.68951
1.70188
1.71669
1.74636
1.83265
1.77662
1.7456
1.7284
1.72018
1.72012
1.72894
1.74854
1.78037
1.84963
)
;

boundaryField
{
    wall-4
    {
        type            zeroGradient;
    }
    pressure-outlet-7
    {
        type            fixedValue;
        value           uniform 0;
    }
    velocity-inlet-6
    {
        type            zeroGradient;
    }
    velocity-inlet-5
    {
        type            zeroGradient;
    }
    frontAndBackPlanes
    {
        type            empty;
    }
}


// ************************************************************************* //
