/*--------------------------------*- C++ -*----------------------------------*\
  =========                 |
  \\      /  F ield         | OpenFOAM: The Open Source CFD Toolbox
   \\    /   O peration     | Website:  https://openfoam.org
    \\  /    A nd           | Version:  10
     \\/     M anipulation  |
\*---------------------------------------------------------------------------*/
FoamFile
{
    format      ascii;
    class       surfaceScalarField;
    location    "53";
    object      phi;
}
// * * * * * * * * * * * * * * * * * * * * * * * * * * * * * * * * * * * * * //

dimensions      [0 3 -1 0 0 0 0];

internalField   nonuniform List<scalar> 
4262
(
0.107141
0.470847
0.0955784
0.705149
0.0694051
0.858476
0.0474252
1.02074
0.0310647
1.21488
0.0198461
1.44944
0.0124295
1.73328
0.00722571
2.07624
0.00331136
2.48916
-0.000388951
2.98599
-0.00407058
2.98597
-0.00790891
2.48908
-0.0129495
2.07608
-0.0201364
1.73305
-0.0311403
1.44922
-0.0472263
1.2146
-0.068973
1.02051
-0.0952253
0.858555
-0.107076
0.705437
0.470912
0.112878
0.357969
0.135297
0.682729
0.120393
0.873381
0.0977983
1.04334
0.0745357
1.23814
0.0528434
1.47113
0.0344626
1.75166
0.0202433
2.09046
0.0089043
2.5005
-0.0012426
2.99614
-0.0113181
2.99605
-0.0224954
2.50026
-0.0365635
2.09014
-0.0548385
1.75133
-0.0765477
1.47093
-0.100199
1.23825
-0.123338
1.04365
-0.136934
0.872152
-0.113534
0.682036
0.357378
0.092053
0.265916
0.124991
0.649791
0.121144
0.877228
0.104947
1.05954
0.0863044
1.25678
0.0671583
1.49028
0.0482145
1.7706
0.0301703
2.1085
0.0136652
2.517
-0.00217783
3.01198
-0.0178138
3.01169
-0.0338789
2.51632
-0.0514154
2.10768
-0.0699088
1.76982
-0.0883454
1.48937
-0.105673
1.25558
-0.119879
1.05786
-0.125216
0.877488
-0.0923277
0.649148
0.26505
0.0640479
0.201868
0.104935
0.608904
0.106703
0.87546
0.0952847
1.07095
0.0813623
1.2707
0.0666203
1.50502
0.0504981
1.78673
0.0333655
2.12564
0.0156825
2.53468
-0.0030282
3.03069
-0.0215721
3.03023
-0.0388063
2.53356
-0.0552889
2.12416
-0.0705891
1.78512
-0.0844811
1.50326
-0.0981871
1.26929
-0.109935
1.0696
-0.106991
0.874544
-0.0648914
0.607048
0.200159
0.0374655
0.164403
0.0806972
0.565672
0.0910313
0.865126
0.0838143
1.07817
0.0712115
1.28331
0.0593831
1.51685
0.0463972
1.79971
0.0314656
2.14057
0.0145206
2.55163
-0.00456626
3.04978
-0.0231452
3.04881
-0.0391334
2.54955
-0.0530944
2.13812
-0.065234
1.79726
-0.0765071
1.51453
-0.0884614
1.28124
-0.0948624
1.076
-0.0830755
0.862758
-0.0383459
0.562318
0.161813
0.0194929
0.14491
0.0572987
0.527866
0.0727783
0.849646
0.0707572
1.08019
0.0620055
1.29206
0.0511476
1.52771
0.0399524
1.81091
0.0273236
2.1532
0.0123457
2.56661
-0.00527477
3.0674
-0.0227707
3.0663
-0.037176
2.56395
-0.0487175
2.14967
-0.0586703
1.80721
-0.0684962
1.52436
-0.0761759
1.28892
-0.077037
1.07687
-0.059941
0.845662
-0.0203545
0.522732
0.141459
0.0106488
0.134261
0.0424148
0.4961
0.0585205
0.833541
0.0588089
1.0799
0.0527171
1.29815
0.0434352
1.53699
0.0331408
1.8212
0.0217887
2.16455
0.00841404
2.57998
-0.00763168
3.08345
-0.0229848
3.08166
-0.0348993
2.57587
-0.0448065
2.15957
-0.0536208
1.81603
-0.0614911
1.53223
-0.0660381
1.29347
-0.0641272
1.07495
-0.0458062
0.827341
-0.0116747
0.4886
0.129784
0.00659995
0.127661
0.0330752
0.469625
0.0494317
0.817184
0.0509767
1.07836
0.0458688
1.30326
0.0374941
1.54536
0.0278973
1.8308
0.0170772
2.17537
0.00514185
2.59192
-0.00856464
3.09715
-0.0220053
3.0951
-0.0329027
2.58676
-0.0420569
2.16873
-0.0498544
1.82382
-0.05652
1.5389
-0.0598059
1.29675
-0.0562087
1.07136
-0.0371357
0.808268
-0.00785032
0.459315
0.121934
0.0047685
0.122893
0.0267055
0.447688
0.042601
0.801289
0.0447849
1.07617
0.0401982
1.30784
0.032556
1.553
0.0234711
1.83988
0.0130357
2.1858
0.0013442
2.60361
-0.0117742
3.11027
-0.0236837
3.10701
-0.033347
2.59643
-0.0416012
2.17698
-0.0484558
1.83068
-0.0538691
1.54431
-0.0562112
1.2991
-0.0513224
1.06647
-0.0317959
0.788741
-0.00630539
0.433824
0.115628
0.00379231
0.1191
0.0218539
0.429627
0.0371275
0.786015
0.0399553
1.07335
0.0356383
1.31216
0.0283376
1.5603
0.0195814
1.84864
0.00951794
2.19587
-0.00166148
2.61479
-0.0135981
3.12221
-0.0249826
3.11839
-0.0343311
2.60578
-0.0418717
2.18452
-0.0481078
1.83691
-0.0529544
1.54916
-0.0542159
1.30036
-0.0478554
1.06011
-0.0280427
0.768928
-0.00569494
0.411477
0.109933
0.00306917
0.116031
0.0176255
0.41507
0.0316779
0.771963
0.0348373
1.07019
0.0309024
1.3161
0.0239226
1.56728
0.0154938
1.85707
0.00568916
2.20567
-0.00553191
2.62601
-0.0179269
3.1346
-0.0288555
3.12932
-0.0370338
2.61395
-0.0436105
2.1911
-0.0487868
1.84209
-0.0524584
1.55283
-0.0526614
1.30056
-0.0450651
1.05251
-0.0252389
0.749102
-0.00541305
0.391651
0.10452
0.00243369
0.113598
0.0140309
0.403473
0.0267625
0.759231
0.0299758
1.06697
0.0260966
1.31998
0.019194
1.57419
0.0108068
1.86546
0.00112329
2.21536
-0.0095956
2.63673
-0.0210881
3.1461
-0.0315721
3.1398
-0.0396874
2.62207
-0.0454782
2.19689
-0.0497893
1.8464
-0.0525866
1.55563
-0.0520203
1.29999
-0.0430158
1.04351
-0.0231579
0.729244
-0.00522486
0.373718
0.0992954
0.0017323
0.111865
0.0106516
0.394554
0.0215706
0.748312
0.02431
1.06423
0.0203678
1.32392
0.0135005
1.58105
0.00520428
1.87375
-0.00422888
2.22479
-0.0150127
2.64751
-0.0268883
3.15797
-0.0367549
3.14967
-0.043213
2.62853
-0.0479471
2.20162
-0.0515386
1.84999
-0.0534063
1.55749
-0.0520386
1.29863
-0.0418952
1.03336
-0.0218839
0.709233
-0.0051673
0.357001
0.0941281
0.000902552
0.110963
0.00730092
0.388155
0.0166777
0.738935
0.0190833
1.06183
0.0147385
1.32826
0.00741187
1.58838
-0.0011448
1.88231
-0.0107359
2.23438
-0.0211098
2.65789
-0.032005
3.16887
-0.0410877
3.15875
-0.0472479
2.63469
-0.0511457
2.20552
-0.0539374
1.85278
-0.054884
1.55844
-0.0524879
1.29623
-0.0411025
1.02198
-0.0208858
0.689016
-0.00505883
0.341174
0.0890693
0.000182043
0.110781
0.00434627
0.383991
0.0112457
0.732036
0.012443
1.06063
0.00782308
1.33288
0.000359781
1.59584
-0.00870539
1.89137
-0.0186882
2.24436
-0.0294499
2.66865
-0.0403667
3.17978
-0.048726
3.16711
-0.0533131
2.63927
-0.0560862
2.2083
-0.0580745
1.85477
-0.0581219
1.55849
-0.0543361
1.29245
-0.0413461
1.00899
-0.0205819
0.668252
-0.00510781
0.3257
0.0839614
-0.000747613
0.111528
0.000719318
0.382524
0.00571195
0.727043
0.00634086
1.06
0.00100754
1.33822
-0.00738567
1.60424
-0.0170102
1.901
-0.0273339
2.25469
-0.0379724
2.67929
-0.0480966
3.18991
-0.0553703
3.17439
-0.0595632
2.64347
-0.0617324
2.21046
-0.0627534
1.85579
-0.0618012
1.55753
-0.0565002
1.28714
-0.0419548
0.994443
-0.020608
0.646905
-0.00521522
0.310307
0.0787462
-0.00158708
0.113115
-0.00234938
0.383286
-0.000264526
0.724958
-0.00182776
1.06157
-0.00790928
1.3443
-0.0165819
1.61291
-0.0269035
1.91132
-0.0383168
2.2661
-0.0499422
2.69091
-0.0602096
3.20017
-0.0669124
3.18109
-0.0699124
2.64647
-0.0706349
2.21119
-0.0701583
1.85532
-0.0674938
1.55487
-0.0601885
1.27984
-0.0436796
0.977934
-0.0212469
0.624473
-0.00545253
0.294513
0.0732937
-0.00296909
0.116084
-0.00611343
0.386431
-0.00755455
0.726399
-0.0103072
1.06432
-0.0174771
1.35147
-0.0275375
1.62297
-0.0388088
1.92259
-0.0506307
2.27792
-0.0621588
2.70244
-0.0719719
3.20999
-0.0775179
3.18664
-0.0793193
2.64827
-0.0788818
2.21075
-0.0775128
1.85395
-0.0740392
1.5514
-0.0648982
1.2707
-0.0462112
0.959247
-0.0223669
0.600628
-0.005815
0.277961
0.0674787
-0.0042602
0.120345
-0.0103449
0.392516
-0.0152365
0.731291
-0.0211816
1.07026
-0.0296756
1.35996
-0.040721
1.63402
-0.0531772
1.93505
-0.0664854
2.29123
-0.0793838
2.71534
-0.0894119
3.22002
-0.0936885
3.19091
-0.0940998
2.64868
-0.0927155
2.20937
-0.0891102
1.85034
-0.0829589
1.54524
-0.0712093
1.25895
-0.0497383
0.937776
-0.0239745
0.574864
-0.00626776
0.260254
0.0612109
-0.00572069
0.126065
-0.015365
0.40216
-0.0241841
0.74011
-0.0329092
1.07899
-0.0435511
1.3706
-0.0567134
1.64718
-0.0707652
1.9491
-0.0847579
2.30522
-0.0974357
2.72802
-0.106916
3.2295
-0.110411
3.19441
-0.109064
2.64733
-0.104666
2.20497
-0.10018
1.84586
-0.0932397
1.5383
-0.0788376
1.24455
-0.0541348
0.913074
-0.0260187
0.546748
-0.00681168
0.241047
0.0543993
-0.00798802
0.134053
-0.0221115
0.416283
-0.036289
0.754288
-0.0484097
1.09111
-0.0609334
1.38313
-0.075958
1.6622
-0.0919957
1.96514
-0.108124
2.32135
-0.122476
2.74237
-0.132237
3.23926
-0.133447
3.19562
-0.129507
2.64339
-0.124096
2.19956
-0.116532
1.83829
-0.10591
1.52768
-0.087974
1.22661
-0.0595202
0.88462
-0.02841
0.515638
-0.00739179
0.220029
0.0470075
-0.0104442
0.144498
-0.029411
0.43525
-0.0496702
0.774547
-0.0665736
1.10801
-0.0822555
1.39881
-0.100066
1.68001
-0.118622
1.98369
-0.13616
2.33889
-0.150098
2.75631
-0.15735
3.24651
-0.156834
3.1951
-0.151021
2.63758
-0.142566
2.1911
-0.133239
1.82897
-0.120734
1.51518
-0.0986967
1.20457
-0.0655661
0.851489
-0.0309882
0.48106
-0.00795873
0.196999
0.0390487
-0.0151163
0.159614
-0.0415981
0.461732
-0.0687008
0.801649
-0.090746
1.13006
-0.11035
1.41841
-0.131911
1.70157
-0.153036
2.00482
-0.172153
2.35801
-0.186309
2.77046
-0.192554
3.25275
-0.188314
3.19086
-0.178947
2.62821
-0.168206
2.18036
-0.1554
1.81616
-0.137995
1.49777
-0.111066
1.17764
-0.0726378
0.813061
-0.0338443
0.442267
-0.00849113
0.171646
0.0305576
-0.0194283
0.179042
-0.0551872
0.497491
-0.092377
0.838839
-0.121908
1.15959
-0.146727
1.44323
-0.171881
1.72673
-0.195067
2.028
-0.214188
2.37713
-0.226556
2.78283
-0.228644
3.25484
-0.220879
3.1831
-0.208212
2.61554
-0.193322
2.16547
-0.177845
1.80068
-0.157392
1.47732
-0.124401
1.14465
-0.0795882
0.768248
-0.0363267
0.399005
-0.00871103
0.144031
0.0218466
-0.0325028
0.211545
-0.0815804
0.546568
-0.128853
0.886112
-0.164928
1.19566
-0.195472
1.47378
-0.225007
1.75626
-0.249461
2.05246
-0.268211
2.39588
-0.278293
2.79291
-0.275964
3.25251
-0.261955
3.16909
-0.244456
2.59805
-0.227103
2.14812
-0.207246
1.78083
-0.179903
1.44998
-0.139988
1.10474
-0.0878855
0.716146
-0.0389606
0.35008
-0.00875647
0.113826
0.0130901
-0.0469451
0.25849
-0.120386
0.620009
-0.183317
0.949044
-0.227834
1.24018
-0.264212
1.51015
-0.29435
1.7864
-0.316396
2.0745
-0.330339
2.40982
-0.333478
2.79605
-0.324426
3.24346
-0.305738
3.1504
-0.284002
2.57631
-0.260602
2.12472
-0.236182
1.75641
-0.204379
1.41817
-0.155285
1.05565
-0.0935624
0.654423
-0.0396058
0.296124
-0.00865973
0.0828804
0.00443036
-0.0339167
0.292407
-0.0972111
0.683303
-0.155548
1.00738
-0.202623
1.28725
-0.245104
1.55264
-0.282839
1.82414
-0.317742
2.10941
-0.348947
2.44103
-0.372884
2.81999
-0.382945
3.25352
-0.373808
3.14126
-0.354743
2.55724
-0.333493
2.10347
-0.303521
1.72643
-0.254534
1.36918
-0.18427
0.985381
-0.103681
0.573834
-0.0405869
0.23303
-0.00910171
0.0513951
-0.00467135
-0.0128624
0.305269
-0.0479215
0.718362
-0.0893433
1.0488
-0.128479
1.32639
-0.167268
1.59143
-0.201434
1.8583
-0.232837
2.14081
-0.259062
2.46725
-0.275263
2.83619
-0.275814
3.25407
-0.263194
3.12864
-0.243563
2.53761
-0.214077
2.07398
-0.179035
1.69139
-0.139018
1.32917
-0.0895512
0.935915
-0.0414656
0.525748
-0.0140324
0.205597
-0.00331493
0.0406777
-0.00798628
9.91403e-05
0.30517
-0.0248691
0.74333
-0.0545432
1.07848
-0.0844979
1.35635
-0.115606
1.62253
-0.145792
1.88849
-0.173298
2.16831
-0.195516
2.48947
-0.209036
2.84971
-0.211172
3.25621
-0.195732
3.1132
-0.166878
2.50876
-0.137591
2.04469
-0.10529
1.65909
-0.0667492
1.29063
-0.0289725
0.898138
-0.00425101
0.501027
0.00164577
0.1997
0.000315796
0.0420077
-0.00767048
0.000746659
0.304423
-0.0125365
0.756614
-0.0340042
1.09994
-0.0586597
1.381
-0.0844397
1.64831
-0.109735
1.91378
-0.132848
2.19143
-0.151335
2.50796
-0.161515
2.85989
-0.157347
3.25204
-0.136388
3.09224
-0.110744
2.48312
-0.0808199
2.01477
-0.0478295
1.6261
-0.0188596
1.26166
0.00299709
0.876281
0.0126045
0.49142
0.00895272
0.203352
0.00252718
0.0484332
-0.00514331
0.00390252
0.300521
-0.00562371
0.76614
-0.0235504
1.11787
-0.0440281
1.40148
-0.0654775
1.66976
-0.0868726
1.93518
-0.107049
2.2116
-0.123411
2.52432
-0.132342
2.86882
-0.12815
3.24785
-0.110063
3.07416
-0.0838292
2.45688
-0.0526356
1.98358
-0.0243666
1.59783
0.00325765
1.23403
0.022219
0.85732
0.0238977
0.489741
0.0140638
0.213186
0.00403657
0.0584605
-0.00110673
0.00519448
0.295326
-0.000866026
0.7722
-0.0168509
1.13386
-0.0351685
1.4198
-0.0543202
1.68891
-0.0732714
1.95413
-0.0909827
2.22932
-0.105081
2.53842
-0.111844
2.87558
-0.10581
3.24182
-0.0873562
3.0557
-0.0620038
2.43153
-0.0358244
1.9574
-0.0073709
1.56938
0.0138909
1.21277
0.025728
0.845483
0.0254895
0.489979
0.0147462
0.223929
0.00431109
0.0688956
0.00320436
0.00392836
0.291398
-0.000532826
0.776662
-0.0139533
1.14728
-0.0306733
1.43652
-0.0478189
1.70606
-0.0648664
1.97118
-0.081031
2.24548
-0.0942099
2.5516
-0.10133
2.8827
-0.0974693
3.23795
-0.0798687
3.0381
-0.055555
2.40722
-0.0291979
1.93104
-0.00735197
1.54753
0.013302
1.19212
0.0254051
0.83338
0.0232932
0.492091
0.0136406
0.233582
0.00410012
0.0784362
0.00730448
0.00245621
0.288942
-0.00131205
0.78043
-0.0133389
1.1593
-0.0282355
1.45141
-0.044404
1.72223
-0.0604549
1.98723
-0.0757431
2.26077
-0.0886395
2.56449
-0.0956903
2.88975
-0.0917339
3.234
-0.0750683
3.02144
-0.0535363
2.38568
-0.0326085
1.91011
-0.00860552
1.52353
0.00868137
1.17483
0.0183583
0.823703
0.0185548
0.491895
0.0106584
0.241478
0.00323485
0.0858597
0.0105393
0.000218169
0.288724
-0.00363507
0.784283
-0.0143045
1.16997
-0.0277451
1.46485
-0.0427909
1.73727
-0.0580847
2.00252
-0.0730687
2.27575
-0.0859829
2.57741
-0.0935272
2.8973
-0.0917837
3.23225
-0.0777409
3.00739
-0.0578534
2.3658
-0.036005
1.88826
-0.0176429
1.50517
0.000602512
1.15659
0.0120938
0.812211
0.0119819
0.492007
0.0072506
0.246209
0.0023021
0.0908082
0.0128414
-0.000633045
0.289357
-0.00569289
0.789343
-0.0155571
1.17984
-0.0280791
1.47737
-0.0425075
1.7517
-0.0573901
2.01741
-0.0722207
2.29058
-0.0855061
2.59069
-0.0944206
2.90621
-0.0943723
3.23221
-0.0821273
2.99515
-0.0649558
2.34862
-0.0465032
1.86981
-0.0251245
1.48379
-0.00901053
1.14047
0.00104478
0.802156
0.00473295
0.488318
0.00303505
0.247907
0.00128892
0.0925543
0.0141304
-0.00216365
0.29152
-0.00751635
0.794696
-0.0170676
1.18939
-0.029004
1.48931
-0.0427142
1.76541
-0.0571722
2.03186
-0.0720366
2.30545
-0.0859135
2.60457
-0.0959875
2.91629
-0.0975894
3.23381
-0.0883169
2.98588
-0.0724578
2.33277
-0.0525311
1.84988
-0.0361175
1.46738
-0.0188413
1.12319
-0.00614416
0.789459
-0.00196792
0.484142
-0.000522496
0.246462
6.07953e-06
0.0920258
0.0141364
-0.00355802
0.295078
-0.00927915
0.800417
-0.018465
1.19857
-0.0299531
1.5008
-0.0432632
1.77872
-0.057463
2.04606
-0.0724519
2.32044
-0.0870747
2.61919
-0.0987849
2.928
-0.103375
3.2384
-0.0965868
2.97909
-0.0818054
2.31798
-0.064767
1.83285
-0.0435876
1.4462
-0.0268502
1.10646
-0.0148411
0.77745
-0.00679259
0.476094
-0.0029877
0.242657
-0.00055708
0.0895951
0.0135794
-0.00417513
0.299254
-0.0103747
0.806616
-0.0196102
1.20781
-0.030753
1.51194
-0.0435945
1.79156
-0.0575929
2.06006
-0.0727703
2.33561
-0.0879838
2.6344
-0.100913
2.94093
-0.107944
3.24543
-0.103743
2.97489
-0.0904805
2.30472
-0.0701131
1.81248
-0.0521614
1.42824
-0.0333438
1.08764
-0.0186861
0.762792
-0.0108683
0.468276
-0.00444861
0.236237
-0.00101641
0.0861629
0.0125629
-0.00441563
0.303669
-0.0113007
0.813501
-0.0204464
1.21696
-0.031322
1.52282
-0.0439308
1.80417
-0.0577437
2.07387
-0.0730022
2.35087
-0.0888533
2.65026
-0.103621
2.95569
-0.113953
3.25576
-0.112359
2.97329
-0.0995131
2.29188
-0.0817738
1.79474
-0.0578159
1.40429
-0.0382942
1.06812
-0.0236771
0.748175
-0.0121456
0.456744
-0.00519558
0.229287
-0.00113793
0.0821053
0.011425
-0.00445168
0.308121
-0.0116539
0.820704
-0.0208682
1.22617
-0.0315228
1.53347
-0.0437941
1.81644
-0.0574466
2.08753
-0.0728287
2.36625
-0.0892614
2.66669
-0.105324
2.97176
-0.117893
3.26833
-0.120025
2.97543
-0.109093
2.28094
-0.0867401
1.77239
-0.0642597
1.38181
-0.0411303
1.04499
-0.0233778
0.730423
-0.0126203
0.445987
-0.00460053
0.221267
-0.000961543
0.0784663
0.0104635
-0.0045591
0.31268
-0.012047
0.828191
-0.0210425
1.23517
-0.03148
1.54391
-0.0435671
1.82853
-0.0570162
2.10098
-0.0724025
2.38164
-0.0893497
2.68364
-0.106813
2.98922
-0.122096
3.28361
-0.126576
2.9799
-0.116587
2.27095
-0.0985872
1.75439
-0.069435
1.35265
-0.0426202
1.01817
-0.0226373
0.71044
-0.00820194
0.431552
-0.00177311
0.214839
0.000323715
0.0763695
0.0107872
-0.00456232
0.317242
-0.0119993
0.835628
-0.0208953
1.24406
-0.0310797
1.55409
-0.0428145
1.84027
-0.0560792
2.11424
-0.0715093
2.39707
-0.0888499
2.70098
-0.107374
3.00774
-0.124637
3.30088
-0.133447
2.98871
-0.126851
2.26436
-0.103854
1.73139
-0.0757515
1.32455
-0.0425819
0.985005
-0.0156824
0.68354
-0.000606454
0.416476
0.00343397
0.210798
-0.0012626
0.0810661
0.00952458
-0.00459422
0.321837
-0.0120382
0.843072
-0.0206008
1.25262
-0.0304989
1.56399
-0.0420006
1.85177
-0.0550274
2.12727
-0.0703613
2.4124
-0.0880043
2.71862
-0.107483
3.02722
-0.126749
3.32014
-0.137769
2.99974
-0.133174
2.25976
-0.116584
1.7148
-0.082641
1.29061
-0.0428638
0.945227
-0.00450559
0.645182
0.0263812
0.385589
0.0378709
0.199308
0.0257332
0.0932038
0.0352578
-0.00446621
0.326303
-0.0116884
0.850295
-0.0200703
1.26101
-0.0296477
1.57357
-0.0407361
1.86286
-0.0535133
2.14004
-0.0687597
2.42765
-0.0865555
2.73642
-0.106742
3.04741
-0.127727
3.34113
-0.142066
3.01407
-0.142957
2.26066
-0.123119
1.69496
-0.0913161
1.2588
-0.043858
0.897769
0.00477864
0.596545
0.0472786
0.343089
0.0475409
0.199046
0.0209366
0.119808
0.0561944
-0.00433341
0.330636
-0.0114539
0.857415
-0.0194511
1.269
-0.0286695
1.58279
-0.0395049
1.87369
-0.0519928
2.15253
-0.0670278
2.44269
-0.084913
2.7543
-0.105679
3.06817
-0.128138
3.36359
-0.14408
3.03002
-0.147683
2.26426
-0.137429
1.68471
-0.103738
1.22511
-0.0533102
0.847342
0.0193624
0.523873
0.118565
0.243886
0.193448
0.124164
0.182001
0.131255
0.238195
-0.00417793
0.334814
-0.0111101
0.864347
-0.0191209
1.27701
-0.0283445
1.59201
-0.0392924
1.88464
-0.0522372
2.16548
-0.0682032
2.45865
-0.0876465
2.77374
-0.111051
3.09158
-0.137922
3.39046
-0.160412
3.05251
-0.170729
2.27458
-0.159841
1.67382
-0.130576
1.19585
-0.0729717
0.789737
-0.0164019
0.467303
-0.0681399
0.295624
-0.357382
0.413406
-0.941674
0.715547
0.900205
-1.60368
-0.00401743
0.338832
-0.010852
0.871182
-0.0185724
1.28473
-0.0276275
1.60107
-0.0385517
1.89556
-0.0516181
2.17854
-0.0679803
2.47501
-0.0883913
2.79415
-0.113671
3.11686
-0.143928
3.42071
-0.17051
3.07909
-0.185045
2.28911
-0.192777
1.68155
-0.174228
1.1773
-0.147221
0.762731
-0.239591
0.559672
-0.693236
0.749269
-1.44259
1.16277
-2.05016
1.32311
1.21683
-2.36678
-0.00378093
0.342612
-0.010277
0.877678
-0.0178421
1.2923
-0.0267181
1.60994
-0.0374497
1.9063
-0.0505887
2.19168
-0.0673577
2.49178
-0.0886286
2.81543
-0.11571
3.14394
-0.149669
3.45467
-0.183231
3.11265
-0.208468
2.31435
-0.21669
1.68977
-0.205986
1.16659
-0.292128
0.848873
-0.753448
1.02099
-1.54487
1.54069
-2.11018
1.72808
-2.34937
1.5623
1.33108
-2.46363
-0.00362941
0.346242
-0.00985971
0.883908
-0.0170533
1.29949
-0.0256926
1.61858
-0.0363298
1.91693
-0.0495263
2.20488
-0.0665835
2.50884
-0.088694
2.83754
-0.117597
3.17284
-0.155214
3.49229
-0.19396
3.1514
-0.223885
2.34427
-0.251685
1.71757
-0.331634
1.24654
-0.68522
1.20246
-1.43743
1.77321
-2.02703
2.13028
-2.26672
1.96777
-2.37989
1.67548
1.39532
-2.44412
-0.00332373
0.349566
-0.00910697
0.889692
-0.0160573
1.30644
-0.0244497
1.62697
-0.0348925
1.92738
-0.0480698
2.21806
-0.0653887
2.52616
-0.0881944
2.86034
-0.118735
3.20338
-0.159911
3.53347
-0.206388
3.19787
-0.250432
2.38832
-0.292413
1.75956
-0.473182
1.42731
-1.09375
1.82303
-1.78784
2.4673
-2.10837
2.45082
-2.25654
2.11593
-2.33857
1.75751
1.46117
-2.40442
-0.00328608
0.352852
-0.00905605
0.895462
-0.0158887
1.31328
-0.0243075
1.63539
-0.0350616
1.93813
-0.0485738
2.23157
-0.0663994
2.54398
-0.0901926
2.88413
-0.122608
3.2358
-0.167589
3.57845
-0.219988
3.25027
-0.266099
2.43443
-0.355727
1.84918
-0.747166
1.81875
-1.49004
2.5659
-1.96315
2.9404
-2.16299
2.65065
-2.26917
2.22212
-2.34623
1.83457
1.52464
-2.4097
-0.00334855
0.3562
-0.00926848
0.901381
-0.0165806
1.32059
-0.0254745
1.64429
-0.0366744
1.94933
-0.0508075
2.2457
-0.0695194
2.5627
-0.0945371
2.90915
-0.128906
3.27017
-0.177598
3.62714
-0.234591
3.30727
-0.297169
2.49701
-0.486382
2.0384
-1.04631
2.37868
-1.67803
3.19762
-1.95353
3.21591
-2.10039
2.79751
-2.21415
2.33588
-2.30765
1.92806
1.58627
-2.36928
-0.003443
0.359643
-0.00981535
0.907754
-0.0174158
1.32819
-0.0267662
1.65364
-0.0385882
1.96115
-0.0534403
2.26055
-0.0730418
2.5823
-0.0994054
2.93552
-0.135833
3.3066
-0.188489
3.67979
-0.251384
3.37016
-0.337047
2.58267
-0.618491
2.31984
-1.26362
3.0238
-1.75272
3.68673
-1.95973
3.42292
-2.09957
2.93735
-2.22323
2.45955
-2.33362
2.03845
1.64483
-2.39218
-0.00337993
0.363023
-0.00985414
0.914228
-0.018104
1.33644
-0.0280624
1.6636
-0.0403664
1.97346
-0.055873
2.27606
-0.0764187
2.60284
-0.104036
2.96313
-0.142331
3.34489
-0.197707
3.73517
-0.26456
3.43701
-0.389257
2.70737
-0.775692
2.70628
-1.41012
3.65823
-1.76287
4.03948
-1.93571
3.59576
-2.03756
3.0392
-2.12602
2.54801
-2.19321
2.10564
1.6376
-2.18598
-0.00335475
0.366378
-0.0103605
0.921234
-0.0188757
1.34495
-0.0293215
1.67404
-0.042366
1.9865
-0.0586771
2.29237
-0.0801606
2.62433
-0.109154
2.99213
-0.149412
3.38515
-0.206828
3.79259
-0.285674
3.51586
-0.455621
2.87731
-0.906936
3.15759
-1.46251
4.2138
-1.72432
4.30128
-1.87599
3.74744
-1.96914
3.13234
-1.97051
2.54938
-1.90141
2.03654
1.60212
-1.86594
-0.00312828
0.369506
-0.0100293
0.928135
-0.0192659
1.35419
-0.0303211
1.6851
-0.0437161
1.9999
-0.060409
2.30906
-0.0823363
2.64625
-0.11167
3.02146
-0.152206
3.42568
-0.208756
3.84914
-0.293856
3.60096
-0.498221
3.08168
-0.988144
3.64752
-1.42956
4.65521
-1.59466
4.46639
-1.66173
3.81451
-1.66617
3.13678
-1.5185
2.40172
-1.01838
1.53641
0.583747
-0.00266831
0.372175
-0.0103227
0.935789
-0.0197462
1.36361
-0.0313886
1.69674
-0.0459483
2.01445
-0.0640788
2.3272
-0.0878916
2.67007
-0.12002
3.05359
-0.164657
3.47032
-0.227834
3.91231
-0.331174
3.7043
-0.585569
3.33607
-1.12427
4.18622
-1.48246
5.01341
-1.58165
4.56558
-1.57947
3.81233
-1.47577
3.03308
-1.23663
2.16257
-0.632714
0.932498
-0.0489677
-0.00227993
0.374454
-0.00923619
0.942745
-0.0195053
1.37388
-0.0321112
1.70935
-0.0474866
2.02983
-0.0668248
2.34653
-0.0925033
2.69575
-0.127222
3.08831
-0.176026
3.51912
-0.245314
3.9816
-0.367583
3.82657
-0.681682
3.65017
-1.24173
4.74627
-1.50299
5.27466
-1.56127
4.62386
-1.53933
3.79038
-1.33724
2.83099
-0.7839
1.60924
-0.109211
0.257808
-0.158178
-0.00167118
0.376126
-0.00907519
0.950149
-0.0191664
1.38397
-0.0321914
1.72237
-0.048684
2.04632
-0.0694663
2.36732
-0.0970831
2.72336
-0.134766
3.12599
-0.187374
3.57173
-0.264683
4.05891
-0.413147
3.97503
-0.785987
4.02301
-1.32101
5.28129
-1.49699
5.45065
-1.5283
4.65517
-1.44013
3.70222
-1.10292
2.49378
-0.31401
0.820323
0.0250789
-0.0812811
-0.133099
-0.00044835
0.376574
-0.00652999
0.956231
-0.0174568
1.3949
-0.0315332
1.73645
-0.0486746
2.06346
-0.0705362
2.38918
-0.0999002
2.75273
-0.139848
3.16594
-0.19522
3.62711
-0.281225
4.14492
-0.455877
4.14968
-0.893768
4.4609
-1.36494
5.75246
-1.482
5.56771
-1.48468
4.65785
-1.26026
3.4778
-0.687947
1.92147
-0.0626285
0.195005
0.0306137
-0.174523
-0.102486
0.000308675
0.376265
-0.00507684
0.961617
-0.0153651
1.40519
-0.0295804
1.75066
-0.0475366
2.08142
-0.0707405
2.41238
-0.101838
2.78382
-0.144289
3.20839
-0.202746
3.68556
-0.29788
4.24005
-0.498956
4.35076
-0.986981
4.94893
-1.36173
6.1272
-1.42539
5.63137
-1.37924
4.6117
-1.09027
3.18883
-0.323628
1.15483
0.00501256
-0.133635
0.0153058
-0.184817
-0.08718
0.00332726
0.372938
0.000453016
0.964491
-0.0109162
1.41656
-0.0261929
1.76594
-0.0443344
2.09956
-0.0683806
2.43643
-0.10072
2.81616
-0.144667
3.25234
-0.205679
3.74657
-0.308852
4.34322
-0.536299
4.57821
-1.04873
5.46136
-1.32405
6.40252
-1.36517
5.6725
-1.22561
4.47214
-0.773945
2.73716
-0.0703178
0.451199
0.0453289
-0.249282
0.0248379
-0.164325
-0.0623421
0.00478024
0.368158
0.00312217
0.966149
-0.00630884
1.42599
-0.0203428
1.77997
-0.0387559
2.11798
-0.0637871
2.46146
-0.0972285
2.8496
-0.142975
3.29808
-0.20652
3.81012
-0.317728
4.45443
-0.574908
4.83539
-1.06988
5.95634
-1.26072
6.59335
-1.27005
5.68183
-1.05072
4.25281
-0.460644
2.14708
-0.0158356
0.00639024
-0.00440555
-0.260712
0.00627325
-0.175004
-0.0560689
0.00865242
0.359505
0.010056
0.964745
0.00241125
1.43363
-0.0116953
1.79408
-0.0301085
2.13639
-0.0552286
2.48658
-0.0888415
2.88322
-0.134469
3.34371
-0.199464
3.87511
-0.316629
4.5716
-0.595117
5.11387
-1.04808
6.4093
-1.16926
6.71453
-1.15556
5.66813
-0.897598
3.99485
-0.264471
1.51395
-0.0702745
-0.187807
-0.0378772
-0.293109
-0.0131987
-0.199683
-0.0692676
0.0117666
0.347739
0.0169309
0.959581
0.0124278
1.43814
0.00168162
1.80483
-0.0173114
2.15538
-0.0420404
2.51131
-0.0753184
2.9165
-0.121338
3.38973
-0.186938
3.94071
-0.308283
4.69294
-0.59427
5.39986
-0.980407
6.79544
-1.04981
6.78393
-0.978655
5.59697
-0.681092
3.69729
-0.0780856
0.910948
0.00763506
-0.273527
-0.00656347
-0.278911
-0.00366271
-0.202583
-0.0729303
0.018429
0.32931
0.0300527
0.947957
0.0282698
1.43992
0.0171312
1.81596
-0.000417487
2.17293
-0.0225556
2.53345
-0.0542564
2.9482
-0.0981741
3.43365
-0.161812
4.00435
-0.282034
4.81317
-0.558396
5.67622
-0.868326
7.10537
-0.902917
6.81852
-0.807371
5.50143
-0.456167
3.34608
0.052934
0.401847
0.0655744
-0.286168
0.0473411
-0.260677
0.0174362
-0.172678
-0.0554941
0.0244853
0.304825
0.043165
0.929278
0.047008
1.43608
0.0403157
1.82266
0.0272376
2.18601
0.00553477
2.55515
-0.0240956
2.97783
-0.0654574
3.47501
-0.125953
4.06485
-0.240448
4.92766
-0.485151
5.92093
-0.708219
7.32844
-0.73841
6.84871
-0.627046
5.39006
-0.304689
3.02373
-0.00669703
0.103855
0.0163004
-0.309165
0.0312233
-0.2756
0.0159608
-0.157416
-0.0395332
0.0348131
0.270011
0.0647633
0.899328
0.0752289
1.42561
0.0716304
1.82625
0.0613312
2.19631
0.0431358
2.57334
0.0170944
3.00387
-0.0197738
3.51188
-0.0731608
4.11823
-0.170111
5.02461
-0.367088
6.1179
-0.520571
7.48192
-0.551989
6.88013
-0.456251
5.29433
-0.173696
2.74117
-0.050109
-0.019732
-0.0277075
-0.331566
8.74548e-05
-0.303395
0.00464977
-0.161978
-0.0348834
0.0443089
0.225703
0.0871906
0.856446
0.108231
1.40457
0.113158
1.82133
0.108566
2.2009
0.0944588
2.58745
0.0741312
3.0242
0.043762
3.54225
-0.00532583
4.16732
-0.0762875
5.09557
-0.207926
6.24954
-0.290684
7.56468
-0.311017
6.90046
-0.248507
5.23182
-0.0350083
2.52767
-0.0598017
0.00506146
-0.0694015
-0.321967
-0.0282129
-0.344584
0.0118053
-0.201996
-0.0230781
0.0569431
0.168759
0.118921
0.794468
0.154591
1.3689
0.166343
1.80957
0.167132
2.20011
0.15851
2.59607
0.145469
3.03724
0.125593
3.56212
0.0950399
4.19788
0.0537471
5.13686
0.0103697
6.29292
-0.0254503
7.6005
-0.0231887
6.8982
-0.0600179
5.26865
-0.0766851
2.54434
-0.309054
0.237431
-0.321278
-0.309743
-0.206577
-0.459285
-0.0461062
-0.362467
-0.0691843
0.0597304
0.109029
0.149065
0.705133
0.206
1.31197
0.233649
1.78193
0.244965
2.18879
0.244015
2.59702
0.239159
3.04209
0.230044
3.57124
0.217695
4.21022
0.203521
5.15104
0.275538
6.2209
0.33645
7.53959
0.283718
6.95093
0.0648357
5.48753
-0.292286
2.90146
-0.667351
0.612496
-0.669969
-0.307125
-0.504648
-0.624606
-0.229862
-0.637253
-0.299046
0.0507026
0.0583263
0.180683
0.575153
0.273328
1.21932
0.316992
1.73826
0.337543
2.16824
0.346493
2.58807
0.349417
3.03917
0.355661
3.56499
0.368031
4.19785
0.39812
5.12095
0.561009
6.05801
0.749482
7.35111
0.780826
6.91959
0.706815
5.56154
0.237207
3.37107
-0.326299
1.176
-0.649108
0.0156839
-0.624485
-0.64923
-0.336907
-0.924832
-0.635953
0.0353522
0.0229742
0.214649
0.395856
0.339733
1.09424
0.416661
1.66133
0.456481
2.12842
0.479621
2.56493
0.490563
3.02823
0.509893
3.54566
0.545446
4.1623
0.622657
5.04374
0.925673
5.755
1.39973
6.87705
1.76924
6.55009
2.04383
5.28694
1.75832
3.65658
1.04728
1.88704
0.434784
0.628182
0.0464267
-0.260872
-0.0981373
-0.780268
-0.73409
0.0311706
-0.00819645
0.234054
0.192973
0.432851
0.89544
0.541263
1.55292
0.593738
2.07595
0.628694
2.52998
0.651733
3.00519
0.683008
3.51439
0.746603
4.09871
0.884614
4.90573
1.29467
5.34494
2.03579
6.13594
2.41964
6.16623
2.62325
5.08334
2.46409
3.81574
1.9263
2.42483
1.3749
1.17958
0.821172
0.292853
0.305304
-0.2644
-0.428786
0.027631
-0.0358275
0.171276
0.0493275
0.483073
0.583644
0.669529
1.36647
0.763048
1.98243
0.813646
2.47938
0.85267
2.96616
0.884382
3.48268
0.960343
4.02274
1.10797
4.7581
1.48256
4.97035
2.26911
5.34939
2.63718
5.79817
2.82151
4.899
2.72759
3.90967
2.26048
2.89194
1.62123
1.81883
0.976922
0.937161
0.419941
0.292582
-0.00884522
0.00806749
-0.043895
0.0890705
-0.0316754
0.409486
0.263228
0.678194
1.09776
0.804219
1.85641
0.841142
2.44246
0.85166
2.95564
0.842096
3.49224
0.841668
4.02317
0.885872
4.7139
1.0127
4.84352
1.4099
4.95219
1.60969
5.59838
1.63195
4.87674
1.5556
3.98602
1.3461
3.10144
0.995665
2.16927
0.629632
1.30319
0.258706
0.663507
0.249861
-0.000133253
-0.0437617
0.0388104
-0.070619
0.228615
0.0734236
0.508087
0.818284
0.665916
1.69858
0.718842
2.38953
0.732346
2.94214
0.726658
3.49793
0.710538
4.03929
0.727756
4.69668
0.782149
4.78912
1.03041
4.70393
1.251
5.37779
1.25813
4.86961
1.19592
4.04823
1.0478
3.24956
0.785542
2.43152
0.489227
1.59951
0.201087
0.951647
0.450948
-0.000275441
-0.0434863
0.0226724
-0.0935669
0.106759
-0.0106635
0.356083
0.568961
0.510918
1.54374
0.580359
2.32009
0.600599
2.9219
0.602228
3.4963
0.581285
4.06023
0.57254
4.70542
0.595591
4.76607
0.745432
4.55409
0.925495
5.19773
0.924287
4.87082
0.860598
4.11192
0.745206
3.36495
0.56471
2.61202
0.342596
1.82162
0.132251
1.16199
0.583199
-0.00356308
-0.0399232
0.0130352
-0.110165
0.0609369
-0.0585653
0.255393
0.374505
0.390092
1.40904
0.449704
2.26048
0.465235
2.90637
0.470452
3.49108
0.459163
4.07152
0.447273
4.71731
0.447085
4.76626
0.535076
4.4661
0.66273
5.07007
0.658669
4.87488
0.593816
4.17677
0.500797
3.45797
0.373208
2.73961
0.217871
1.97696
0.0743921
1.30547
0.657591
0.0225504
-0.0624736
0.0700392
-0.157654
0.111098
-0.0996245
0.194478
0.291125
0.287115
1.31641
0.326702
2.22089
0.337322
2.89575
0.344718
3.48369
0.343785
4.07246
0.336548
4.72455
0.329177
4.77363
0.372117
4.42316
0.453007
4.98918
0.446024
4.88186
0.389013
4.23378
0.318149
3.52884
0.228547