/*--------------------------------*- C++ -*----------------------------------*\
  =========                 |
  \\      /  F ield         | OpenFOAM: The Open Source CFD Toolbox
   \\    /   O peration     | Website:  https://openfoam.org
    \\  /    A nd           | Version:  10
     \\/     M anipulation  |
\*---------------------------------------------------------------------------*/
FoamFile
{
    format      ascii;
    class       volVectorField;
    location    "53";
    object      U;
}
// * * * * * * * * * * * * * * * * * * * * * * * * * * * * * * * * * * * * * //

dimensions      [0 1 -1 0 0 0 0];

internalField   nonuniform List<vector> 
2200
(
(0.878839 -0.0304138 0)
(1.00578 -0.0512838 0)
(1.00328 -0.0354008 0)
(1.00026 -0.0244564 0)
(0.999836 -0.0166939 0)
(1 -0.0107589 0)
(1.00003 -0.0068699 0)
(1.00003 -0.00421481 0)
(1.00001 -0.00223085 0)
(1.00018 -0.000713206 0)
(0.999999 0.00105397 0)
(0.999857 0.00255839 0)
(1.00003 0.00449161 0)
(1.00006 0.00706058 0)
(1.00009 0.0108388 0)
(1.00007 0.0166835 0)
(1.00039 0.0244029 0)
(1.00349 0.0349157 0)
(1.00597 0.0513758 0)
(0.879032 0.0303094 0)
(0.711998 -0.032764 0)
(0.996632 -0.0630156 0)
(1.0333 -0.0561687 0)
(1.02485 -0.0464033 0)
(1.01588 -0.0360861 0)
(1.00968 -0.0263676 0)
(1.00591 -0.0181348 0)
(1.00374 -0.0114418 0)
(1.00254 -0.00606132 0)
(1.00208 -0.00153932 0)
(1.0022 0.00262184 0)
(1.00266 0.00708745 0)
(1.0036 0.0123944 0)
(1.00568 0.0190006 0)
(1.00943 0.0272424 0)
(1.01545 0.0369282 0)
(1.02453 0.0473882 0)
(1.0331 0.0578757 0)
(0.996682 0.0631418 0)
(0.711764 0.0330195 0)
(0.535544 -0.0238923 0)
(0.969895 -0.0569435 0)
(1.05644 -0.0547125 0)
(1.05232 -0.048805 0)
(1.03626 -0.040478 0)
(1.0244 -0.0322864 0)
(1.01591 -0.0240239 0)
(1.01043 -0.0161458 0)
(1.00722 -0.00885806 0)
(1.00565 -0.00223177 0)
(1.00542 0.00407478 0)
(1.00687 0.0105746 0)
(1.01021 0.0176249 0)
(1.01565 0.0252784 0)
(1.02408 0.0333352 0)
(1.03618 0.0413376 0)
(1.05226 0.0493718 0)
(1.05633 0.0533539 0)
(0.969218 0.0576192 0)
(0.534435 0.0239298 0)
(0.392239 -0.0136625 0)
(0.911717 -0.0464072 0)
(1.05746 -0.0469982 0)
(1.06938 -0.0442909 0)
(1.05484 -0.0381917 0)
(1.03937 -0.0315201 0)
(1.02753 -0.0247226 0)
(1.01904 -0.0175008 0)
(1.01366 -0.0100502 0)
(1.01105 -0.00247605 0)
(1.01101 0.00504494 0)
(1.01341 0.012516 0)
(1.01837 0.0197143 0)
(1.02677 0.0266461 0)
(1.03851 0.0330348 0)
(1.0539 0.0395065 0)
(1.06813 0.0455926 0)
(1.05555 0.0482832 0)
(0.909928 0.04698 0)
(0.389994 0.0137754 0)
(0.307634 -0.00450721 0)
(0.846742 -0.0323748 0)
(1.04954 -0.0399144 0)
(1.07961 -0.0381868 0)
(1.06823 -0.0335241 0)
(1.05165 -0.0279347 0)
(1.03828 -0.022532 0)
(1.02806 -0.0165066 0)
(1.02102 -0.00957017 0)
(1.01716 -0.00196082 0)
(1.01688 0.00585575 0)
(1.02036 0.0130791 0)
(1.02735 0.0196015 0)
(1.03729 0.0252588 0)
(1.05038 0.0302589 0)
(1.06684 0.0355877 0)
(1.07789 0.039917 0)
(1.04746 0.041641 0)
(0.843158 0.0329206 0)
(0.303909 0.00472293 0)
(0.264152 9.56948e-05 0)
(0.78876 -0.0200983 0)
(1.03307 -0.0315109 0)
(1.08338 -0.0321501 0)
(1.07725 -0.0288966 0)
(1.06085 -0.0239956 0)
(1.04725 -0.019526 0)
(1.03637 -0.0143846 0)
(1.02853 -0.0083933 0)
(1.02404 -0.00143013 0)
(1.02363 0.00594167 0)
(1.02745 0.0128086 0)
(1.03461 0.0184579 0)
(1.04522 0.0230644 0)
(1.05864 0.0269893 0)
(1.07488 0.0314107 0)
(1.08035 0.0341791 0)
(1.02921 0.0332526 0)
(0.782828 0.0207159 0)
(0.258971 0.000110523 0)
(0.240226 0.00106617 0)
(0.73831 -0.0123118 0)
(1.01374 -0.0250092 0)
(1.08411 -0.0267948 0)
(1.08299 -0.0245004 0)
(1.06773 -0.0204232 0)
(1.05419 -0.0164399 0)
(1.04334 -0.0119776 0)
(1.03517 -0.00653144 0)
(1.0303 -7.76264e-05 0)
(1.02995 0.00664031 0)
(1.03409 0.0124988 0)
(1.04165 0.0172608 0)
(1.05182 0.0211772 0)
(1.06497 0.0245618 0)
(1.07971 0.0279831 0)
(1.0802 0.0295334 0)
(1.00797 0.0271562 0)
(0.729353 0.0131081 0)
(0.233419 -0.000846038 0)
(0.225787 0.000955261 0)
(0.695093 -0.00806242 0)
(0.992721 -0.0208228 0)
(1.08197 -0.0232206 0)
(1.08669 -0.02138 0)
(1.07327 -0.017777 0)
(1.05985 -0.0140153 0)
(1.04929 -0.00970545 0)
(1.04137 -0.00482532 0)
(1.03639 0.000763208 0)
(1.03546 0.00661658 0)
(1.03897 0.0120109 0)
(1.04593 0.0162851 0)
(1.05593 0.0197233 0)
(1.06915 0.0227884 0)
(1.08195 0.0256409 0)
(1.07561 0.026629 0)
(0.983452 0.0233257 0)
(0.682316 0.00908389 0)
(0.217031 -0.000719975 0)
(0.216203 0.000612048 0)
(0.659749 -0.00571942 0)
(0.972396 -0.0177042 0)
(1.07947 -0.0203419 0)
(1.09019 -0.0187833 0)
(1.07812 -0.015671 0)
(1.06469 -0.0119769 0)
(1.05423 -0.00786719 0)
(1.04634 -0.00306869 0)
(1.04134 0.00232409 0)
(1.04077 0.00781651 0)
(1.04433 0.0123779 0)
(1.05087 0.0161476 0)
(1.06027 0.019393 0)
(1.07294 0.022072 0)
(1.08383 0.0242307 0)
(1.0716 0.0248006 0)
(0.96008 0.0208581 0)
(0.642642 0.00700853 0)
(0.205081 -0.000348388 0)
(0.20888 0.000291702 0)
(0.630896 -0.00424933 0)
(0.953163 -0.0151173 0)
(1.07608 -0.0180821 0)
(1.0932 -0.0167731 0)
(1.08283 -0.0138477 0)
(1.06936 -0.0103081 0)
(1.05889 -0.00620344 0)
(1.05119 -0.0015532 0)
(1.04625 0.00339568 0)
(1.04462 0.00826744 0)
(1.04721 0.0128033 0)
(1.05339 0.0164561 0)
(1.06276 0.0193479 0)
(1.07565 0.0218772 0)
(1.08465 0.0236552 0)
(1.06413 0.0236107 0)
(0.934973 0.0189304 0)
(0.607749 0.00585298 0)
(0.194711 2.63961e-05 0)
(0.203031 7.99698e-05 0)
(0.607569 -0.00317542 0)
(0.935246 -0.0126249 0)
(1.07303 -0.0157353 0)
(1.09649 -0.0146711 0)
(1.08741 -0.0120109 0)
(1.07393 -0.00848067 0)
(1.06321 -0.00451863 0)
(1.05511 6.65009e-05 0)
(1.04976 0.00515047 0)
(1.04861 0.0102319 0)
(1.05134 0.0141739 0)
(1.05723 0.017362 0)
(1.06631 0.0199918 0)
(1.07843 0.0220284 0)
(1.08519 0.023191 0)
(1.05804 0.0226455 0)
(0.912038 0.0173254 0)
(0.578133 0.0051647 0)
(0.185343 0.00030351 0)
(0.198356 -4.02073e-06 0)
(0.589138 -0.00234398 0)
(0.919487 -0.0103684 0)
(1.06964 -0.0136167 0)
(1.09954 -0.0126195 0)
(1.0921 -0.0099546 0)
(1.0785 -0.00649366 0)
(1.06758 -0.00253888 0)
(1.05935 0.00200633 0)
(1.05388 0.00678719 0)
(1.05143 0.0112742 0)
(1.0532 0.0154021 0)
(1.05884 0.0184452 0)
(1.06797 0.0205812 0)
(1.08035 0.0223447 0)
(1.08496 0.0231713 0)
(1.04866 0.0220088 0)
(0.887333 0.0160223 0)
(0.550724 0.00474476 0)
(0.176072 0.000467102 0)
(0.194718 2.24979e-05 0)
(0.574343 -0.00159235 0)
(0.90498 -0.00819992 0)
(1.06702 -0.0111723 0)
(1.10312 -0.0101321 0)
(1.097 -0.0075069 0)
(1.08343 -0.00400975 0)
(1.0721 -0.000198579 0)
(1.06325 0.00423525 0)
(1.05694 0.00914971 0)
(1.0548 0.0139069 0)
(1.05684 0.0172902 0)
(1.06221 0.0196583 0)
(1.07095 0.0215859 0)
(1.08216 0.0228815 0)
(1.08427 0.023408 0)
(1.04026 0.0217111 0)
(0.86448 0.0151285 0)
(0.526517 0.00456212 0)
(0.16729 0.000562838 0)
(0.192502 5.19483e-05 0)
(0.563586 -0.000825228 0)
(0.893384 -0.00605801 0)
(1.06435 -0.00899043 0)
(1.1066 -0.00780442 0)
(1.10212 -0.00491321 0)
(1.08836 -0.0012744 0)
(1.07671 0.00259917 0)
(1.0675 0.00697259 0)
(1.06096 0.0115647 0)
(1.05742 0.0158463 0)
(1.05803 0.0191414 0)
(1.06307 0.0214298 0)
(1.07202 0.0226939 0)
(1.08321 0.0237663 0)
(1.08269 0.0238323 0)
(1.02865 0.0215737 0)
(0.839485 0.0144348 0)
(0.502709 0.00442476 0)
(0.158326 0.000591571 0)
(0.191549 0.000100517 0)
(0.555997 -0.000236955 0)
(0.882905 -0.00401023 0)
(1.06273 -0.006183 0)
(1.11057 -0.00479203 0)
(1.10735 -0.00188709 0)
(1.09358 0.00189302 0)
(1.08133 0.00594179 0)
(1.07129 0.0104622 0)
(1.06349 0.0152257 0)
(1.05977 0.0193646 0)
(1.06112 0.0222655 0)
(1.06602 0.0236372 0)
(1.07446 0.0247368 0)
(1.0835 0.025318 0)
(1.08004 0.0249132 0)
(1.01742 0.0220382 0)
(0.815857 0.0141533 0)
(0.480833 0.00445654 0)
(0.149746 0.000620366 0)
(0.192051 8.6429e-05 0)
(0.551503 0.000748042 0)
(0.876468 -0.00165366 0)
(1.06164 -0.00366357 0)
(1.11468 -0.00196313 0)
(1.11302 0.00133139 0)
(1.09914 0.0053951 0)
(1.0866 0.00961662 0)
(1.07627 0.0141924 0)
(1.0683 0.018748 0)
(1.06328 0.022523 0)
(1.0621 0.024827 0)
(1.06578 0.0264532 0)
(1.07425 0.0269371 0)
(1.08338 0.0270784 0)
(1.07627 0.0262401 0)
(1.00263 0.0225867 0)
(0.789616 0.014118 0)
(0.458117 0.00455646 0)
(0.140671 0.000642691 0)
(0.193974 0.000190636 0)
(0.551649 0.0014888 0)
(0.871416 0.00035776 0)
(1.06233 -0.000230134 0)
(1.11969 0.00183397 0)
(1.11909 0.00519882 0)
(1.10515 0.00942156 0)
(1.09194 0.0141408 0)
(1.08053 0.0191799 0)
(1.07079 0.0240544 0)
(1.06492 0.0275915 0)
(1.06454 0.0297829 0)
(1.0685 0.0303969 0)
(1.07598 0.0306364 0)
(1.08191 0.0299263 0)
(1.07099 0.0282527 0)
(0.988233 0.0237211 0)
(0.764533 0.0144963 0)
(0.436432 0.00478232 0)
(0.131702 0.000673693 0)
(0.197958 0.000652254 0)
(0.554152 0.002275 0)
(0.871492 0.00326877 0)
(1.06434 0.00302042 0)
(1.12514 0.00569714 0)
(1.12571 0.00962 0)
(1.11157 0.0144528 0)
(1.09798 0.0194054 0)
(1.08603 0.0245298 0)
(1.07568 0.0291678 0)
(1.06836 0.0325516 0)
(1.06502 0.0339439 0)
(1.06632 0.0344065 0)
(1.07363 0.0337866 0)
(1.08003 0.0330409 0)
(1.06415 0.030786 0)
(0.969493 0.0252401 0)
(0.735623 0.0151998 0)
(0.412501 0.00511961 0)
(0.121761 0.000716295 0)
(0.20427 0.000866728 0)
(0.560676 0.00338043 0)
(0.875044 0.00572271 0)
(1.06888 0.0073101 0)
(1.13178 0.0106942 0)
(1.13299 0.0150933 0)
(1.11828 0.0202925 0)
(1.1035 0.0259581 0)
(1.08989 0.0316903 0)
(1.07743 0.0368734 0)
(1.06853 0.0398213 0)
(1.06574 0.0406588 0)
(1.06845 0.0404056 0)
(1.07441 0.0397375 0)
(1.0764 0.0373814 0)
(1.05555 0.0340645 0)
(0.950877 0.0273734 0)
(0.707299 0.0162265 0)
(0.388757 0.00555457 0)
(0.111614 0.000757023 0)
(0.212562 0.0010424 0)
(0.571864 0.00470404 0)
(0.883109 0.00880708 0)
(1.07601 0.0118387 0)
(1.13973 0.0163107 0)
(1.14163 0.0214881 0)
(1.12627 0.0276869 0)
(1.11071 0.0337047 0)
(1.09623 0.0395716 0)
(1.08247 0.0444075 0)
(1.07159 0.0472905 0)
(1.06541 0.0477164 0)
(1.0643 0.0465505 0)
(1.06935 0.0439713 0)
(1.07235 0.0423748 0)
(1.04465 0.0380675 0)
(0.926385 0.0298977 0)
(0.673641 0.0176241 0)
(0.361391 0.00607284 0)
(0.100045 0.000805171 0)
(0.224688 0.00136578 0)
(0.58966 0.00663253 0)
(0.897382 0.0131085 0)
(1.08655 0.0180026 0)
(1.14959 0.0233511 0)
(1.15149 0.0294227 0)
(1.13483 0.0363629 0)
(1.11711 0.0433012 0)
(1.09973 0.0499872 0)
(1.08302 0.0555217 0)
(1.0699 0.0580553 0)
(1.06412 0.0571204 0)
(1.06453 0.054898 0)
(1.06906 0.0522854 0)
(1.06558 0.0485195 0)
(1.03143 0.0426804 0)
(0.901645 0.0331339 0)
(0.639914 0.0192862 0)
(0.333507 0.00663484 0)
(0.088106 0.000846166 0)
(0.240271 0.0019221 0)
(0.613111 0.00845484 0)
(0.918295 0.0177936 0)
(1.10141 0.0249578 0)
(1.16146 0.0319838 0)
(1.16296 0.0390625 0)
(1.14456 0.047401 0)
(1.1252 0.0551657 0)
(1.10629 0.0621646 0)
(1.08768 0.067044 0)
(1.07176 0.0682109 0)
(1.06224 0.0671002 0)
(1.05861 0.0637313 0)
(1.06052 0.0596311 0)
(1.05868 0.0553998 0)
(1.01497 0.0484855 0)
(0.869339 0.0366691 0)
(0.598921 0.0211679 0)
(0.30085 0.00721364 0)
(0.0745112 0.00086319 0)
(0.261907 0.0027714 0)
(0.645515 0.0122293 0)
(0.946631 0.0245942 0)
(1.12064 0.0346166 0)
(1.17605 0.0429529 0)
(1.17627 0.052194 0)
(1.15549 0.0616453 0)
(1.13304 0.0704258 0)
(1.11011 0.0779335 0)
(1.08711 0.0825317 0)
(1.0686 0.0832405 0)
(1.05857 0.0795975 0)
(1.05644 0.0753545 0)
(1.05825 0.0703439 0)
(1.0474 0.0639267 0)
(0.99478 0.0548141 0)
(0.835838 0.0410427 0)
(0.557226 0.0233156 0)
(0.2674 0.00779948 0)
(0.0606991 0.000843685 0)
(0.293199 0.00369434 0)
(0.691168 0.0155065 0)
(0.985603 0.0330931 0)
(1.14657 0.0466579 0)
(1.19419 0.0576618 0)
(1.19201 0.0685676 0)
(1.16775 0.0794617 0)
(1.14235 0.0887587 0)
(1.11691 0.0959049 0)
(1.09185 0.0994117 0)
(1.06977 0.0977183 0)
(1.05555 0.0936008 0)
(1.04814 0.0873255 0)
(1.04587 0.0802914 0)
(1.03568 0.0731801 0)
(0.970487 0.0621977 0)
(0.792428 0.0453363 0)
(0.505837 0.0254496 0)
(0.227861 0.00816449 0)
(0.0452245 0.000743929 0)
(0.329519 0.00707381 0)
(0.74923 0.0246458 0)
(1.03477 0.0464727 0)
(1.17826 0.064193 0)
(1.21606 0.0768513 0)
(1.20954 0.0910305 0)
(1.1808 0.102866 0)
(1.15115 0.112426 0)
(1.12077 0.119131 0)
(1.08975 0.121224 0)
(1.06404 0.117812 0)
(1.04902 0.110416 0)
(1.04352 0.102436 0)
(1.0413 0.0944929 0)
(1.01867 0.0844465 0)
(0.940172 0.0702204 0)
(0.746982 0.0509253 0)
(0.454173 0.0278803 0)
(0.188514 0.00837641 0)
(0.0308378 0.000614525 0)
(0.409314 0.0106255 0)
(0.836429 0.0357256 0)
(1.09979 0.0671253 0)
(1.21759 0.0895811 0)
(1.24195 0.105329 6.41281e-34)
(1.2283 0.121207 -2.88619e-34)
(1.19299 0.133062 0)
(1.15807 0.141288 0)
(1.12287 0.145487 0)
(1.08867 0.144263 0)
(1.06044 0.138052 0)
(1.04208 0.12883 0)
(1.0312 0.118824 0)
(1.02308 0.107566 0)
(0.999123 0.0962521 0)
(0.90429 0.0796492 0)
(0.687399 0.0553735 0)
(0.386968 0.0291483 0)
(0.139463 0.00804469 0)
(0.0143521 0.000733023 0)
(0.480315 0.0259074 4.76529e-20)
(0.93864 0.0594635 -3.60647e-20)
(1.17084 0.101747 0)
(1.25841 0.128313 2.77998e-20)
(1.26944 0.143541 -2.2544e-20)
(1.24628 0.161502 3.04519e-34)
(1.20401 0.171438 0)
(1.16397 0.177534 1.6181e-20)
(1.1238 0.179595 -5.31148e-20)
(1.08438 0.176428 1.08352e-20)
(1.05082 0.16622 0)
(1.03001 0.152833 -2.74369e-20)
(1.02059 0.139633 -3.28943e-20)
(1.01238 0.128765 5.75457e-20)
(0.968295 0.113064 -4.54507e-20)
(0.84731 0.0897896 0)
(0.607791 0.0605652 -1.63879e-20)
(0.308734 0.029293 0)
(0.0887748 0.00773111 -9.03623e-20)
(-0.00272441 0.000584975 1.06493e-19)
(0.516651 0.0534497 -6.23113e-21)
(1.00283 0.102603 1.08494e-19)
(1.22039 0.151643 -6.23914e-21)
(1.2917 0.175862 -6.90372e-20)
(1.29372 0.193147 -4.77888e-20)
(1.26149 0.209269 7.77344e-20)
(1.21278 0.216402 0)
(1.16694 0.219868 0)
(1.1207 0.218795 8.45207e-20)
(1.07477 0.210648 0)
(1.03721 0.196938 9.91351e-20)
(1.01369 0.182845 2.94395e-20)
(0.998568 0.169666 4.36286e-22)
(0.978209 0.152455 -6.27238e-20)
(0.929404 0.1342 0)
(0.793434 0.10738 0)
(0.540535 0.0686125 -2.67607e-19)
(0.25168 0.0306142 6.72571e-19)
(0.060008 0.00709708 -3.97556e-19)
(-0.0129756 -0.000797737 -4.68701e-19)
(0.524591 0.0760145 -6.24445e-20)
(1.04091 0.159375 2.37855e-20)
(1.25743 0.212234 1.2884e-20)
(1.31801 0.235136 1.20492e-19)
(1.31269 0.2507 1.44137e-20)
(1.27308 0.262377 -2.02743e-19)
(1.21877 0.265584 6.90611e-20)
(1.16772 0.265587 0)
(1.11646 0.26118 -1.78779e-19)
(1.06711 0.250884 1.58556e-19)
(1.02676 0.236593 -2.67568e-19)
(0.997874 0.21818 1.25407e-19)
(0.977955 0.199528 -8.12753e-20)
(0.959699 0.183903 1.83132e-19)
(0.898375 0.161744 0)
(0.752538 0.125165 -6.69427e-20)
(0.503045 0.0788744 0)
(0.238199 0.0339421 3.69494e-19)
(0.0568078 0.00832898 -8.73475e-19)
(-0.0144385 -0.00223839 5.47504e-19)
(0.520114 0.107776 1.74689e-19)
(1.0608 0.215713 -7.64671e-20)
(1.27899 0.276868 -1.62208e-20)
(1.33515 0.299256 0)
(1.32487 0.312822 -8.91127e-20)
(1.27995 0.31938 1.09922e-19)
(1.22094 0.317718 -7.39383e-20)
(1.16498 0.313456 0)
(1.10874 0.304911 1.27048e-19)
(1.0538 0.290315 -1.11441e-19)
(1.00475 0.268873 2.32083e-19)
(0.972539 0.247924 0)
(0.954363 0.230307 -1.7285e-19)
(0.92481 0.210218 9.73804e-20)
(0.866582 0.185064 2.45563e-19)
(0.725628 0.147767 -2.16078e-19)
(0.487396 0.0941003 3.42735e-19)
(0.237494 0.0433472 -7.59904e-19)
(0.0633967 0.0110782 4.79672e-19)
(-0.0113897 -0.00246953 -5.99863e-19)
(0.508931 0.132044 -6.08967e-20)
(1.06906 0.269832 4.35847e-20)
(1.29013 0.342853 -5.38921e-20)
(1.34418 0.364963 1.07185e-19)
(1.33038 0.376187 -1.01127e-19)
(1.28171 0.377644 3.48457e-20)
(1.21897 0.37141 3.60386e-21)
(1.15879 0.363149 -1.44302e-19)
(1.09762 0.350451 -1.33393e-19)
(1.03765 0.332003 -2.39617e-19)
(0.98866 0.308666 -4.99033e-19)
(0.954972 0.286033 -1.53779e-19)
(0.928176 0.264526 2.27847e-21)
(0.906915 0.242993 -3.33835e-19)
(0.841909 0.217023 -5.77603e-21)
(0.7015 0.169698 3.14703e-19)
(0.477092 0.109758 -9.48568e-20)
(0.242761 0.0540773 -5.49316e-20)
(0.0744286 0.015693 0)
(-0.00571566 -0.00175994 1.27683e-18)
(0.492455 0.1528 0)
(1.06395 0.319435 -3.99537e-21)
(1.29242 0.40584 -9.30621e-21)
(1.34641 0.428699 -1.2819e-20)
(1.33007 0.438872 9.79115e-20)
(1.27879 0.436058 -8.11188e-20)
(1.2132 0.425467 8.07863e-20)
(1.14984 0.412845 2.36888e-19)
(1.0861 0.395954 -7.41933e-20)
(1.024 0.37278 1.18517e-19)
(0.969432 0.344298 2.68253e-19)
(0.928946 0.318401 3.35238e-19)
(0.904771 0.295402 -2.01938e-19)
(0.870574 0.272359 3.61494e-19)
(0.812727 0.241218 -2.86511e-19)
(0.682528 0.196121 0)
(0.473411 0.130093 -7.20349e-19)
(0.254419 0.0684492 9.69504e-19)
(0.0894571 0.0234341 7.23733e-20)
(0.00195885 0.000224947 -1.35093e-18)
(0.477949 0.172947 -5.08819e-21)
(1.05594 0.36748 4.26937e-21)
(1.28956 0.466742 6.79102e-20)
(1.34367 0.490781 -8.96994e-20)
(1.32522 0.499784 8.1134e-20)
(1.27211 0.49287 -7.86921e-20)
(1.20458 0.478391 1.60251e-19)
(1.13892 0.461958 -7.12105e-20)
(1.07181 0.440986 -2.99601e-19)
(1.00398 0.413665 -1.98449e-22)
(0.945525 0.382435 -2.9171e-19)
(0.90658 0.353522 -3.60678e-19)
(0.87748 0.327329 2.23004e-19)
(0.853072 0.304693 -1.30121e-19)
(0.790335 0.274213 3.11564e-19)
(0.663739 0.218974 0)
(0.466797 0.15048 -4.47472e-19)
(0.261632 0.0827103 6.60891e-19)
(0.101346 0.0318411 1.25079e-18)
(0.0087555 0.00266486 -1.47116e-18)
(0.46406 0.190736 -5.5424e-20)
(1.04398 0.412261 2.17672e-20)
(1.2827 0.524314 -4.60263e-20)
(1.33711 0.549677 9.2927e-20)
(1.31706 0.558232 1.19838e-20)
(1.2626 0.547989 -1.5449e-19)
(1.19345 0.53007 -9.28626e-20)
(1.12564 0.509898 -9.09152e-20)
(1.05611 0.485412 -1.69099e-19)
(0.987047 0.454363 2.72056e-19)
(0.927614 0.41943 2.94944e-19)
(0.883654 0.385849 5.72341e-19)
(0.853869 0.360291 0)
(0.818757 0.333254 6.46086e-21)
(0.762826 0.29783 -8.56163e-19)
(0.645463 0.24622 2.00252e-19)
(0.462293 0.171125 9.68914e-19)
(0.268453 0.0984655 -2.85922e-19)
(0.111774 0.0410333 5.94304e-19)
(0.0147554 0.0054903 -4.95496e-20)
(0.454203 0.208878 5.86132e-21)
(1.03243 0.454982 4.32868e-20)
(1.27344 0.579268 -2.00138e-20)
(1.32789 0.606311 1.03089e-19)
(1.30627 0.613958 -1.63333e-19)
(1.2507 0.600504 1.53566e-19)
(1.18036 0.579584 9.61779e-20)
(1.11102 0.556375 2.71829e-19)
(1.03918 0.528224 3.39571e-19)
(0.966656 0.493165 -3.13906e-19)
(0.902416 0.454159 0)
(0.857172 0.418963 -2.16483e-19)
(0.827303 0.390542 2.48547e-19)
(0.801739 0.363388 3.13791e-19)
(0.741881 0.330136 -1.81477e-19)
(0.626627 0.26726 -4.4259e-19)
(0.45379 0.190912 -1.32046e-19)
(0.271118 0.113199 -1.77873e-21)
(0.118469 0.0495217 0)
(0.0190187 0.00804613 0)
(0.446155 0.225096 -6.92684e-20)
(1.02076 0.49543 0)
(1.26255 0.631022 -5.5857e-21)
(1.31652 0.659808 -1.06502e-20)
(1.29377 0.666978 1.8537e-19)
(1.23733 0.650821 -4.71151e-20)
(1.16592 0.627226 9.77597e-20)
(1.09518 0.600995 -1.84061e-19)
(1.02176 0.57001 2.57561e-19)
(0.94764 0.532183 -1.03001e-19)
(0.881768 0.489786 1.68971e-19)
(0.835642 0.452211 6.86341e-19)
(0.804304 0.421661 1.4343e-20)
(0.767238 0.390189 -3.27134e-19)
(0.714384 0.349523 6.06314e-19)
(0.606925 0.292555 4.02546e-21)
(0.444473 0.209315 1.41269e-19)
(0.269095 0.126653 -6.73707e-19)
(0.12049 0.0564272 6.94595e-19)
(0.0214745 0.0100278 -8.18365e-19)
(0.43948 0.243159 2.87578e-23)
(1.00902 0.5334 0)
(1.25041 0.679771 0)
(1.30388 0.710773 -3.87316e-21)
(1.27996 0.717068 -5.52812e-20)
(1.22274 0.698331 7.22001e-20)
(1.15068 0.672355 -1.82473e-19)
(1.07909 0.643731 0)
(1.00385 0.609882 -3.79717e-19)
(0.926634 0.568558 4.54592e-19)
(0.858559 0.522503 4.81317e-19)
(0.809887 0.482448 -2.51895e-19)
(0.776341 0.448811 -3.04911e-19)
(0.750514 0.416956 7.14937e-19)
(0.692063 0.378595 -2.15429e-19)
(0.586316 0.308813 -2.57173e-19)
(0.430442 0.225858 -1.53888e-19)
(0.263791 0.136994 -7.26936e-19)
(0.118323 0.0617726 1.06328e-19)
(0.0220891 0.0110523 8.83832e-19)
(0.435396 0.261312 -3.49512e-20)
(0.998726 0.570181 -4.54927e-20)
(1.23772 0.725822 2.36176e-20)
(1.29019 0.758581 -1.95251e-22)
(1.2655 0.764503 -5.57238e-20)
(1.2078 0.743601 1.17583e-19)
(1.13511 0.715491 0)
(1.0624 0.684457 1.11087e-19)
(0.985637 0.648474 -8.75927e-20)
(0.90694 0.60511 7.57986e-19)
(0.836815 0.556691 -1.09599e-19)
(0.786693 0.513362 1.24835e-19)
(0.753387 0.477003 0)
(0.715481 0.440035 -3.871e-19)
(0.663953 0.392374 4.68959e-19)
(0.564751 0.329636 0)
(0.417888 0.239128 -3.31541e-19)
(0.255694 0.146321 9.75059e-19)
(0.114477 0.0646412 1.15169e-19)
(0.0211027 0.0118192 -1.08746e-18)
(0.432881 0.278266 -8.93101e-20)
(0.988431 0.604291 1.14653e-19)
(1.22462 0.768911 0)
(1.27624 0.803804 1.09561e-20)
(1.25065 0.808956 0)
(1.19237 0.786047 -1.51321e-19)
(1.11927 0.756108 0)
(1.04593 0.723256 0)
(0.967878 0.685117 -1.15642e-19)
(0.88699 0.639024 -7.20446e-19)
(0.814546 0.587926 -8.89245e-19)
(0.761695 0.540987 1.45961e-19)
(0.725224 0.500237 5.26604e-19)
(0.697723 0.461889 4.26275e-19)
(0.641853 0.41714 -1.50444e-18)
(0.543619 0.339704 -6.03262e-19)
(0.400755 0.250098 3.53359e-19)
(0.245123 0.151703 0)
(0.108559 0.0660659 9.89091e-19)
(0.0194211 0.0118038 -1.1714e-18)
(0.431363 0.293965 1.07709e-19)
(0.979461 0.637465 -1.34029e-19)
(1.21173 0.809588 0)
(1.26196 0.846039 -1.10826e-20)
(1.23572 0.850984 1.42154e-21)
(1.17711 0.826394 0)
(1.10364 0.794768 5.6038e-20)
(1.02949 0.760013 7.67887e-20)
(0.950224 0.720327 -2.17697e-19)
(0.867456 0.672946 9.55287e-20)
(0.791302 0.619529 0)
(0.73761 0.568648 6.04417e-19)
(0.701687 0.525353 5.28475e-21)
(0.662243 0.481123 2.29931e-19)
(0.61317 0.42403 2.73101e-19)
(0.521232 0.355628 0)
(0.38597 0.257175 -5.76807e-19)
(0.233596 0.155045 1.13116e-18)
(0.102027 0.0661228 -1.19662e-18)
(0.0174327 0.0113514 2.52189e-18)
(0.430122 0.309016 0)
(0.970237 0.668112 0)
(1.19895 0.847427 -6.50252e-20)
(1.24797 0.885881 0)
(1.22093 0.890171 0)
(1.16184 0.864006 -1.257e-19)
(1.08813 0.830988 5.73513e-20)
(1.0136 0.7949 1.76414e-20)
(0.93314 0.753713 -4.98168e-20)
(0.848053 0.704426 0)
(0.7701 0.649094 -1.35324e-19)
(0.712279 0.595793 -4.93006e-19)
(0.671063 0.546061 -5.93862e-19)
(0.643324 0.497232 -2.3881e-19)
(0.590158 0.444164 2.9573e-19)
(0.499428 0.358239 -6.97009e-19)
(0.367224 0.261769 1.24112e-18)
(0.222151 0.155351 2.05197e-21)
(0.0956159 0.0652392 -1.14532e-18)
(0.0157071 0.0107915 -1.7002e-19)
(0.429137 0.323597 0)
(0.962385 0.698366 -1.09894e-19)
(1.18668 0.883275 8.00858e-20)
(1.23399 0.922995 0)
(1.20634 0.927203 0)
(1.14705 0.899757 2.52151e-19)
(1.07319 0.865419 0)
(0.998014 0.827856 0)
(0.916352 0.785577 -4.77174e-19)
(0.829716 0.735641 1.31807e-19)
(0.747858 0.678338 -1.19991e-18)
(0.687524 0.620505 0)
(0.647505 0.568851 -6.446e-19)
(0.605635 0.513597 1.05946e-20)
(0.559478 0.443282 -9.50466e-19)
(0.476307 0.367247 3.74987e-19)
(0.353109 0.260879 1.4498e-21)
(0.21201 0.152737 -1.30405e-18)
(0.0906212 0.0629477 6.15603e-19)
(0.0133139 0.00921135 1.81869e-19)
(0.428136 0.337861 0)
(0.954246 0.726109 -1.53459e-19)
(1.17463 0.916574 8.46164e-20)
(1.22057 0.95801 1.07917e-19)
(1.19223 0.9616 -1.2645e-20)
(1.13259 0.932909 2.53432e-20)
(1.05863 0.897555 -3.44677e-20)
(0.983165 0.859065 4.58323e-19)
(0.900446 0.815757 5.10441e-19)
(0.811484 0.764678 1.00436e-18)
(0.727417 0.706176 9.96979e-19)
(0.662146 0.647469 1.7521e-19)
(0.614314 0.588107 9.2741e-19)
(0.583998 0.524908 5.72907e-19)
(0.533705 0.458659 6.82304e-19)
(0.453479 0.359531 -4.10318e-19)
(0.334768 0.254649 -4.76218e-19)
(0.205874 0.144844 5.58703e-19)
(0.0919645 0.0658828 -3.30625e-19)
(0.0178186 0.0159841 5.88642e-19)
(0.427325 0.351645 2.16914e-19)
(0.947399 0.753588 2.40197e-19)
(1.16316 0.948234 4.93755e-20)
(1.20733 0.990541 1.60279e-20)
(1.17848 0.994084 7.15536e-21)
(1.11874 0.964433 -6.99629e-20)
(1.04476 0.928088 3.32159e-20)
(0.968735 0.888485 -1.99844e-20)
(0.884898 0.844453 -5.93839e-19)
(0.794598 0.79314 -1.08988e-18)
(0.70707 0.733632 6.92349e-20)
(0.638053 0.670862 0)
(0.590361 0.609529 0)
(0.542599 0.540958 -2.98711e-19)
(0.497733 0.449735 -1.11644e-18)
(0.427318 0.357964 8.83856e-19)
(0.327821 0.235163 5.20581e-19)
(0.213818 0.126054 0)
(0.10633 0.0394164 1.05928e-18)
(0.0115832 -0.00953508 -6.28342e-19)
(0.426463 0.364907 -1.15011e-19)
(0.940103 0.778387 1.01811e-19)
(1.15191 0.977514 -1.1921e-19)
(1.19476 1.02125 -9.58168e-20)
(1.16535 1.02417 -1.3396e-20)
(1.10538 0.993503 -2.22857e-20)
(1.03138 0.956444 0)
(0.955208 0.916288 -5.75909e-19)
(0.870611 0.871656 7.27074e-20)
(0.778192 0.819791 0)
(0.688211 0.760223 0)
(0.613728 0.697671 1.11766e-19)
(0.555203 0.62911 1.50238e-19)
(0.516721 0.54965 -3.22555e-19)
(0.465528 0.463122 8.01359e-19)
(0.395517 0.334847 -9.63045e-19)
(0.302805 0.211737 -1.11418e-18)
(0.22504 0.108693 9.86974e-19)
(0.165518 0.0836886 -3.76857e-19)
(0.112945 0.0789963 2.19299e-19)
(0.425688 0.377348 1.44817e-19)
(0.933951 0.803038 0)
(1.14125 1.00541 0)
(1.18245 1.04967 -2.61822e-20)
(1.15263 1.05254 2.1197e-20)
(1.09264 1.02116 -2.05222e-20)
(1.01875 0.983388 1.47799e-19)
(0.942198 0.942454 5.89824e-19)
(0.856688 0.89746 1.07719e-18)
(0.763117 0.84567 -8.19763e-20)
(0.669826 0.785822 1.69417e-19)
(0.590967 0.720234 -9.99588e-19)
(0.531469 0.651309 -9.96352e-19)
(0.470747 0.569233 -1.73124e-19)
(0.415697 0.449338 0)
(0.354973 0.331645 -6.37498e-21)
(0.279389 0.142264 6.13996e-19)
(0.256925 0.00713972 -1.03298e-18)
(0.220825 -0.0941202 7.85312e-19)
(0.085896 -0.0969468 6.50801e-19)
(0.424684 0.389421 -3.20166e-19)
(0.927146 0.824964 -1.44586e-19)
(1.13072 1.03116 6.95097e-21)
(1.17074 1.07673 5.61119e-20)
(1.14044 1.07906 0)
(1.08028 1.0469 -7.13903e-20)
(1.00644 1.00874 -2.12594e-19)
(0.929851 0.967681 -1.66705e-21)
(0.843769 0.922546 -5.64421e-19)
(0.748129 0.870713 -8.0441e-20)
(0.652106 0.811807 7.47156e-20)
(0.567923 0.748694 8.78106e-19)
(0.494315 0.674473 9.72262e-19)
(0.439475 0.578841 1.68634e-19)
(0.37591 0.472199 8.61599e-19)
(0.286991 0.298803 0)
(0.165825 0.127646 0)
(-0.000460172 0.197435 7.09891e-19)
(-0.0780249 0.630066 -2.90677e-20)
(0.00772101 1.53849 -8.75534e-19)
(0.423831 0.400758 1.77026e-19)
(0.921527 0.847232 4.05007e-19)
(1.12075 1.05608 -5.54655e-19)
(1.15917 1.10205 2.77126e-19)
(1.12845 1.10457 -7.05354e-21)
(1.06827 1.0721 -2.44793e-20)
(0.994541 1.0337 0)
(0.917601 0.992381 -4.91628e-19)
(0.830613 0.947526 0)
(0.733901 0.896564 1.13318e-18)
(0.634653 0.83846 -9.09375e-20)
(0.545474 0.773483 1.01967e-19)
(0.471029 0.70219 1.11368e-18)
(0.385826 0.614046 -3.65758e-19)
(0.284373 0.46437 -4.38221e-19)
(0.193534 0.353236 0)
(0.0843135 0.492241 0)
(0.0256496 1.33824 0)
(0.0721912 2.46534 -4.03177e-19)
(0.0993479 2.91176 -2.48354e-19)
(0.422484 0.411536 0)
(0.915125 0.866585 0)
(1.11088 1.07895 2.02465e-19)
(1.14825 1.12633 -2.24946e-19)
(1.11705 1.12852 9.88174e-20)
(1.0567 1.09564 3.14551e-20)
(0.983025 1.05726 2.74334e-20)
(0.906076 1.0164 -2.13589e-20)
(0.818658 0.972077 7.95915e-20)
(0.719986 0.921831 -1.30049e-18)
(0.617785 0.865569 1.64833e-19)
(0.523424 0.805982 8.778e-19)
(0.431762 0.734473 -1.10943e-18)
(0.35124 0.626774 -1.21936e-18)
(0.266509 0.524301 4.10187e-19)
(0.187806 0.661563 0)
(0.119903 1.56532 5.65871e-19)
(0.122046 2.6953 6.18417e-19)
(0.130013 3.08864 -6.91274e-19)
(0.121912 3.22254 7.40863e-19)
(0.421343 0.422057 0)
(0.909981 0.886535 3.58971e-19)
(1.10162 1.10118 -5.07284e-20)
(1.13751 1.1489 3.16578e-19)
(1.10591 1.15149 -1.03725e-19)
(1.04555 1.11864 0)
(0.971995 1.08042 0)
(0.894745 1.03972 0)
(0.806558 0.996272 4.48462e-19)
(0.707144 0.947825 6.00354e-20)
(0.602076 0.893707 0)
(0.502882 0.833539 -8.72898e-19)
(0.415849 0.766184 0)
(0.300049 0.675004 8.72625e-19)
(0.203679 0.736112 -5.88771e-19)
(0.152184 1.4632 -4.73285e-19)
(0.154829 2.68284 -1.10286e-18)
(0.177084 3.12667 -5.8119e-19)
(0.167874 3.26685 -7.87873e-19)
(0.154203 3.30708 5.88912e-19)
(0.419819 0.43155 -1.25563e-19)
(0.903932 0.903359 1.53293e-20)
(1.09242 1.12137 -5.65319e-20)
(1.12746 1.17064 -2.44513e-19)
(1.0954 1.1731 0)
(1.03489 1.1401 0)
(0.96139 1.1022 0)
(0.88421 1.0624 3.43547e-20)
(0.795835 1.02004 -5.66882e-19)
(0.69469 0.972912 0)
(0.587142 0.920985 0)
(0.485475 0.867728 0)
(0.374776 0.800333 0)
(0.306265 0.767134 6.38159e-19)
(0.269898 1.15815 1.56839e-18)
(0.245763 2.389 4.63484e-19)
(0.260395 3.08288 9.32934e-19)
(0.255006 3.28198 -7.15247e-19)
(0.206355 3.34757 2.63794e-19)
(0.17408 3.36038 0)
(0.418514 0.440823 1.29331e-19)
(0.899073 0.921678 -7.98021e-19)
(1.08365 1.14177 -2.14211e-19)
(1.11734 1.19131 -4.7046e-20)
(1.08491 1.19436 2.4067e-20)
(1.02443 1.16165 -8.20481e-20)
(0.951078 1.12417 -2.98106e-21)
(0.873706 1.08482 -3.83276e-19)
(0.784753 1.04377 0)
(0.683368 0.999215 -7.60888e-20)
(0.574044 0.950978 6.92174e-20)
(0.468026 0.897759 0)
(0.376141 0.843905 0)
(0.320309 0.955805 -7.98772e-19)
(0.271122 1.85491 9.90288e-20)
(0.267616 2.94405 -3.48248e-19)
(0.290843 3.28589 7.27852e-19)
(0.262898 3.38425 5.26685e-19)
(0.197649 3.40868 -7.15684e-19)
(0.172997 3.41839 3.54504e-19)
(0.416492 0.450323 2.54454e-19)
(0.892461 0.937856 7.78499e-19)
(1.07403 1.16164 2.57158e-19)
(1.10709 1.21293 0)
(1.07428 1.21587 0)
(1.01376 1.18299 6.40232e-20)
(0.940578 1.14588 6.89781e-20)
(0.863499 1.1076 3.41748e-19)
(0.774726 1.06787 2.22189e-20)
(0.672068 1.02493 9.7348e-19)
(0.561453 0.978668 -1.15001e-18)
(0.44986 0.928509 0)
(0.373715 0.919296 0)
(0.333593 1.32578 -5.44619e-19)
(0.333389 2.49093 -6.5461e-19)
(0.376865 3.1972 0)
(0.401371 3.36752 -7.36762e-19)
(0.331265 3.4302 4.89107e-20)
(0.262216 3.47515 3.46033e-19)
(0.239842 3.50047 -1.14223e-19)
(0.414518 0.460157 -4.84345e-19)
(0.886781 0.957963 -3.73966e-19)
(1.06405 1.18377 0)
(1.09575 1.23491 0)
(1.06269 1.23844 0)
(1.00237 1.20576 0)
(0.929571 1.169 -8.12522e-20)
(0.852565 1.13103 3.00445e-19)
(0.763542 1.09261 0)
(0.661581 1.05257 -8.86383e-19)
(0.550927 1.01089 2.06265e-18)
(0.441638 0.972258 8.41972e-20)
(0.393432 1.04518 1.12421e-19)
(0.385757 1.74827 8.87888e-19)
(0.399073 2.90154 -4.77724e-19)
(0.437498 3.31844 0)
(0.42084 3.44102 2.06656e-19)
(0.335315 3.52953 9.1556e-20)
(0.260327 3.59325 1.488e-19)
(0.184971 3.57271 -1.21254e-20)
(0.41151 0.470507 2.30543e-19)
(0.878369 0.975324 -3.82681e-19)
(1.05259 1.20547 0)
(1.08388 1.25856 -6.88063e-20)
(1.05055 1.2617 2.35877e-19)
(0.990373 1.22858 0)
(0.918029 1.19193 0)
(0.841695 1.15494 -5.21626e-19)
(0.753443 1.11773 -5.68589e-20)
(0.650999 1.07922 8.69357e-19)
(0.53653 1.03835 -9.8042e-19)
(0.446352 1.01607 5.72086e-19)
(0.407708 1.22502 0)
(0.420882 2.18743 -4.70877e-19)
(0.464516 3.14516 3.08699e-19)
(0.52825 3.42145 1.93861e-19)
(0.519917 3.51744 0)
(0.457274 3.59873 -3.71171e-20)
(0.387598 3.63936 -4.10733e-19)
(0.307062 3.61103 -9.62528e-20)
(0.408567 0.481005 -4.60095e-19)
(0.871303 0.998183 5.48176e-19)
(1.04077 1.23017 3.78811e-19)