/*--------------------------------*- C++ -*----------------------------------*\
  =========                 |
  \\      /  F ield         | OpenFOAM: The Open Source CFD Toolbox
   \\    /   O peration     | Website:  https://openfoam.org
    \\  /    A nd           | Version:  10
     \\/     M anipulation  |
\*---------------------------------------------------------------------------*/
FoamFile
{
    format      ascii;
    class       volScalarField;
    location    "26";
    object      p;
}
// * * * * * * * * * * * * * * * * * * * * * * * * * * * * * * * * * * * * * //

dimensions      [0 2 -2 0 0 0 0];

internalField   nonuniform List<scalar> 
8800
(
0.470211
0.422424
0.383731
0.35473
0.333857
0.319009
0.308385
0.300866
0.295989
0.29384
0.294985
0.299056
0.305601
0.314839
0.327561
0.345256
0.370005
0.403925
0.446457
0.505157
0.301471
0.309149
0.316616
0.319922
0.318412
0.313324
0.306821
0.300717
0.295945
0.293019
0.292623
0.294998
0.299371
0.305222
0.311919
0.318145
0.321749
0.320991
0.315543
0.306838
0.27989
0.286052
0.290178
0.293119
0.29516
0.295751
0.294621
0.292476
0.290392
0.289378
0.290201
0.292448
0.295133
0.297219
0.297752
0.296496
0.294109
0.290682
0.286108
0.282342
0.274116
0.276767
0.279522
0.281928
0.283561
0.284712
0.285428
0.285503
0.285134
0.284962
0.285562
0.28658
0.287283
0.287234
0.286532
0.285365
0.283487
0.280867
0.278435
0.276931
0.268786
0.270213
0.272001
0.274042
0.275831
0.277166
0.278132
0.278881
0.279412
0.279843
0.280313
0.280625
0.280562
0.280135
0.279318
0.277968
0.276188
0.274272
0.272929
0.272099
0.263776
0.264696
0.26596
0.267555
0.26921
0.270746
0.272021
0.273043
0.273916
0.274655
0.275128
0.275231
0.274985
0.27436
0.273314
0.271968
0.270518
0.269159
0.268292
0.267747
0.258981
0.25965
0.260643
0.261988
0.263438
0.264926
0.266375
0.267668
0.26877
0.269691
0.270255
0.270347
0.269994
0.269232
0.268202
0.26706
0.26588
0.264831
0.264195
0.263799
0.254345
0.254855
0.255684
0.256887
0.25823
0.259653
0.261126
0.262589
0.263932
0.265059
0.265751
0.265863
0.265477
0.264762
0.26387
0.262885
0.261884
0.26103
0.260537
0.260238
0.249854
0.250251
0.250959
0.252064
0.253359
0.254743
0.256202
0.257714
0.259207
0.260553
0.261419
0.261654
0.261411
0.260862
0.260128
0.259282
0.258417
0.257716
0.257331
0.257099
0.245452
0.245761
0.246388
0.247439
0.248709
0.250086
0.251569
0.253147
0.254788
0.256368
0.257466
0.257903
0.257861
0.257496
0.256916
0.256209
0.255459
0.25487
0.254569
0.25439
0.241126
0.241366
0.241932
0.242954
0.244222
0.24564
0.247221
0.248926
0.250713
0.252508
0.253939
0.25471
0.254913
0.254707
0.254259
0.253681
0.25304
0.252549
0.252316
0.252178
0.23683
0.237004
0.237525
0.238547
0.239839
0.241292
0.242922
0.244776
0.246848
0.249019
0.250811
0.251869
0.252332
0.252392
0.252167
0.251729
0.251193
0.250787
0.250619
0.25052
0.232624
0.232737
0.233203
0.234187
0.235476
0.23696
0.238669
0.240641
0.242906
0.245445
0.247739
0.249317
0.250219
0.25062
0.250647
0.250422
0.25006
0.249779
0.249679
0.249615
0.228494
0.228559
0.22897
0.229897
0.231174
0.232714
0.234563
0.236813
0.239502
0.242588
0.245467
0.247531
0.248826
0.249552
0.249891
0.249944
0.249812
0.249689
0.249653
0.249608
0.224144
0.224198
0.224539
0.225366
0.226582
0.228139
0.230111
0.232594
0.235689
0.239402
0.243035
0.245801
0.24771
0.248953
0.249723
0.250145
0.250333
0.250414
0.250441
0.250399
0.219146
0.219192
0.219516
0.220319
0.221583
0.223279
0.225515
0.228435
0.232149
0.236694
0.241235
0.244794
0.24732
0.249077
0.250292
0.251074
0.251548
0.251798
0.251867
0.25182
0.21323
0.213275
0.213636
0.21447
0.215858
0.217785
0.220379
0.22383
0.228324
0.233919
0.239591
0.244119
0.247424
0.249791
0.251466
0.252627
0.253388
0.253784
0.253884
0.253829
0.206078
0.206127
0.206555
0.207534
0.209142
0.211428
0.214557
0.21878
0.224305
0.231221
0.238285
0.243965
0.248149
0.251179
0.253369
0.254923
0.255955
0.256462
0.256584
0.256519
0.197378
0.197428
0.197963
0.199173
0.201159
0.203985
0.207874
0.213133
0.220013
0.228599
0.237351
0.244374
0.249583
0.253395
0.256132
0.258087
0.259363
0.259981
0.260141
0.260071
0.186817
0.186867
0.187531
0.189076
0.191601
0.195179
0.200103
0.206719
0.215321
0.225992
0.236803
0.245471
0.251885
0.25652
0.259974
0.262427
0.263952
0.264678
0.264876
0.264795
0.173973
0.174016
0.174843
0.176831
0.180119
0.184741
0.19104
0.199437
0.210238
0.223481
0.236776
0.247394
0.25524
0.26097
0.265175
0.268078
0.269921
0.270806
0.271053
0.27096
0.158261
0.158311
0.159375
0.161939
0.166221
0.17225
0.180393
0.191118
0.204701
0.221098
0.237357
0.250259
0.259798
0.26678
0.271839
0.275369
0.277583
0.278673
0.27897
0.278857
0.138577
0.138648
0.140078
0.143498
0.149173
0.157148
0.167804
0.181598
0.198717
0.218959
0.238707
0.254256
0.265737
0.274146
0.280235
0.284483
0.287163
0.288481
0.288826
0.288685
0.113181
0.113312
0.115371
0.120193
0.127985
0.13876
0.152941
0.170824
0.192394
0.217239
0.241008
0.259537
0.273192
0.283214
0.290496
0.295614
0.298868
0.300444
0.30083
0.300652
0.0790335
0.0793244
0.0826805
0.0901026
0.101472
0.116569
0.135725
0.158962
0.185996
0.216201
0.24447
0.266261
0.282286
0.29409
0.302739
0.308887
0.312811
0.314667
0.31508
0.314854
0.0302942
0.0315216
0.0383325
0.0511463
0.0687503
0.0904978
0.116492
0.146477
0.179965
0.216169
0.249276
0.274504
0.293021
0.306738
0.316916
0.324279
0.329
0.331173
0.331592
0.331302
-0.0422035
-0.0342842
-0.0185604
0.00415013
0.0311715
0.0618461
0.0962176
0.134002
0.174687
0.21749
0.255919
0.284996
0.306397
0.322423
0.334568
0.343594
0.349541
0.352381
0.352999
0.352805
-0.119986
-0.101856
-0.0764619
-0.0434318
-0.00672108
0.0330544
0.0759353
0.121752
0.170099
0.220323
0.26519
0.299253
0.324551
0.343764
0.358643
0.370111
0.377754
0.381579
0.382753
0.382752
-0.183644
-0.162655
-0.129404
-0.0878841
-0.0426008
0.00566158
0.0567155
0.110341
0.166119
0.223419
0.274292
0.312854
0.341575
0.363518
0.380556
0.393569
0.402735
0.407453
0.408336
0.408452
-0.235512
-0.212653
-0.174293
-0.126743
-0.0747383
-0.0194193
0.0387795
0.099479
0.162143
0.22603
0.282362
0.324847
0.356377
0.380368
0.398969
0.413202
0.423449
0.428434
0.429492
0.429711
-0.278464
-0.254598
-0.212676
-0.160385
-0.103033
-0.0419417
0.0223288
0.0892397
0.158077
0.227937
0.289156
0.334994
0.36878
0.394359
0.414096
0.4292
0.439833
0.44531
0.446735
0.446983
-0.315164
-0.2907
-0.246114
-0.190113
-0.128294
-0.0623167
0.0071856
0.0795516
0.15392
0.229167
0.294765
0.343514
0.379142
0.405894
0.426368
0.441971
0.452778
0.458565
0.460214
0.460463
-0.347535
-0.322695
-0.276037
-0.216925
-0.151386
-0.081187
-0.00707454
0.0701718
0.149558
0.229758
0.299384
0.350754
0.387952
0.415592
0.436508
0.452286
0.463188
0.469051
0.470791
0.470989
-0.377016
-0.351833
-0.303492
-0.24172
-0.172962
-0.0990686
-0.020859
0.0608104
0.144829
0.229691
0.303146
0.357008
0.395672
0.42408
0.445344
0.461207
0.472118
0.47803
0.479876
0.48005
-0.40447
-0.378979
-0.329155
-0.265126
-0.193541
-0.116376
-0.0344862
0.0512241
0.139569
0.228882
0.306113
0.362464
0.402589
0.431803
0.453457
0.469465
0.480389
0.486221
0.48815
0.488351
-0.430606
-0.40475
-0.353559
-0.287566
-0.213453
-0.133381
-0.0481759
0.0412392
0.133637
0.227254
0.308255
0.367209
0.408948
0.4391
0.461229
0.477427
0.488388
0.494122
0.496018
0.496233
-0.455714
-0.429462
-0.37717
-0.309316
-0.232952
-0.150274
-0.0620751
0.0307389
0.12694
0.224737
0.309593
0.371366
0.414934
0.446178
0.468924
0.485421
0.496465
0.502141
0.503907
0.504058
-0.480133
-0.453373
-0.400097
-0.330557
-0.252198
-0.167181
-0.0762696
0.0196567
0.119421
0.221295
0.310128
0.374936
0.420566
0.45313
0.476659
0.493571
0.504741
0.510362
0.511967
0.51203
-0.50393
-0.476752
-0.422452
-0.351409
-0.271259
-0.184148
-0.0907974
0.00796975
0.111061
0.216884
0.309746
0.377845
0.425849
0.459978
0.484466
0.501894
0.51321
0.518741
0.520211
0.520153
-0.527188
-0.499509
-0.444327
-0.371916
-0.29016
-0.201182
-0.105653
-0.00431973
0.101837
0.211414
0.30834
0.380003
0.430727
0.466713
0.492343
0.510369
0.521817
0.527197
0.528489
0.52833
-0.549995
-0.521769
-0.465706
-0.392074
-0.308897
-0.21826
-0.120798
-0.0171803
0.0917501
0.204852
0.305832
0.381281
0.435088
0.47329
0.500288
0.518975
0.530511
0.535631
0.536704
0.536466
-0.572351
-0.543521
-0.486602
-0.411859
-0.327415
-0.235329
-0.136175
-0.0305555
0.0808492
0.197201
0.302121
0.381511
0.438778
0.479646
0.508322
0.527718
0.539192
0.543928
0.544738
0.54443
-0.594084
-0.564693
-0.506968
-0.431229
-0.345664
-0.252315
-0.151709
-0.0443517
0.0692166
0.188487
0.297125
0.380524
0.441578
0.485657
0.516511
0.536728
0.547857
0.551925
0.552401
0.552038
-0.615158
-0.585234
-0.526765
-0.450126
-0.363584
-0.269149
-0.167297
-0.0584767
0.0569394
0.178748
0.290806
0.37815
0.443229
0.491098
0.524906
0.546365
0.556781
0.55956
0.559503
0.559126
-0.635635
-0.605106
-0.545955
-0.468508
-0.381104
-0.285742
-0.182848
-0.0728218
0.0441198
0.168073
0.283144
0.374247
0.443418
0.495562
0.533375
0.557196
0.566943
0.567339
0.565954
0.565688
-0.655343
-0.624289
-0.564481
-0.486305
-0.398161
-0.302013
-0.198265
-0.0872721
0.0308887
0.156584
0.274173
0.368707
0.441838
0.498421
0.541305
0.569477
0.58028
0.577931
0.573251
0.571981
-0.674367
-0.642772
-0.582363
-0.503545
-0.41479
-0.318008
-0.213607
-0.101887
0.0171772
0.144206
0.263771
0.361278
0.438175
0.498861
0.547371
0.582256
0.598072
0.597372
0.586866
0.568475
-0.692642
-0.660554
-0.599724
-0.520416
-0.431281
-0.334059
-0.229289
-0.117154
0.00243246
0.130274
0.251242
0.351082
0.431704
0.495653
0.548697
0.59107
0.612651
0.606022
0.591547
0.570955
-0.710005
-0.677784
-0.616385
-0.536672
-0.447339
-0.34982
-0.245082
-0.132741
-0.0130167
0.115098
0.236772
0.337857
0.421958
0.488038
0.540101
0.583505
0.606431
0.591558
0.519916
0.484495
-0.725819
-0.695581
-0.632004
-0.551731
-0.46226
-0.364814
-0.260696
-0.148426
-0.0289498
0.0988265
0.220377
0.321484
0.408004
0.476373
0.518394
0.551105
0.558141
0.509657
0.436153
0.389893
-0.781063
-0.711007
-0.646279
-0.566857
-0.477461
-0.380418
-0.276195
-0.164468
-0.0457018
0.0810643
0.20157
0.301633
0.386909
0.462269
0.465118
0.481588
0.449814
0.385337
0.306271
0.261567
-0.742131
-0.726428
-0.666959
-0.588347
-0.499467
-0.402801
-0.299666
-0.188927
-0.0716547
0.0528774
0.170204
0.267052
0.343774
0.417405
0.41767
0.310137
0.203131
0.129745
0.0538858
0.0912965
-0.772513
-0.743702
-0.68359
-0.605261
-0.516602
-0.420309
-0.317082
-0.207172
-0.091252
0.0310415
0.144971
0.237444
0.306528
0.345852
0.299961
0.151468
0.017316
-0.0777079
-0.18207
-0.123929
-0.795856
-0.764
-0.702859
-0.624191
-0.53557
-0.439458
-0.33647
-0.227577
-0.113311
0.0062362
0.116071
0.202796
0.262175
0.270957
0.163701
-0.0211913
-0.185676
-0.31307
-0.454486
-0.412135
-0.818522
-0.785146
-0.722927
-0.643471
-0.554718
-0.458777
-0.356407
-0.248645
-0.136204
-0.0197177
0.0852829
0.165631
0.210778
0.184406
0.0208242
-0.19267
-0.402031
-0.591667
-0.799904
-0.800369
-0.840344
-0.806725
-0.743689
-0.66355
-0.574634
-0.478922
-0.377272
-0.270741
-0.160352
-0.0472469
0.0523841
0.125674
0.153396
0.0922146
-0.116023
-0.347414
-0.590171
-0.80943
-1.08336
-1.42208
-0.862346
-0.828859
-0.765388
-0.684806
-0.595718
-0.500187
-0.39918
-0.293893
-0.185628
-0.0760829
0.0180195
0.0834162
0.0938821
-0.018652
-0.235333
-0.467362
-0.700179
-0.899333
-0.976354
-1.08847
-0.885315
-0.85197
-0.788317
-0.707547
-0.618411
-0.523144
-0.422866
-0.318981
-0.213135
-0.107606
-0.0194609
0.0365717
0.0225746
-0.132275
-0.340563
-0.553431
-0.738971
-0.847816
-0.872163
-0.893075
-0.909585
-0.876357
-0.812612
-0.731823
-0.6428
-0.547948
-0.448617
-0.346415
-0.243386
-0.142486
-0.0607564
-0.0161666
-0.0536971
-0.236359
-0.435579
-0.623249
-0.767002
-0.81695
-0.83223
-0.834848
-0.935349
-0.902087
-0.83831
-0.757581
-0.668793
-0.574552
-0.476388
-0.376173
-0.27638
-0.180696
-0.105933
-0.0752531
-0.130284
-0.33386
-0.52376
-0.692495
-0.795486
-0.807604
-0.810548
-0.810762
-0.962571
-0.929212
-0.865397
-0.784763
-0.696342
-0.602875
-0.506104
-0.40818
-0.312028
-0.222079
-0.155152
-0.136196
-0.222438
-0.423597
-0.604838
-0.749222
-0.791866
-0.799259
-0.799781
-0.798842
-0.990939
-0.957408
-0.893729
-0.813232
-0.725295
-0.632779
-0.537631
-0.442295
-0.350192
-0.266424
-0.207924
-0.202952
-0.322791
-0.508069
-0.672075
-0.783346
-0.789133
-0.79031
-0.791273
-0.790811
-1.01987
-0.986367
-0.922946
-0.842715
-0.755392
-0.664008
-0.570699
-0.478245
-0.390532
-0.313426
-0.262938
-0.277809
-0.415863
-0.58504
-0.730362
-0.771002
-0.790179
-0.787131
-0.785003
-0.784325
-1.04895
-1.01567
-0.952502
-0.87277
-0.786211
-0.696134
-0.604885
-0.515574
-0.432524
-0.362432
-0.319911
-0.352138
-0.510704
-0.656339
-0.766788
-0.810231
-0.796787
-0.786718
-0.782082
-0.779996
-1.07725
-1.0445
-0.981808
-0.902739
-0.817137
-0.72856
-0.639571
-0.553585
-0.475435
-0.412388
-0.379198
-0.426106
-0.610458
-0.733732
-0.781437
-0.798872
-0.80582
-0.80394
-0.800817
-0.79869
-1.10355
-1.07145
-1.01
-0.931779
-0.847344
-0.760465
-0.673891
-0.591313
-0.518223
-0.462307
-0.438828
-0.499676
-0.712831
-0.87452
-0.812607
-0.833729
-0.876809
-0.897167
-0.898003
-0.894616
-1.12647
-1.09554
-1.03575
-0.958794
-0.875828
-0.790774
-0.706718
-0.62755
-0.559336
-0.510888
-0.493827
-0.576767
-0.815006
-1.12004
-1.36334
-1.22123
-1.1305
-1.11417
-1.09863
-1.08562
-1.14434
-1.11524
-1.05755
-0.982468
-0.901279
-0.818277
-0.736668
-0.660777
-0.596774
-0.555622
-0.544954
-0.647848
-0.885706
-1.16648
-1.53912
-1.3076
-1.22776
-1.21491
-1.21353
-1.21345
-1.1555
-1.12891
-1.07408
-1.00129
-0.922249
-0.841445
-0.762191
-0.689021
-0.628503
-0.592838
-0.593657
-0.695574
-0.832305
-0.653145
-0.211174
-0.691751
-1.15907
-1.27091
-1.26418
-1.26104
-1.158
-1.13497
-1.08379
-1.01387
-0.937272
-0.858772
-0.781601
-0.710119
-0.652037
-0.618918
-0.630514
-0.748601
-0.919708
-0.925556
-0.99084
-1.37732
-1.48613
-1.40966
-1.30756
-1.32351
-1.15084
-1.13178
-1.08521
-1.01905
-0.945172
-0.868876
-0.793206
-0.722273
-0.663403
-0.631157
-0.64923
-0.843303
-1.39229
-2.32465
-3.09792
-3.52181
-3.36819
-2.86794
-2.41773
-2.2328
-1.13247
-1.11725
-1.07731
-1.01608
-0.945281
-0.870946
-0.795845
-0.723775
-0.660446
-0.618219
-0.628684
-0.830448
-1.45455
-2.29901
-3.05423
-3.43053
-3.3116
-2.96698
-2.6064
-2.42207
-1.10407
-1.09331
-1.06035
-1.00524
-0.937739
-0.865028
-0.7895
-0.713715
-0.64249
-0.580456
-0.556263
-0.580086
-0.789173
-0.96037
-1.02228
-0.868916
-0.586372
-0.295701
-0.0884875
0.0081214
-1.06888
-1.06226
-1.03701
-0.988395
-0.924163
-0.852485
-0.775515
-0.694741
-0.610733
-0.524862
-0.424106
-0.288534
-0.056589
0.391479
0.932013
1.46818
1.88076
2.13107
2.24942
2.28153
-1.03124
-1.02752
-1.0109
-0.968729
-0.90748
-0.836215
-0.757298
-0.671434
-0.576455
-0.468952
-0.340299
-0.194974
0.0972134
0.691233
1.37048
1.9814
2.41684
2.66449
2.77374
2.80516
-0.995972
-0.993673
-0.984233
-0.950138
-0.891895
-0.819724
-0.739072
-0.650096
-0.553262
-0.439939
-0.319261
-0.18823
-0.0202524
0.419675
0.961843
1.41953
1.75164
1.93986
2.02502
2.0507
-0.963441
-0.962422
-0.959269
-0.934014
-0.877895
-0.804201
-0.722702
-0.635337
-0.541045
-0.435679
-0.331659
-0.229261
-0.126277
0.13939
0.52709
0.849523
1.08594
1.22845
1.29916
1.32019
-0.941155
-0.942291
-0.942035
-0.918886
-0.860266
-0.784615
-0.704497
-0.621704
-0.534302
-0.440483
-0.353679
-0.282833
-0.22175
-0.0637423
0.195385
0.422425
0.591161
0.689835
0.734188
0.74367
-0.897076
-0.900436
-0.901721
-0.87945
-0.822609
-0.751526
-0.678048
-0.604013
-0.527088
-0.446467
-0.375541
-0.32861
-0.290188
-0.190928
-0.0161261
0.131987
0.237325
0.29864
0.326449
0.333195
-0.800957
-0.803909
-0.803862
-0.787451
-0.747812
-0.695529
-0.639037
-0.579794
-0.516411
-0.448667
-0.391202
-0.359546
-0.34135
-0.271217
-0.148275
-0.0502682
0.0151342
0.0506217
0.0651366
0.0666037
-0.679534
-0.680527
-0.680306
-0.673324
-0.655338
-0.628052
-0.593082
-0.551468
-0.50273
-0.447079
-0.397433
-0.368301
-0.353988
-0.304651
-0.224983
-0.161644
-0.121071
-0.0998781
-0.0914911
-0.0913994
-0.584747
-0.584786
-0.585208
-0.584816
-0.580648
-0.570308
-0.552154
-0.525061
-0.488647
-0.44252
-0.396527
-0.35908
-0.330899
-0.291369
-0.246308
-0.213584
-0.192096
-0.179172
-0.173515
-0.173898
-0.530843
-0.530796
-0.531658
-0.53371
-0.534554
-0.531585
-0.522359
-0.504338
-0.476679
-0.437492
-0.393963
-0.351226
-0.308713
-0.2754
-0.253372
-0.23475
-0.220598
-0.211601
-0.207849
-0.209256
-0.507656
-0.507635
-0.50832
-0.510283
-0.511789
-0.510726
-0.505022
-0.49185
-0.469047
-0.435401
-0.395179
-0.355158
-0.313021
-0.288392
-0.277032
-0.262879
-0.247764
-0.23578
-0.230517
-0.232058
-0.504298
-0.504036
-0.504069
-0.505027
-0.505758
-0.504535
-0.49951
-0.488088
-0.467616
-0.436626
-0.401706
-0.373189
-0.345445
-0.330995
-0.31996
-0.299029
-0.278698
-0.264131
-0.258527
-0.260364
-0.51708
-0.516501
-0.515863
-0.51568
-0.51507
-0.512568
-0.50661
-0.49491
-0.473737
-0.442213
-0.410279
-0.395005
-0.399271
-0.404306
-0.373201
-0.339915
-0.312747
-0.297287
-0.291279
-0.293694
-0.545554
-0.544603
-0.543498
-0.542451
-0.540593
-0.53665
-0.529311
-0.516364
-0.492847
-0.45657
-0.419648
-0.402588
-0.419611
-0.427642
-0.399554
-0.36712
-0.34875
-0.33872
-0.336278
-0.335788
-0.588982
-0.588029
-0.586721
-0.585224
-0.58288
-0.578774
-0.571816
-0.559387
-0.535223
-0.493381
-0.440472
-0.398958
-0.399853
-0.408122
-0.385202
-0.358191
-0.337665
-0.329681
-0.326727
-0.32747
-0.646847
-0.645889
-0.644806
-0.643719
-0.642566
-0.641347
-0.639674
-0.635314
-0.621847
-0.584786
-0.509712
-0.425507
-0.39337
-0.392709
-0.370252
-0.339058
-0.310283
-0.292023
-0.292062
-0.2936
-0.715907
-0.715341
-0.715239
-0.716041
-0.718914
-0.725646
-0.738312
-0.75836
-0.782949
-0.781222
-0.681569
-0.540576
-0.467283
-0.444763
-0.399077
-0.338859
-0.290296
-0.268696
-0.2686
-0.26889
-0.788454
-0.788807
-0.79066
-0.795238
-0.80568
-0.826764
-0.86601
-0.934621
-1.03769
-1.11217
-0.98825
-0.764519
-0.629794
-0.56253
-0.467386
-0.363788
-0.280216
-0.250649
-0.258219
-0.262044
-0.850205
-0.851911
-0.856453
-0.866298
-0.887031
-0.927497
-1.00365
-1.14335
-1.36683
-1.56304
-1.41886
-1.08004
-0.867411
-0.743904
-0.592642
-0.448942
-0.36042
-0.33691
-0.341841
-0.347681
-0.881968
-0.885083
-0.892227
-0.907243
-0.938039
-0.99744
-1.11032
-1.32291
-1.67169
-1.98899
-1.83743
-1.4039
-1.12726
-0.952892
-0.775842
-0.633235
-0.565274
-0.557564
-0.5582
-0.562042
-0.866058
-0.869875
-0.878411
-0.896532
-0.933338
-1.00378
-1.13669
-1.38454
-1.81702
-2.20674
-2.09043
-1.61974
-1.33152
-1.15298
-0.983286
-0.885989
-0.845209
-0.833873
-0.829744
-0.830978
-0.794361
-0.798144
-0.806407
-0.823899
-0.859755
-0.928666
-1.06029
-1.30972
-1.71444
-2.07844
-2.00293
-1.62517
-1.4092
-1.2877
-1.21968
-1.1457
-1.10752
-1.08949
-1.07987
-1.07819
-0.674691
-0.677264
-0.683455
-0.697219
-0.72613
-0.782214
-0.889648
-1.09386
-1.41691
-1.67156
-1.61108
-1.41429
-1.33195
-1.34134
-1.40492
-1.36206
-1.29573
-1.25988
-1.24131
-1.2352
-0.525787
-0.527437
-0.531033
-0.539613
-0.558517
-0.596038
-0.66869
-0.808819
-1.03958
-1.21973
-1.19157
-1.13198
-1.12217
-1.23577
-1.40384
-1.37413
-1.29426
-1.24919
-1.22592
-1.21713
-0.374632
-0.374928
-0.375905
-0.379402
-0.388561
-0.407959
-0.446707
-0.524014
-0.666561
-0.80877
-0.825132
-0.804659
-0.785096
-0.901969
-1.06891
-1.0758
-1.03745
-1.01299
-1.00015
-0.994077
-0.240403
-0.239821
-0.239142
-0.239173
-0.241337
-0.247297
-0.260408
-0.28831
-0.347772
-0.429281
-0.439371
-0.412476
-0.422587
-0.534679
-0.654184
-0.68081
-0.679039
-0.677249
-0.676695
-0.675496
-0.134398
-0.133475
-0.132199
-0.13083
-0.129599
-0.128434
-0.12742
-0.126722
-0.12558
-0.122844
-0.135738
-0.13978
-0.194187
-0.283774
-0.346995
-0.367062
-0.375709
-0.381318
-0.385384
-0.386472
-0.0583909
-0.0575243
-0.0564964
-0.0553906
-0.0537351
-0.0509417
-0.0463654
-0.0385767
-0.0250745
-0.00505521
0.0103639
-0.0143974
-0.0725316
-0.118958
-0.145253
-0.156912
-0.163964
-0.168555
-0.172264
-0.1736
-0.00753738
-0.00731431
-0.00641876
-0.00528383
-0.00423323
-0.00348596
-0.00259992
-0.00111505
0.00139072
0.00554815
0.0101069
0.00776637
-0.00260236
-0.0143741
-0.0188128
-0.0217976
-0.0239213
-0.0243954
-0.0252936
-0.0263936
-0.545676
-0.352711
-0.128599
0.0608053
0.213671
0.336001
0.438472
0.52493
0.563627
0.540916
-0.194861
-0.058151
0.0869612
0.212504
0.3189
0.40762
0.479561
0.530666
0.556788
0.568465
0.0518642
0.144559
0.242735
0.329893
0.405093
0.46811
0.518163
0.554698
0.580733
0.598269
0.229198
0.293665
0.362425
0.42534
0.479985
0.526306
0.564199
0.594225
0.61841
0.636427
0.365075
0.412036
0.461938
0.509477
0.551367
0.587792
0.618804
0.644418
0.665671
0.683341
0.475836
0.51108
0.551708
0.589657
0.624323
0.655239
0.682123
0.704579
0.723005
0.740276
0.572376
0.602461
0.638182
0.671777
0.703001
0.731237
0.755829
0.77617
0.792074
0.809133
0.663471
0.693547
0.728626
0.761575
0.791974
0.819243
0.842655
0.861549
0.875204
0.89225
0.76036
0.794013
0.831337
0.865504
0.896058
0.922683
0.944989
0.962531
0.974602
0.992027
0.876418
0.914325
0.953427
0.98809
1.01775
1.04277
1.06336
1.07942
1.09102
1.10912
1.02205
1.06082
1.09699
1.12788
1.15374
1.176
1.19518
1.21082
1.22333
1.24135
1.19715
1.2291
1.25541
1.27794
1.29802
1.31683
1.33462
1.35116
1.36656
1.38465
1.38597
1.40329
1.41848
1.4348
1.45076
1.46534
1.4786
1.49256
1.51014
1.53031
1.56804
1.57747
1.58904
1.59989
1.6092
1.61884
1.62968
1.64108
1.65247
1.66783
1.77517
1.77887
1.76395
1.74916
1.74293
1.74864
1.76714
1.79747
1.82967
1.85633
2.08152
1.94666
1.87006
1.82776
1.81035
1.81432
1.84174
1.89816
2.00079
2.22516
0.360809
0.358679
0.354192
0.345562
0.333332
0.321192
0.310946
0.30302
0.297349
0.294011
0.293535
0.296135
0.30112
0.308248
0.317563
0.329048
0.341659
0.352666
0.358765
0.361808
0.285272
0.291117
0.297455
0.301945
0.304408
0.304073
0.301319
0.297479
0.293915
0.291565
0.291288
0.293341
0.296875
0.30106
0.304787
0.306608
0.305626
0.302107
0.296914
0.290281
0.276876
0.279172
0.282576
0.285571
0.287643
0.289131
0.289868
0.289519
0.288434
0.287451
0.287482
0.288753
0.290427
0.291612
0.291695
0.290727
0.289117
0.286733
0.283437
0.280504
0.271402
0.272487
0.274325
0.276711
0.27874
0.280165
0.28117
0.281883
0.282219
0.282334
0.282664
0.283286
0.283716
0.283639
0.283108
0.28216
0.280608
0.278454
0.276318
0.27492
0.266251
0.266912
0.268029
0.269751
0.271548
0.273189
0.274479
0.27546
0.276269
0.276937
0.277479
0.27781
0.277801
0.277457
0.276734
0.275543
0.274
0.272362
0.270979
0.270183
0.261355
0.261811
0.262611
0.263943
0.265464
0.267007
0.268481
0.269758
0.270824
0.271745
0.272441
0.272739
0.272626
0.272116
0.27121
0.270037
0.268752
0.267485
0.266486
0.265953
0.256643
0.256981
0.257611
0.258732
0.260085
0.261509
0.26298
0.264427
0.265741
0.266863
0.267709
0.268082
0.267932
0.26734
0.266456
0.265433
0.264364
0.263317
0.262538
0.262145
0.252088
0.252343
0.252856
0.253835
0.255086
0.256447
0.25788
0.259365
0.260844
0.2622
0.263238
0.263701
0.263586
0.263079
0.262341
0.261472
0.260549
0.259677
0.259057
0.258759
0.247644
0.247837
0.248267
0.249159
0.250365
0.251701
0.253119
0.254623
0.256187
0.257725
0.258987
0.259633
0.259699
0.259377
0.258808
0.258085
0.25728
0.256531
0.25603
0.255801
0.243286
0.243428
0.243793
0.244621
0.245793
0.247122
0.248581
0.250156
0.251824
0.253535
0.255052
0.255986
0.256311
0.256196
0.255779
0.255191
0.254522
0.25389
0.253488
0.253315
0.238975
0.239075
0.23939
0.24019
0.241376
0.242743
0.244269
0.245978
0.247855
0.249826
0.25167
0.252944
0.253523
0.253602
0.253356
0.252904
0.252341
0.251795
0.251473
0.251347
0.234708
0.234765
0.235031
0.235793
0.236974
0.238356
0.239899
0.241659
0.243685
0.245959
0.248218
0.249908
0.250877
0.251328
0.251388
0.251161
0.250755
0.25033
0.250098
0.250021
0.230557
0.23058
0.230806
0.231514
0.232667
0.234078
0.235718
0.237667
0.23996
0.242594
0.24536
0.247602
0.249028
0.249805
0.250149
0.25017
0.249975
0.24972
0.249589
0.24955
0.226382
0.226381
0.226565
0.227191
0.228266
0.229657
0.231354
0.233473
0.236088
0.239242
0.242659
0.245525
0.247498
0.248763
0.249463
0.249831
0.249987
0.249987
0.249981
0.249967
0.221743
0.221738
0.221901
0.222468
0.223492
0.224909
0.226736
0.229102
0.232119
0.235862
0.240073
0.243781
0.246428
0.248251
0.249479
0.250275
0.250738
0.250985
0.251093
0.251092
0.216325
0.216309
0.216489
0.217054
0.21813
0.219672
0.221744
0.224513
0.228132
0.232706
0.237919
0.242568
0.245992
0.248431
0.250145
0.251339
0.252128
0.252608
0.252806
0.252812
0.209826
0.209805
0.210018
0.210662
0.211847
0.2136
0.216028
0.21932
0.223691
0.229286
0.235754
0.241609
0.245975
0.249152
0.251427
0.253056
0.254197
0.254886
0.25515
0.25516
0.201934
0.201903
0.202168
0.202949
0.204372
0.206489
0.209454
0.213522
0.218938
0.225882
0.233904
0.241175
0.246626
0.2506
0.253488
0.255584
0.257059
0.257918
0.258241
0.258261
0.19234
0.192294
0.192624
0.193619
0.195402
0.198046
0.201767
0.206863
0.213629
0.222275
0.23222
0.241207
0.247945
0.252897
0.256479
0.25905
0.260906
0.26196
0.26235
0.262382
0.180674
0.180607
0.181021
0.182289
0.18459
0.187986
0.192746
0.199214
0.207739
0.218521
0.230822
0.241879
0.25015
0.256209
0.260635
0.26388
0.266047
0.267283
0.267765
0.26781
0.166455
0.166361
0.1669
0.168528
0.171512
0.175925
0.182088
0.190365
0.201142
0.214601
0.229762
0.243273
0.253363
0.260768
0.266169
0.270051
0.272678
0.274172
0.274766
0.274824
0.148872
0.148761
0.149508
0.151652
0.155518
0.161328
0.169368
0.180057
0.193755
0.210549
0.229146
0.245544
0.257753
0.266723
0.273253
0.277931
0.28109
0.282909
0.283625
0.283686
0.1265
0.126383
0.127492
0.130449
0.135622
0.143427
0.15411
0.168078
0.185559
0.206472
0.229143
0.248867
0.263478
0.274217
0.282047
0.28766
0.291478
0.293686
0.294533
0.294592
0.0970341
0.0969554
0.0987458
0.10311
0.11048
0.121365
0.135903
0.154334
0.176667
0.20258
0.229967
0.25342
0.270691
0.283394
0.292695
0.299409
0.304017
0.306663
0.307644
0.307693
0.0563217
0.056434
0.0597303
0.0670255
0.078463
0.0944048
0.114623
0.139055
0.167433
0.199207
0.231868
0.259365
0.279484
0.294304
0.305233
0.31322
0.318762
0.321895
0.32299
0.323016
-0.00340491
-0.00205748
0.00593511
0.0196394
0.0386721
0.0626823
0.090869
0.122927
0.158447
0.196769
0.235071
0.26677
0.289821
0.306835
0.319503
0.328894
0.335503
0.339189
0.340384
0.340375
-0.0749441
-0.0727641
-0.0575929
-0.0338078
-0.00425059
0.0292513
0.066208
0.106473
0.149727
0.195384
0.240387
0.277488
0.304618
0.324872
0.340171
0.351697
0.359969
0.364549
0.365826
0.365906
-0.14854
-0.141485
-0.119098
-0.0853622
-0.0460597
-0.00334771
0.042312
0.0907925
0.141832
0.19491
0.246748
0.28939
0.320676
0.344261
0.362409
0.376392
0.386457
0.391371
0.39328
0.393729
-0.20736
-0.198453
-0.171355
-0.130882
-0.0840302
-0.0335394
0.0198892
0.0759751
0.134347
0.194448
0.252677
0.300326
0.335217
0.361518
0.381742
0.397295
0.408497
0.414621
0.417461
0.418068
-0.255181
-0.245723
-0.215157
-0.169795
-0.117206
-0.0605141
-0.000596681
0.0621233
0.127105
0.193627
0.257674
0.309752
0.347656
0.376075
0.397863
0.414671
0.426929
0.433946
0.437146
0.437815
-0.295207
-0.285556
-0.252742
-0.203592
-0.146347
-0.0845529
-0.0191714
0.0492835
0.120106
0.192415
0.261696
0.317649
0.358073
0.388163
0.411086
0.428676
0.441522
0.449262
0.452653
0.453359
-0.329978
-0.320262
-0.285755
-0.23357
-0.172517
-0.10641
-0.0362922
0.0372037
0.113253
0.190796
0.264847
0.324275
0.366852
0.398258
0.421955
0.439985
0.453139
0.461142
0.464644
0.465387
-0.361068
-0.351338
-0.315556
-0.260798
-0.196552
-0.126743
-0.0524661
0.025529
0.106326
0.188701
0.267212
0.329887
0.374416
0.40694
0.431212
0.449465
0.462706
0.470807
0.474266
0.475078
-0.389678
-0.379912
-0.343062
-0.286129
-0.219136
-0.146074
-0.0681161
0.0139435
0.0991039
0.186022
0.268799
0.334647
0.381097
0.414684
0.439494
0.457994
0.471285
0.479488
0.482965
0.483619
-0.416579
-0.406758
-0.36896
-0.310159
-0.240722
-0.164784
-0.0835393
0.00220767
0.0914072
0.182627
0.269588
0.338614
0.387045
0.421796
0.447226
0.466015
0.479421
0.487589
0.491076
0.491615
-0.442251
-0.432369
-0.393694
-0.333291
-0.261629
-0.183127
-0.0989348
-0.0098371
0.0831025
0.178421
0.26951
0.341843
0.392444
0.428534
0.454714
0.473884
0.487447
0.495607
0.499048
0.499573
-0.46712
-0.457076
-0.417586
-0.3557
-0.282081
-0.201293
-0.114441
-0.0222947
0.0741127
0.173334
0.268551
0.344396
0.397397
0.435016
0.462124
0.481813
0.49562
0.503807
0.507127
0.507641
-0.491345
-0.481072
-0.440861
-0.377564
-0.302203
-0.219374
-0.130128
-0.0352129
0.0643929
0.16734
0.266679
0.346191
0.401862
0.441283
0.469519
0.489865
0.503985
0.512205
0.515391
0.51585
-0.514978
-0.504493
-0.463585
-0.398989
-0.322058
-0.237395
-0.146014
-0.0486045
0.0539377
0.160391
0.263773
0.347135
0.40579
0.44732
0.476908
0.498045
0.512522
0.52074
0.523765
0.524126
-0.538148
-0.527365
-0.48575
-0.419994
-0.341659
-0.255368
-0.162087
-0.0624461
0.042751
0.15245
0.259756
0.347123
0.409089
0.453076
0.48428
0.506341
0.521192
0.529372
0.532173
0.532401
-0.56077
-0.549716
-0.507401
-0.440575
-0.360983
-0.273249
-0.17829
-0.0766899
0.0308663
0.143525
0.254593
0.346024
0.411595
0.458456
0.491622
0.514761
0.529942
0.537937
0.540448
0.540548
-0.582872
-0.571531
-0.528507
-0.460703
-0.379985
-0.290986
-0.194569
-0.0912592
0.0183611
0.133669
0.248236
0.343704
0.413124
0.463308
0.498915
0.52337
0.538784
0.546362
0.548449
0.548409
-0.604292
-0.592727
-0.549017
-0.480328
-0.398606
-0.3085
-0.210843
-0.106065
0.00532902
0.122947
0.240672
0.340046
0.413461
0.467411
0.506106
0.532357
0.547906
0.554615
0.556001
0.5558
-0.625135
-0.613253
-0.568898
-0.499412
-0.416806
-0.325741
-0.227011
-0.121016
-0.00813245
0.111452
0.231934
0.334956
0.412375
0.470431
0.512993
0.541968
0.557913
0.563047
0.563026
0.562544
-0.645253
-0.633074
-0.588117
-0.517898
-0.434498
-0.34262
-0.242988
-0.135988
-0.0219054
0.0992734
0.222093
0.328371
0.409662
0.471936
0.519085
0.552223
0.569898
0.573222
0.570191
0.568368
-0.664688
-0.65224
-0.606624
-0.535732
-0.451641
-0.359067
-0.258691
-0.150897
-0.0358677
0.0865663
0.211257
0.320262
0.405169
0.471444
0.52346
0.562322
0.584492
0.588624
0.581777
0.571111
-0.683355
-0.6707
-0.624522
-0.553065
-0.468443
-0.375367
-0.274459
-0.166155
-0.0504892
0.0727908
0.198836
0.309973
0.398258
0.468278
0.524681
0.570349
0.600098
0.608993
0.602635
0.592071
-0.701219
-0.688355
-0.641815
-0.569856
-0.484892
-0.391521
-0.290268
-0.181772
-0.0657993
0.0578571
0.184689
0.297216