/*--------------------------------*- C++ -*----------------------------------*\
  =========                 |
  \\      /  F ield         | OpenFOAM: The Open Source CFD Toolbox
   \\    /   O peration     | Website:  https://openfoam.org
    \\  /    A nd           | Version:  10
     \\/     M anipulation  |
\*---------------------------------------------------------------------------*/
FoamFile
{
    format      ascii;
    class       surfaceScalarField;
    location    "26";
    object      phi;
}
// * * * * * * * * * * * * * * * * * * * * * * * * * * * * * * * * * * * * * //

dimensions      [0 3 -1 0 0 0 0];

internalField   nonuniform List<scalar> 
17370
(
-0.091607
0.0960077
0.28461
-0.0775917
0.0594156
0.364952
-0.0430371
0.0316166
0.427589
-0.0223098
0.0162531
0.505308
-0.0116542
0.00877447
0.602282
-0.00655697
0.00506917
0.720545
-0.00383589
0.00296595
0.863776
-0.00220977
0.00164817
1.03601
-0.00113339
0.000724552
1.24291
-0.0003209
-6.34816e-05
1.49158
0.000444404
-0.000854458
1.4916
0.00125951
-0.00176674
1.2432
0.00232023
-0.00306729
1.03638
0.00392954
-0.00515451
0.864131
0.00663393
-0.00884129
0.721265
0.0117106
-0.0162963
0.6038
0.0223402
-0.0316332
0.508732
0.0430395
-0.0594097
0.432538
0.077588
-0.0960041
0.365192
0.0916171
0.197394
-0.127088
0.0880201
0.0390681
-0.364351
0.354026
-0.071476
0.0818016
-0.446653
0.454247
-0.0791663
0.0715723
-0.521006
0.529105
-0.0637215
0.0556225
-0.612982
0.620755
-0.0482351
0.0404626
-0.727153
0.733679
-0.0338453
0.0273196
-0.867578
0.872418
-0.0221174
0.0172778
-1.03857
1.04188
-0.0136002
0.0102908
-1.24471
1.24709
-0.00776759
0.00539049
-1.49283
1.49482
-0.00344977
0.00145993
-1.49268
1.49448
0.000338724
-0.00214179
-1.2441
1.24601
0.00410786
-0.00602056
-1.03761
1.0401
0.00836158
-0.0108486
-0.866197
0.869836
0.0141166
-0.017755
-0.724601
0.729767
0.0225518
-0.0277173
-0.609069
0.615651
0.0342052
-0.0407875
-0.515127
0.522475
0.04852
-0.0558677
-0.43988
0.447677
0.0639111
-0.0717086
-0.374718
0.377367
0.0792264
-0.0818752
-0.256917
0.224473
0.0715335
-0.039089
-0.0688038
0.059193
0.00961076
-0.0521033
0.0589347
-0.374833
0.368001
-0.0580884
0.054248
-0.45394
0.45778
-0.0487605
0.0441984
-0.527607
0.532169
-0.0396445
0.0357457
-0.620787
0.624686
-0.0315333
0.0275467
-0.734639
0.738625
-0.0232105
0.0193519
-0.873925
0.877783
-0.015347
0.0119286
-1.04332
1.04674
-0.00845441
0.0054639
-1.24861
1.2516
-0.00230455
-0.00063509
-1.49691
1.49985
0.00355921
-0.00668234
-1.49739
1.50051
0.00962074
-0.0130269
-1.25005
1.25346
0.0163774
-0.0203041
-1.04565
1.04958
0.0240891
-0.0283444
-0.877158
0.881413
0.0322578
-0.0363931
-0.73902
0.743155
0.040229
-0.0447235
-0.626008
0.630503
0.0492383
-0.0546802
-0.535049
0.540491
0.0584678
-0.0592537
-0.458113
0.458899
0.0523369
-0.0320003
-0.336822
0.316485
0.0096524
-0.0687008
0.0590484
-0.0534049
0.0492965
0.00410842
-0.0332257
0.0436462
-0.358551
0.348131
-0.0473228
0.0467414
-0.45956
0.460141
-0.0438219
0.0406201
-0.536103
0.539305
-0.0369541
0.0336075
-0.628354
0.6317
-0.0299835
0.0267581
-0.74199
0.745216
-0.0233273
0.0201616
-0.881282
0.884448
-0.0166205
0.0133234
-1.05017
1.05347
-0.00969156
0.00634789
-1.25484
1.25818
-0.00261886
-0.000948273
-1.50316
1.50672
0.00449493
-0.00816529
-1.50398
1.50765
0.0114325
-0.0149618
-1.25702
1.26055
0.0181566
-0.0215812
-1.0533
1.05672
0.0246401
-0.0279571
-0.885045
0.888362
0.0310834
-0.034604
-0.746852
0.750372
0.0378604
-0.0414332
-0.634629
0.638202
0.0445568
-0.0473914
-0.544644
0.547479
0.0478874
-0.044095
-0.457043
0.453251
0.0335343
-0.0163002
-0.297227
0.279992
0.00415467
-0.0532187
0.049064
-0.0461303
0.0435828
0.00254749
-0.0229939
0.0333233
-0.337548
0.327218
-0.0390414
0.0399794
-0.459888
0.45895
-0.0387149
0.0363735
-0.541946
0.544287
-0.0337162
0.0311663
-0.634641
0.637191
-0.028207
0.0254019
-0.748266
0.751071
-0.0222374
0.0193074
-0.887472
0.890402
-0.0160519
0.0130067
-1.0566
1.05965
-0.00954604
0.0062324
-1.26153
1.26485
-0.00241157
-0.00130752
-1.51042
1.51414
0.00500113
-0.00874171
-1.5114
1.51514
0.0119477
-0.0152663
-1.26398
1.2673
0.0181697
-0.0212632
-1.05992
1.06301
0.0240455
-0.027054
-0.891557
0.894565
0.0297236
-0.0325436
-0.753574
0.756394
0.0349742
-0.0375119
-0.641185
0.643723
0.0397542
-0.0408904
-0.549353
0.550489
0.0398217
-0.0339169
-0.448196
0.442291
0.0233856
-0.010261
-0.264904
0.25178
0.00260463
-0.0458469
0.0432422
-0.0414715
0.0396847
0.00178682
-0.0168322
0.0260685
-0.317372
0.308135
-0.0326383
0.0347627
-0.45738
0.455255
-0.034354
0.0326899
-0.546297
0.547961
-0.030499
0.0283975
-0.63947
0.641572
-0.0259851
0.0236404
-0.753636
0.755981
-0.020882
0.0182028
-0.893224
0.895903
-0.0151076
0.0121655
-1.06265
1.06559
-0.00880936
0.00560638
-1.2681
1.2713
-0.00190285
-0.00171427
-1.51781
1.52143
0.00529427
-0.00889086
-1.51882
1.52241
0.0119512
-0.0151229
-1.27054
1.27371
0.017883
-0.0207738
-1.06603
1.06892
0.0232698
-0.0258357
-0.897361
0.899927
0.0280088
-0.0302411
-0.75887
0.761102
0.0321867
-0.0342201
-0.645984
0.648018
0.0357403
-0.0359761
-0.551115
0.551351
0.0336554
-0.0268185
-0.43581
0.428973
0.0173163
-0.00731448
-0.24035
0.230348
0.00185643
-0.0410693
0.0392129
-0.0381523
0.0368248
0.00132747
-0.012749
0.0206454
-0.299568
0.291672
-0.0273225
0.0301943
-0.452704
0.449832
-0.0303811
0.0292569
-0.549338
0.550463
-0.0272828
0.0253944
-0.643549
0.645437
-0.0232523
0.0212018
-0.758174
0.760225
-0.018823
0.0164907
-0.898415
0.900748
-0.013737
0.0110382
-1.06842
1.07112
-0.00788321
0.00482465
-1.27443
1.27748
-0.00126088
-0.0022183
-1.52498
1.52845
0.0056488
-0.00907138
-1.52593
1.52936
0.0119455
-0.0148663
-1.27678
1.2797
0.0173332
-0.0198205
-1.07162
1.07411
0.0219114
-0.0240372
-0.902255
0.904381
0.0258675
-0.0277805
-0.763159
0.765072
0.0294742
-0.0312605
-0.649883
0.651669
0.0321804
-0.0317575
-0.551234
0.550811
0.0286099
-0.0215722
-0.421971
0.414934
0.0133394
-0.00554882
-0.221551
0.21376
0.00141218
-0.0376055
0.0361934
-0.0356685
0.0346626
0.0010059
-0.00979791
0.0163952
-0.284433
0.277836
-0.0227656
0.02608
-0.446707
0.443392
-0.0268429
0.0261607
-0.551359
0.552041
-0.0244223
0.0226792
-0.647274
0.649017
-0.0206939
0.0188063
-0.762201
0.764089
-0.0166273
0.0145015
-0.902955
0.905081
-0.0119978
0.00953132
-1.07366
1.07613
-0.00662008
0.00376533
-1.28043
1.28328
-0.000426797
-0.00282044
-1.53182
1.53506
0.00600793
-0.00916335
-1.53266
1.53582
0.0117741
-0.0143782
-1.28246
1.28506
0.016545
-0.0187143
-1.07641
1.07858
0.0205466
-0.0224223
-0.906356
0.908232
0.0240429
-0.0257468
-0.766875
0.768579
0.0272481
-0.0287268
-0.653352
0.65483
0.0291488
-0.0280527
-0.550065
0.548969
0.0243642
-0.0175281
-0.407954
0.401118
0.0105157
-0.00433786
-0.206836
0.200658
0.00110926
-0.0349467
0.0338374
-0.0337893
0.0330287
0.000760608
-0.00754119
0.0129529
-0.271848
0.266436
-0.0187305
0.0221915
-0.439963
0.436502
-0.0234508
0.0230846
-0.552559
0.552925
-0.0217262
0.0201878
-0.65067
0.652208
-0.0183811
0.0166271
-0.76594
0.767694
-0.0145683
0.0125452
-0.907174
0.909197
-0.0101657
0.00784462
-1.0785
1.08082
-0.00513727
0.00250693
-1.28599
1.28862
0.000562982
-0.0035615
-1.53817
1.54117
0.00648411
-0.00932341
-1.53883
1.54167
0.0116473
-0.0139669
-1.28752
1.28984
0.0159057
-0.0178545
-1.08065
1.0826
0.0194969
-0.0211687
-0.910005
0.911676
0.0225948
-0.0240595
-0.770157
0.771622
0.0252939
-0.0263177
-0.656072
0.657096
0.0263483
-0.0246472
-0.547542
0.54584
0.0206984
-0.0143345
-0.394496
0.388132
0.00841447
-0.00345127
-0.195135
0.190172
0.000886806
-0.0328549
0.0319681
-0.0323722
0.0318084
0.00056381
-0.00570898
0.0100535
-0.261572
0.257228
-0.0150835
0.0184277
-0.433082
0.429738
-0.0199257
0.0197486
-0.553197
0.553374
-0.0186079
0.0171664
-0.653693
0.655134
-0.0154829
0.0138804
-0.769411
0.771013
-0.0120296
0.010217
-0.911124
0.912936
-0.0080675
0.00595291
-1.08298
1.08509
-0.00346695
0.00104883
-1.29109
1.29351
0.00176863
-0.0045002
-1.54403
1.54676
0.00713366
-0.00965698
-1.54439
1.54691
0.0116868
-0.0136692
-1.292
1.29398
0.0152886
-0.0168915
-1.08438
1.08598
0.0182339
-0.0196001
-0.913202
0.914568
0.0207882
-0.0220466
-0.772946
0.774205
0.0231194
-0.0238031
-0.65795
0.658634
0.0235337
-0.02145
-0.543942
0.541859
0.0174826
-0.0117295
-0.382072
0.376318
0.00676915
-0.00276894
-0.185725
0.181725
0.000718144
-0.0311781
0.03046
-0.0313353
0.0309393
0.00039602
-0.00415445
0.00752824
-0.253383
0.250009
-0.0117402
0.0148232
-0.426518
0.423435
-0.0164494
0.0164603
-0.553476
0.553465
-0.0155403
0.014203
-0.656561
0.657899
-0.0126648
0.0112233
-0.772581
0.774022
-0.00955836
0.00790217
-0.914646
0.916302
-0.00591795
0.00395428
-1.08705
1.08902
-0.00164835
-0.000584838
-1.29578
1.29801
0.00316244
-0.00561274
-1.54931
1.55176
0.00794436
-0.0101577
-1.54929
1.55151
0.0119067
-0.0135805
-1.29585
1.29752
0.0149177
-0.0161892
-1.08743
1.0887
0.0172363
-0.0183041
-0.915736
0.916804
0.019249
-0.0202839
-0.775312
0.776347
0.0211788
-0.0215193
-0.659166
0.659506
0.0209299
-0.0185428
-0.539654
0.537267
0.0146718
-0.00957085
-0.370906
0.365805
0.0054496
-0.00223089
-0.178149
0.174931
0.000586675
-0.0298242
0.0292375
-0.0306195
0.0303698
0.000249757
-0.00275067
0.00519609
-0.247109
0.244663
-0.00850808
0.0111849
-0.420542
0.417865
-0.0128564
0.0131298
-0.55333
0.553057
-0.0125124
0.0114442
-0.659134
0.660202
-0.0100767
0.00871656
-0.775486
0.776846
-0.00708955
0.00546341
-0.917914
0.91954
-0.00354525
0.00169365
-1.09084
1.09269
0.000438473
-0.00248504
-1.3001
1.30215
0.00481687
-0.00701424
-1.55406
1.55626
0.00906835
-0.0109608
-1.55359
1.55548
0.012415
-0.0137862
-1.29908
1.30045
0.014883
-0.0159503
-1.08989
1.09096
0.0168127
-0.0176584
-0.917753
0.918599
0.0183618
-0.0190532
-0.777158
0.777849
0.019507
-0.0193892
-0.659611
0.659493
0.0183508
-0.0157113
-0.534779
0.532139
0.0120648
-0.00767769
-0.361081
0.356694
0.00432979
-0.00178772
-0.172078
0.169536
0.000484641
-0.0287165
0.0282318
-0.0301959
0.0301016
9.42871e-05
-0.00139047
0.00294706
-0.242682
0.241126
-0.00531506
0.00741996
-0.415472
0.413367
-0.00889045
0.00923775
-0.552709
0.552362
-0.00875494
0.00787367
-0.661184
0.662065
-0.00666766
0.00545591
-0.778239
0.779451
-0.00399438
0.00251224
-0.92108
0.922562
-0.000753995
-0.000945041
-1.09438
1.09608
0.00289903
-0.00474542
-1.30402
1.30587
0.00682978
-0.00875798
-1.55827
1.5602
0.0104973
-0.0120277
-1.5572
1.55873
0.0131321
-0.0140892
-1.30168
1.30264
0.0147975
-0.0154231
-1.09187
1.0925
0.0158945
-0.0163677
-0.919302
0.919776
0.0167896
-0.0172225
-0.778289
0.778722
0.0173734
-0.0169467
-0.659165
0.658738
0.0156463
-0.0129777
-0.529516
0.526848
0.00968253
-0.00600283
-0.352713
0.349034
0.00334504
-0.00139134
-0.167327
0.165373
0.000388523
-0.0278111
0.0274225
-0.0300789
0.0301276
-4.86428e-05
-0.000180259
0.000938552
-0.239989
0.23923
-0.00242678
0.00394667
-0.411576
0.410056
-0.00511026
0.00538278
-0.552067
0.551794
-0.00491544
0.00412249
-0.662956
0.663749
-0.00305157
0.0019851
-0.780673
0.78174
-0.000686669
-0.0006445
-0.923874
0.925205
0.00223146
-0.00378462
-1.09759
1.09914
0.00557824
-0.00728309
-1.30756
1.30927
0.0091854
-0.0108958
-1.56197
1.56369
0.0123876
-0.0136174
-1.56011
1.56134
0.0144308
-0.0150588
-1.30346
1.30408
0.0154292
-0.0156723
-1.09295
1.09319
0.0158043
-0.0158612
-0.92001
0.920067
0.0158532
-0.0158256
-0.778825
0.778798
0.0156472
-0.0149606
-0.658175
0.657489
0.0134664
-0.0107938
-0.524265
0.521593
0.00781076
-0.00472875
-0.345725
0.342643
0.00261672
-0.00109679
-0.163696
0.162176
0.000310966
-0.0270958
0.0267848
-0.0302412
0.0304084
-0.000167266
0.000659255
-0.000554704
-0.238815
0.23871
-0.000150911
0.00112741
-0.408837
0.40786
-0.0020331
0.00231265
-0.55153
0.551251
-0.00196592
0.00129849
-0.664548
0.665215
-0.000322547
-0.000721423
-0.782871
0.783915
0.00205152
-0.00341638
-0.926432
0.927797
0.00505381
-0.00665049
-1.10059
1.10219
0.00849191
-0.0102058
-1.31089
1.3126
0.012044
-0.0136063
-1.56525
1.56682
0.0148943
-0.015906
-1.56245
1.56346
0.0164974
-0.0168744
-1.30464
1.30501
0.0170159
-0.0169719
-1.09333
1.09328
0.0167924
-0.0165201
-0.919955
0.919683
0.016262
-0.0159567
-0.778516
0.778211
0.0154002
-0.0142319
-0.65652
0.655352
0.0123907
-0.00961025
-0.518948
0.516168
0.00684729
-0.00417384
-0.339859
0.337186
0.00235692
-0.00100895
-0.160821
0.159473
0.000288514
-0.0265172
0.0262287
-0.0306102
0.030852
-0.000241827
0.00128414
-0.00161498
-0.238821
0.239152
0.00159859
-0.00121408
-0.407216
0.406832
0.000694337
-0.000516864
-0.551024
0.550846
0.000818256
-0.00142201
-0.665946
0.66655
0.0023796
-0.00349285
-0.785048
0.786161
0.004971
-0.00650936
-0.929096
0.930635
0.00832609
-0.0100584
-1.10373
1.10546
0.0119876
-0.013727
-1.31426
1.316
0.015535
-0.0170147
-1.5683
1.56978
0.0181347
-0.0188868
-1.56438
1.56513
0.0192047
-0.0192495
-1.30527
1.30532
0.0190954
-0.018763
-1.0931
1.09276
0.0183651
-0.0178782
-0.919247
0.91876
0.0173773
-0.016715
-0.777617
0.776955
0.0157484
-0.0142144
-0.653994
0.65246
0.0121561
-0.0093739
-0.513497
0.510715
0.00678796
-0.00429406
-0.334723
0.332229
0.00250866
-0.0010992
-0.158174
0.156764
0.000316811
-0.0259607
0.0256439
-0.0311353
0.0314541
-0.000318758
0.00178583
-0.00248759
-0.239673
0.240375
0.00301906
-0.00327402
-0.406816
0.407071
0.00341164
-0.00364599
-0.550895
0.55113
0.00418644
-0.00495486
-0.667326
0.668095
0.00611181
-0.00744551
-0.787428
0.788762
0.0091677
-0.0108817
-0.9321
0.933814
0.0128396
-0.0146373
-1.10709
1.10888
0.0165674
-0.0182411
-1.31761
1.31928
0.0199107
-0.0211895
-1.57111
1.57239
0.0220349
-0.0224252
-1.5657
1.56609
0.0224002
-0.0220832
-1.30523
1.30492
0.0216204
-0.0209814
-1.09227
1.09163
0.0203003
-0.0194752
-0.91804
0.917215
0.0186804
-0.0177255
-0.776017
0.775062
0.0165462
-0.014842
-0.650851
0.649147
0.0127486
-0.010032
-0.508125
0.505409
0.00747163
-0.00487382
-0.32983
0.327232
0.0029059
-0.00129106
-0.155331
0.153716
0.000375431
-0.0253351
0.0249597
-0.0318203
0.032231
-0.000410614
0.0023774
-0.00339557
-0.241248
0.242267
0.00433783
-0.00505469
-0.40757
0.408287
0.00576932
-0.0065579
-0.551772
0.55256
0.00768731
-0.00895423
-0.66927
0.670537
0.0105353
-0.0121804
-0.790258
0.791904
0.0141644
-0.0160596
-0.935386
0.937281
0.0181569
-0.0200442
-1.11054
1.11242
0.0220321
-0.0236995
-1.32082
1.32249
0.025275
-0.0263583
-1.57349
1.57457
0.0269152
-0.0269136
-1.56627
1.56627
0.0265288
-0.0257927
-1.30444
1.3037
0.0249632
-0.0239523
-1.0908
1.08978
0.0229744
-0.0218939
-0.916148
0.915068
0.0208828
-0.0197061
-0.773827
0.772651
0.0184157
-0.0166343
-0.647444
0.645663
0.0144685
-0.0115598
-0.502856
0.499947
0.00870174
-0.00571526
-0.324605
0.321619
0.00342954
-0.00153944
-0.15205
0.15016
0.000453525
-0.0245902
0.0241367
-0.0326945
0.033224
-0.000529483
0.00317726
-0.00460736
-0.243485
0.244915
0.00595935
-0.00698069
-0.409181
0.410203
0.00800282
-0.00909593
-0.553716
0.554809
0.0105885
-0.0122405
-0.672234
0.673886
0.0142803
-0.0163335
-0.79372
0.795773
0.0187518
-0.0209981
-0.939083
0.94133
0.0234549
-0.0256647
-1.11424
1.11645
0.0279845
-0.0299206
-1.32411
1.32605
0.0316931
-0.0328353
-1.57555
1.5767
0.0333414
-0.033187
-1.56611
1.56595
0.0325478
-0.0314578
-1.30275
1.30166
0.0301956
-0.028697
-1.08853
1.08703
0.0273821
-0.0260262
-0.913793
0.912437
0.0248238
-0.0235418
-0.771242
0.76996
0.0220954
-0.0199332
-0.643824
0.641661
0.0172175
-0.0135884
-0.496996
0.493367
0.0101258
-0.00662458
-0.318546
0.315045
0.0039941
-0.00181377
-0.148226
0.146046
0.000542579
-0.0236906
0.023148
-0.0338245
0.0345232
-0.000698688
0.0043063
-0.00633269
-0.246614
0.248641
0.00826191
-0.00959942
-0.411399
0.412736
0.0107083
-0.0117839
-0.556221
0.557297
0.0132936
-0.015072
-0.675841
0.677619
0.0174209
-0.0198907
-0.797949
0.800419
0.0228104
-0.0255851
-0.943532
0.946307
0.028703
-0.0315472
-1.11871
1.12156
0.0345663
-0.0370976
-1.32809
1.33062
0.0394433
-0.041009
-1.57792
1.57948
0.0418067
-0.041838
-1.56581
1.56584
0.041257
-0.0401773
-1.30054
1.29946
0.0388564
-0.0371698
-1.08533
1.08364
0.0354565
-0.0335028
-0.910626
0.908673
0.0317878
-0.0297935
-0.768266
0.766272
0.0274826
-0.0241755
-0.639151
0.635844
0.0203565
-0.0156923
-0.489545
0.484881
0.0115719
-0.00759387
-0.311524
0.307546
0.00462115
-0.00212115
-0.143839
0.141339
0.000640388
-0.0226229
0.0219825
-0.0353033
0.0362468
-0.000943508
0.00588712
-0.00876102
-0.251012
0.253886
0.0115826
-0.013511
-0.414403
0.416331
0.0148623
-0.0158577
-0.558779
0.559774
0.0171971
-0.0189934
-0.679632
0.681429
0.021558
-0.0243589
-0.802879
0.80568
0.027872
-0.031357
-0.949103
0.952588
0.0353399
-0.0389903
-1.12455
1.1282
0.0428477
-0.0460714
-1.33332
1.33654
0.0490767
-0.0511213
-1.58119
1.58324
0.0522273
-0.0524191
-1.56593
1.56612
0.0518893
-0.050724
-1.29832
1.29715
0.0492673
-0.047315
-1.08175
1.0798
0.0452799
-0.0428385
-0.906297
0.903855
0.040302
-0.0369227
-0.76342
0.760041
0.0332305
-0.0283321
-0.631839
0.626941
0.0233523
-0.0178314
-0.480117
0.474596
0.0132031
-0.0087718
-0.303636
0.299205
0.00539355
-0.00249105
-0.138813
0.13591
0.000753798
-0.0213652
0.0206114
-0.037282
0.0385877
-0.00130572
0.00809463
-0.0121211
-0.257175
0.261201
0.016203
-0.0191197
-0.418887
0.421804
0.0211946
-0.0224783
-0.561542
0.562826
0.0239144
-0.0258203
-0.683468
0.685374
0.0287237
-0.0320939
-0.808424
0.811794
0.0363856
-0.0406144
-0.956099
0.960327
0.0454139
-0.0497534
-1.13195
1.13629
0.0542607
-0.0579488
-1.33984
1.34352
0.0612889
-0.0634436
-1.58526
1.58741
0.0644465
-0.0643474
-1.56616
1.56606
0.0634476
-0.0617907
-1.29575
1.2941
0.0598021
-0.0572159
-1.07746
1.07487
0.0545228
-0.0511471
-0.900729
0.897353
0.0474997
-0.0428001
-0.755724
0.751024
0.0378857
-0.0319279
-0.621525
0.615567
0.0263089
-0.0203277
-0.469245
0.463264
0.0152851
-0.0102928
-0.294912
0.28992
0.006365
-0.00293577
-0.132982
0.129552
0.000881538
-0.0198882
0.0190067
-0.0399731
0.0418018
-0.00182871
0.0111552
-0.0166754
-0.265639
0.27116
0.022338
-0.0265715
-0.425725
0.429958
0.0298728
-0.0321363
-0.565471
0.567734
0.0344628
-0.0371228
-0.687764
0.690424
0.0409612
-0.0451292
-0.815166
0.819334
0.0501918
-0.0550428
-0.964503
0.969354
0.0604056
-0.0651212
-1.14055
1.14526
0.0698605
-0.0735621
-1.34704
1.35074
0.0766607
-0.0783333
-1.58923
1.59091
0.078644
-0.0776556
-1.5655
1.56452
0.0758568
-0.073135
-1.29191
1.28919
0.0701427
-0.0664469
-1.07163
1.06794
0.062704
-0.0581579
-0.893064
0.888518
0.0535296
-0.0479257
-0.745471
0.739868
0.0423744
-0.0359798
-0.609413
0.603019
0.0300681
-0.0236805
-0.457608
0.45122
0.018063
-0.0122721
-0.285078
0.279287
0.0075989
-0.00348922
-0.126083
0.121973
0.00103903
-0.0181541
0.0171151
-0.0436899
0.0463525
-0.00266256
0.0157472
-0.0232724
-0.277097
0.284622
0.0309075
-0.0368036
-0.435781
0.441677
0.0417906
-0.0455835
-0.572009
0.575802
0.0496102
-0.0537784
-0.693949
0.698117
0.0589443
-0.0640505
-0.823461
0.828567
0.0698849
-0.0752207
-0.974026
0.979362
0.0808697
-0.0856181
-1.14969
1.15444
0.0901257
-0.0933542
-1.354
1.35722
0.0956122
-0.0962035
-1.59191
1.5925
0.0952327
-0.092776
-1.56273
1.56028
0.08962
-0.0854399
-1.28569
1.28151
0.0811644
-0.0761003
-1.06341
1.05835
0.0711916
-0.0655622
-0.883018
0.877389
0.0601908
-0.0540637
-0.733515
0.727388
0.0482246
-0.0415984
-0.59652
0.589894
0.0353287
-0.0282446
-0.445134
0.43805
0.0217034
-0.014747
-0.273622
0.266666
0.00907839
-0.00412304
-0.117839
0.112884
0.00120947
-0.0161231
0.0149136
-0.0490029
0.0531147
-0.00411185
0.0231385
-0.0334736
-0.292647
0.302982
0.0436273
-0.05157
-0.450057
0.458
0.0584739
-0.064051
-0.582171
0.587748
0.0702485
-0.0762484
-0.703203
0.709203
0.0830186
-0.0891896
-0.833656
0.839827
0.095784
-0.101462
-0.984432
0.99011
0.107118
-0.111552
-1.1587
1.16313
0.115364
-0.117644
-1.35973
1.36201
0.118514
-0.117523
-1.59212
1.59113
0.114817
-0.110505
-1.55678
1.55247
0.105739
-0.0999156
-1.27643
1.2706
0.0942475
-0.0877923
-1.0524
1.04594
0.0817935
-0.0752154
-0.87081
0.864231
0.0692254
-0.062655
-0.720422
0.713852
0.0564797
-0.0493818
-0.582965
0.575867
0.0423893
-0.0341502
-0.431122
0.422883
0.0262849
-0.0177874
-0.259857
0.25136
0.0108486
-0.0048541
-0.107962
0.101968
0.00139569
-0.0137682
0.0123725
-0.0569974
0.0641962
-0.00719877
0.0365178
-0.0510626
-0.314404
0.328948
0.0648665
-0.0751013
-0.469745
0.47998
0.0838144
-0.0912299
-0.596492
0.603908
0.0997252
-0.107378
-0.715878
0.72353
0.115423
-0.122287
-0.845826
0.85269
0.129176
-0.134724
-0.995302
1.00085
0.139837
-0.143414
-1.16679
1.17036
0.145943
-0.146721
-1.36326
1.36404
0.145662
-0.142637
-1.58889
1.58587
0.137863
-0.131476
-1.54695
1.54057
0.12497
-0.117429
-1.26381
1.25627
0.110347
-0.10255
-1.03861
1.03081
0.0955223
-0.0880328
-0.856651
0.849161
0.0813975
-0.0742692
-0.70617
0.699042
0.0675637
-0.0595696
-0.568115
0.560121
0.0513816
-0.0414512
-0.414543
0.404613
0.0318086
-0.0213915
-0.243034
0.232616
0.0129092
-0.00567568
-0.0962008
0.0889672
0.00158451
-0.0110822
0.00949769
-0.0710344
0.0748267
-0.00379229
0.0270123
-0.0395829
-0.346293
0.358864
0.0517403
-0.0610841
-0.495297
0.504641
0.0700724
-0.079344
-0.614807
0.624079
0.089779
-0.099041
-0.730991
0.740253
0.109345
-0.118478
-0.858832
0.867965
0.128017
-0.136273
-1.00542
1.01368
0.144587
-0.151366
-1.17273
1.1795
0.157567
-0.161817
-1.36345
1.3677
0.164435
-0.164453
-1.58136
1.58138
0.161703
-0.156542
-1.53282
1.52766
0.150194
-0.141944
-1.2477
1.23944
0.133787
-0.123927
-1.02213
1.01227
0.114924
-0.105123
-0.840608
0.830807
0.0964254
-0.0870858
-0.690443
0.681103
0.0780299
-0.0673226
-0.551036
0.540329
0.0563548
-0.0430967
-0.394223
0.380965
0.0309857
-0.0189921
-0.222257
0.210263
0.0103155
-0.00398952
-0.0823762
0.0760502
0.000912455
-0.00819231
0.00727986
-0.0818482
0.079595
0.0022532
0.00513645
-0.0130832
-0.374433
0.38238
0.0220627
-0.02923
-0.518726
0.525893
0.0373955
-0.0455299
-0.635016
0.643151
0.0550703
-0.0637373
-0.749426
0.758093
0.0729336
-0.0812832
-0.876653
0.885002
0.0899804
-0.0971846
-1.02166
1.02886
0.104596
-0.110249
-1.18606
1.19171
0.115296
-0.11837
-1.37152
1.3746
0.119442
-0.1181
-1.58032
1.57898
0.114049
-0.107694
-1.52134
1.51499
0.100249
-0.0910379
-1.23043
1.22122
0.0821685
-0.0720474
-1.00184
0.991716
0.0626367
-0.0523175
-0.819474
0.809154
0.0432843
-0.0342585
-0.668425
0.659399
0.0266259
-0.0185126
-0.526961
0.518848
0.0113822
-0.00506436
-0.366932
0.360614
0.00118304
0.00117619
-0.198086
0.195727
-0.00187235
0.00142714
-0.069405
0.0698502
-0.00062749
-0.00595378
0.00658127
-0.0825237
0.0795057
0.00301803
-0.00341472
-0.000762245
-0.393255
0.397432
0.00660785
-0.0121376
-0.537046
0.542575
0.0188992
-0.025964
-0.652473
0.659538
0.0341742
-0.0416793
-0.766236
0.773741
0.0498699
-0.0571444
-0.892724
0.899999
0.0644923
-0.0709343
-1.03592
1.04236
0.0773635
-0.0823425
-1.19696
1.20194
0.0863247
-0.0884666
-1.37699
1.37913
0.0889247
-0.0869595
-1.57688
1.57492
0.0824521
-0.0758396
-1.50794
1.50133
0.0684485
-0.0596907
-1.21188
1.20312
0.0510085
-0.0414548
-0.981263
0.971709
0.0326363
-0.0230544
-0.798714
0.789132
0.0148808
-0.00667803
-0.648439
0.640237
0.000148593
0.00605695
-0.50809
0.501885
-0.0101926
0.0121799
-0.351966
0.349978
-0.0117203
0.00956563
-0.190751
0.192906
-0.00674623
0.00351415
-0.0692452
0.0724773
-0.00118987
-0.00654097
0.00773084
-0.0809288
0.078083
0.00284581
-0.00647286
0.0046657
-0.405394
0.407201
-0.00118566
-0.00310201
-0.551145
0.555432
0.00912326
-0.0150719
-0.667001
0.67295
0.0221151
-0.0285959
-0.78096
0.787441
0.0356279
-0.0418942
-0.906872
0.913139
0.0486096
-0.0541187
-1.04844
1.05395
0.059809
-0.0637919
-1.20657
1.21055
0.0672672
-0.0690629
-1.38113
1.38292
0.0691326
-0.0668174
-1.5726
1.57028
0.0625738
-0.0564749
-1.49432
1.48822
0.0496971
-0.0414409
-1.19429
1.18604
0.0336844
-0.0252133
-0.962057
0.953585
0.017289
-0.00900867
-0.779549
0.771269
0.00160593
0.005505
-0.630543
0.623432
-0.0109573
0.0154189
-0.49344
0.488979
-0.0178055
0.0178671
-0.344466
0.344405
-0.0155698
0.0116056
-0.192014
0.195978
-0.00788717
0.00390314
-0.0741876
0.0781716
-0.0012501
-0.00820415
0.00945425
-0.0792478
0.0768136
0.00243417
-0.00714726
0.00674585
-0.413415
0.413817
-0.00415569
0.000968052
-0.562692
0.56588
0.00406535
-0.0094733
-0.67929
0.684698
0.0154363
-0.0211822
-0.793498
0.799244
0.0273167
-0.0328104
-0.919086
0.92458
0.0386456
-0.0436381
-1.0594
1.06439
0.0485538
-0.0523451
-1.21449
1.21828
0.055443
-0.0570375
-1.38446
1.38606
0.0570795
-0.0549518
-1.56795
1.56582
0.0511179
-0.0454749
-1.48168
1.47603
0.039439
-0.0322676
-1.178
1.17083
0.0254854
-0.0180027
-0.945078
0.937595
0.0112674
-0.0041423
-0.762901
0.755776
-0.00199058
0.00793922
-0.615488
0.609539
-0.0123003
0.0156336
-0.482127
0.478794
-0.0173014
0.0170088
-0.34083
0.341123
-0.0144964
0.0107247
-0.196452
0.200224
-0.00720648
0.00349699
-0.0801886
0.0838981
-0.00113427
-0.00998097
0.0111152
-0.0778233
0.07578
0.00204326
-0.00672903
0.00665516
-0.418858
0.418932
-0.00511433
0.00236128
-0.571724
0.574477
0.0023185
-0.00694585
-0.689842
0.69447
0.0121308
-0.0171811
-0.804427
0.809477
0.0226964
-0.0276744
-0.929852
0.93483
0.0331038
-0.0375733
-1.06919
1.07366
0.0421253
-0.0456742
-1.22188
1.22543
0.0485624
-0.0500872
-1.3875
1.38902
0.0501968
-0.0486905
-1.56374
1.56224
0.045286
-0.040453
-1.47019
1.46535
0.0351316
-0.0288376
-1.16376
1.15746
0.0231423
-0.0165741
-0.930249
0.923681
0.0107844
-0.00486428
-0.74876
0.74284
-0.00024812
0.00513764
-0.603133
0.598243
-0.00870978
0.0114929
-0.473352
0.470569
-0.0125636
0.0122713
-0.338505
0.338798
-0.010511
0.00758788
-0.20032
0.203243
-0.00497114
0.00244792
-0.0851671
0.0876903
-0.000812765
-0.0114389
0.0122517
-0.0768197
0.0752519
0.00156781
-0.00565557
0.00578954
-0.422927
0.422793
-0.00439239
0.0022366
-0.579772
0.581928
0.00200294
-0.00621059
-0.699084
0.703292
0.0111827
-0.0156018
-0.81431
0.818729
0.0205236
-0.025014
-0.939884
0.944374
0.0302561
-0.0344159
-1.07824
1.0824
0.0385854
-0.0420786
-1.22888
1.23237
0.0452943
-0.0468706
-1.39066
1.39224
0.0473061
-0.0460688
-1.56047
1.55923
0.043433
-0.0389853
-1.46047
1.45602
0.034463
-0.0290772
-1.15123
1.14584
0.0239853
-0.0184348
-0.917357
0.911807
0.0133912
-0.00815091
-0.736816
0.731576
0.00401553
0.00026328
-0.592863
0.588584
-0.00341827
0.0056444
-0.466093
0.463867
-0.00671009
0.00683035
-0.336409
0.336289
-0.00579562
0.00403221
-0.20261
0.204373
-0.00255117
0.0012616
-0.0879214
0.0892109
-0.000448266
-0.0122595
0.0127078
-0.0763561
0.0751357
0.00122042
-0.0044811
0.00465892
-0.426212
0.426034
-0.00327111
0.00118668
-0.586857
0.588941
0.00273889
-0.00654036
-0.707472
0.711273
0.0108636
-0.0151712
-0.823233
0.82754
0.0197844
-0.0244644
-0.948772
0.953452
0.0290697
-0.0331274
-1.08672
1.09077
0.0375219
-0.0408869
-1.23582
1.23919
0.0437817
-0.0459191
-1.39381
1.39595
0.0467375
-0.0459964
-1.55814
1.5574
0.0437564
-0.0401192
-1.45185
1.44821
0.0361429
-0.0313425
-1.14026
1.13546
0.0268638
-0.0218687
-0.906252
0.901257
0.0173476
-0.0127848
-0.726411
0.721848
0.00878572
-0.0049743
-0.583869
0.580058
0.00211309
0.000304943
-0.459949
0.457531
-0.00160017
0.00197274
-0.333655
0.333283
-0.00187074
0.001394
-0.202806
0.203282
-0.000951746
0.000545625
-0.0885928
0.0889989
-0.000257378
-0.0124606
0.012718
-0.0764249
0.0754092
0.00101568
-0.00317704
0.00313697
-0.429255
0.429295
-0.00193019
-0.00018606
-0.593387
0.595503
0.00386488
-0.00757143
-0.715332
0.719038
0.0117509
-0.0156984
-0.831756
0.835703
0.0204675
-0.0244277
-0.957651
0.961611
0.0290569
-0.0329987
-1.09504
1.09898
0.0373589
-0.0409995
-1.2426
1.24624
0.0442821
-0.0463243
-1.39792
1.39996
0.0476196
-0.0474182
-1.55666
1.55646
0.0459384
-0.0427186
-1.44451
1.44129
0.0392289
-0.0348579
-1.13074
1.12637
0.0307911
-0.0261405
-0.896066
0.891415
0.0220509
-0.0176808
-0.717053
0.712683
0.0139239
-0.0102221
-0.575782
0.57208
0.00728768
-0.00495251
-0.4538
0.451465
0.00327615
-0.0023379
-0.330119
0.32918
0.00154577
-0.000899134
-0.201104
0.200458
0.000393684
2.89898e-05
-0.0875169
0.0870942
-0.000123505
-0.012209
0.0123325
-0.0767618
0.076059
0.000702782
-0.00202989
0.00160925
-0.432483
0.432903
-0.00057635
-0.00182663
-0.599092
0.601495
0.00510516
-0.00867835
-0.722727
0.7263
0.0127096
-0.0168081
-0.839612
0.843711
0.0210184
-0.0251684
-0.965839
0.969988
0.0298039
-0.0335894
-1.10339
1.10718
0.0380975
-0.0417579
-1.24974
1.2534
0.0451814
-0.0478288
-1.40246
1.40511
0.0497073
-0.0498766
-1.55634
1.55651
0.0487104
-0.0462231
-1.43824
1.43575
0.0432589
-0.0391963
-1.12185
1.11779
0.0352917
-0.0310534
-0.886619
0.882381
0.0268031
-0.022725
-0.708015
0.703937
0.0190619
-0.0153046
-0.568129
0.564372
0.0124167
-0.00968885
-0.44757
0.444842
0.00766067
-0.00591133
-0.325736
0.323986
0.00447558
-0.00288415
-0.197676
0.196085
0.00150764
-0.000441545
-0.0850436
0.0839775
9.59713e-06
-0.0116031
0.0115935
-0.0775013
0.0769406
0.000560683
-0.00108355
0.000745823
-0.435935
0.436272
0.000902814
-0.0031405
-0.604969
0.607207
0.00654823
-0.00999509
-0.729634
0.733081
0.0138877
-0.0176163
-0.847565
0.851293
0.0219718
-0.0258422
-0.974199
0.97807
0.0304601
-0.0347035
-1.11145
1.11569
0.0389057
-0.0429363
-1.25715
1.26118
0.0468332
-0.0496367
-1.4077
1.41051
0.0519576
-0.0529628
-1.55693
1.55794
0.0522819
-0.0504153
-1.43314
1.43127
0.0476257
-0.043944
-1.1137
1.11002
0.0403418
-0.0361284
-0.877674
0.873461
0.032092
-0.0279574
-0.699293
0.695159
0.0242685
-0.0203469
-0.560226
0.556304
0.0171631
-0.0141522
-0.440959
0.437948
0.0114916
-0.00905606
-0.320064
0.317628
0.00687381
-0.00451587
-0.192604
0.190246
0.00256054
-0.000953157
-0.0815102
0.0799028
0.000172983
-0.0107783
0.0106053
-0.0784807
0.0780871
0.000393599
-0.000109948
-0.000448358
-0.439503
0.440061
0.00203677
-0.00451782
-0.610471
0.612952
0.00782298
-0.0111096
-0.736312
0.739598
0.015086
-0.0186795
-0.855061
0.858654
0.022902
-0.0269092
-0.982452
0.986459
0.0314545
-0.0356871
-1.11983
1.12406
0.0401363
-0.0442264
-1.26517
1.26926
0.0483514
-0.0519363
-1.41363
1.41722
0.0547569
-0.0561116
-1.55892
1.56027
0.0561504
-0.054614
-1.4293
1.42776
0.0523427
-0.0490972
-1.10622
1.10297
0.0454545
-0.0413209
-0.868879
0.864745
0.0373254
-0.0330167
-0.690583
0.686274
0.0293243
-0.0252048
-0.552264
0.548145
0.0218282
-0.0182857
-0.433796
0.430253
0.0152298
-0.0120952
-0.313176
0.310042
0.00908923
-0.00600505
-0.1861
0.183016
0.00349493
-0.00138994
-0.077029
0.074924
0.000297697
-0.00975013
0.00945243
-0.0796542