/*--------------------------------*- C++ -*----------------------------------*\
  =========                 |
  \\      /  F ield         | OpenFOAM: The Open Source CFD Toolbox
   \\    /   O peration     | Website:  https://openfoam.org
    \\  /    A nd           | Version:  10
     \\/     M anipulation  |
\*---------------------------------------------------------------------------*/
FoamFile
{
    format      ascii;
    class       volVectorField;
    location    "26";
    object      U;
}
// * * * * * * * * * * * * * * * * * * * * * * * * * * * * * * * * * * * * * //

dimensions      [0 1 -1 0 0 0 0];

internalField   nonuniform List<vector> 
8800
(
(0.980149 -0.091521 0)
(1.00234 -0.0587254 0)
(0.999612 -0.0321249 0)
(1 -0.0165129 0)
(1.00005 -0.00882226 0)
(1.00003 -0.00506641 0)
(1.00001 -0.00296868 0)
(1 -0.00168574 0)
(1 -0.000811781 0)
(1.00005 -0.000125049 0)
(1 0.000566754 0)
(1 0.00132296 0)
(1 0.00235299 0)
(1.00002 0.00396356 0)
(1.00004 0.00671726 0)
(1.00005 0.0120286 0)
(0.999886 0.023086 0)
(0.999079 0.0431549 0)
(1.00722 0.0790297 0)
(0.775023 0.0478397 0)
(0.358985 -0.0147485 0)
(1.0465 -0.0724877 0)
(1.08849 -0.0660247 0)
(1.04946 -0.0509162 0)
(1.02553 -0.0376955 0)
(1.01267 -0.0258799 0)
(1.0065 -0.0166875 0)
(1.00359 -0.0102358 0)
(1.00216 -0.00565537 0)
(1.00152 -0.00210505 0)
(1.0014 0.00106784 0)
(1.00175 0.00436341 0)
(1.00272 0.00826076 0)
(1.00475 0.0135883 0)
(1.00898 0.0212818 0)
(1.01799 0.0317961 0)
(1.03589 0.0445883 0)
(1.06751 0.0580506 0)
(1.09475 0.0699611 0)
(0.84573 0.0554935 0)
(0.21778 -0.00138005 0)
(1.07568 -0.0506455 0)
(1.09944 -0.0489302 0)
(1.06439 -0.0400119 0)
(1.03984 -0.0325439 0)
(1.02368 -0.0253306 0)
(1.0139 -0.0181444 0)
(1.00844 -0.0115873 0)
(1.00562 -0.00590307 0)
(1.00448 -0.000692118 0)
(1.00481 0.00435502 0)
(1.00666 0.00962691 0)
(1.01056 0.015616 0)
(1.01789 0.0224006 0)
(1.03055 0.0295258 0)
(1.05061 0.0366422 0)
(1.08023 0.0444562 0)
(1.10585 0.0518133 0)
(0.94352 0.0409485 0)
(0.217354 0.00139707 0)
(0.176652 -0.00062772 0)
(1.01942 -0.0354406 0)
(1.10571 -0.0413862 0)
(1.07792 -0.0363829 0)
(1.05232 -0.0303538 0)
(1.03505 -0.0244888 0)
(1.02322 -0.0187313 0)
(1.01543 -0.0128153 0)
(1.01085 -0.00682731 0)
(1.00885 -0.000691221 0)
(1.00942 0.00539573 0)
(1.01254 0.0112805 0)
(1.01851 0.0170639 0)
(1.02811 0.0226887 0)
(1.04234 0.02828 0)
(1.06324 0.0340883 0)
(1.09411 0.0399984 0)
(1.09477 0.0415773 0)
(0.830797 0.0226841 0)
(0.175931 0.000641583 0)
(0.154779 -0.000460562 0)
(0.958285 -0.0256297 0)
(1.10442 -0.0350241 0)
(1.08801 -0.0325508 0)
(1.06107 -0.0280183 0)
(1.04295 -0.0230838 0)
(1.03057 -0.0178991 0)
(1.02202 -0.0125155 0)
(1.01652 -0.00676197 0)
(1.01393 -0.000454739 0)
(1.01463 0.00589519 0)
(1.01847 0.0117062 0)
(1.02527 0.0169963 0)
(1.03543 0.0219928 0)
(1.05024 0.0268328 0)
(1.07229 0.0313416 0)
(1.10143 0.0353153 0)
(1.07038 0.0336424 0)
(0.743704 0.0143102 0)
(0.153703 0.000476258 0)
(0.140162 -0.000332195 0)
(0.901443 -0.0191995 0)
(1.09683 -0.030051 0)
(1.09611 -0.0292117 0)
(1.06869 -0.0254923 0)
(1.04973 -0.0214518 0)
(1.03673 -0.0168444 0)
(1.02779 -0.011739 0)
(1.0219 -0.00619945 0)
(1.01898 -6.68178e-05 0)
(1.0197 0.00610987 0)
(1.02382 0.0116614 0)
(1.03089 0.0166492 0)
(1.04146 0.021188 0)
(1.05697 0.0251991 0)
(1.07992 0.028742 0)
(1.10393 0.0314883 0)
(1.03915 0.0276296 0)
(0.677735 0.0100969 0)
(0.138653 0.000350885 0)
(0.129553 -0.00024868 0)
(0.852012 -0.0147082 0)
(1.08453 -0.0257564 0)
(1.1016 -0.0260638 0)
(1.07531 -0.0227796 0)
(1.0559 -0.0192431 0)
(1.04247 -0.0152719 0)
(1.03309 -0.0106772 0)
(1.0269 -0.0054621 0)
(1.0238 0.000428831 0)
(1.02445 0.00634746 0)
(1.02864 0.0115539 0)
(1.03597 0.0160443 0)
(1.04689 0.0198803 0)
(1.06276 0.0232056 0)
(1.08609 0.0262739 0)
(1.1034 0.0282214 0)
(1.00544 0.0228357 0)
(0.626968 0.00760756 0)
(0.127516 0.000271547 0)
(0.121558 -0.000189041 0)
(0.81027 -0.0113768 0)
(1.06949 -0.0219322 0)
(1.10514 -0.0232011 0)
(1.08138 -0.0203724 0)
(1.06136 -0.0170778 0)
(1.04761 -0.0134726 0)
(1.03797 -0.00930754 0)
(1.0315 -0.00446514 0)
(1.02818 0.00105396 0)
(1.02873 0.00654711 0)
(1.03295 0.0112936 0)
(1.0404 0.0152541 0)
(1.05148 0.0185812 0)
(1.06774 0.0215219 0)
(1.09164 0.0243058 0)
(1.10035 0.0253885 0)
(0.971865 0.0189249 0)
(0.587015 0.00592301 0)
(0.118882 0.000217218 0)
(0.115505 -0.00014255 0)
(0.775717 -0.00880178 0)
(1.05299 -0.0183927 0)
(1.1072 -0.0204209 0)
(1.08688 -0.0181452 0)
(1.0665 -0.0151411 0)
(1.05251 -0.0117283 0)
(1.04269 -0.00778497 0)
(1.03602 -0.00329821 0)
(1.03245 0.00179542 0)
(1.03286 0.00684615 0)
(1.03704 0.0110723 0)
(1.04447 0.0146001 0)
(1.05561 0.017588 0)
(1.07214 0.0201771 0)
(1.09575 0.0224945 0)
(1.09457 0.0227291 0)
(0.939963 0.0156952 0)
(0.555104 0.0047006 0)
(0.112051 0.000177216 0)
(0.110957 -0.000105257 0)
(0.747652 -0.00669635 0)
(1.03654 -0.0150645 0)
(1.10827 -0.017461 0)
(1.09182 -0.0154817 0)
(1.07126 -0.0126983 0)
(1.05703 -0.00962621 0)
(1.04698 -0.00605654 0)
(1.04008 -0.00194748 0)
(1.03629 0.00272243 0)
(1.03649 0.00727821 0)
(1.04054 0.0109687 0)
(1.04795 0.0139183 0)
(1.05918 0.0163708 0)
(1.07586 0.0185213 0)
(1.09857 0.0204823 0)
(1.08686 0.0201174 0)
(0.910746 0.0129751 0)
(0.529394 0.00375765 0)
(0.106553 0.000147971 0)
(0.107667 -7.2841e-05 0)
(0.725445 -0.00490485 0)
(1.02102 -0.0119346 0)
(1.10866 -0.0145474 0)
(1.09657 -0.0128801 0)
(1.07557 -0.0103202 0)
(1.06096 -0.00756763 0)
(1.05077 -0.00427515 0)
(1.04378 -0.000444613 0)
(1.03984 0.00381636 0)
(1.03972 0.00783709 0)
(1.04345 0.0110317 0)
(1.05063 0.0134747 0)
(1.06185 0.0153787 0)
(1.079 0.0170854 0)
(1.10032 0.0186627 0)
(1.0779 0.0176962 0)
(0.884587 0.0106716 0)
(0.508667 0.00301328 0)
(0.102098 0.000126278 0)
(0.105446 -4.61911e-05 0)
(0.708705 -0.00328209 0)
(1.0071 -0.00883427 0)
(1.10809 -0.0115405 0)
(1.10065 -0.0104203 0)
(1.07955 -0.00813093 0)
(1.06477 -0.00543329 0)
(1.05438 -0.00226187 0)
(1.04706 0.00127583 0)
(1.04271 0.00513621 0)
(1.04232 0.0086879 0)
(1.04586 0.011346 0)
(1.05293 0.0133449 0)
(1.06407 0.0149253 0)
(1.08134 0.016194 0)
(1.10066 0.0170351 0)
(1.06778 0.0152745 0)
(0.861739 0.00861299 0)
(0.492112 0.00239318 0)
(0.0984376 0.000112815 0)
(0.104258 -1.12574e-05 0)
(0.697301 -0.00172444 0)
(0.995605 -0.00570672 0)
(1.10674 -0.00810299 0)
(1.10397 -0.00725958 0)
(1.08342 -0.00524932 0)
(1.0685 -0.00282453 0)
(1.05792 9.45766e-05 0)
(1.05045 0.00332075 0)
(1.04583 0.00675893 0)
(1.04495 0.00977672 0)
(1.04801 0.011792 0)
(1.05475 0.013099 0)
(1.06576 0.0139612 0)
(1.08281 0.0147218 0)
(1.09966 0.0150607 0)
(1.05714 0.012822 0)
(0.842447 0.00677615 0)
(0.479258 0.00184785 0)
(0.0954713 9.63639e-05 0)
(0.104123 2.06875e-05 0)
(0.690759 -0.000342571 0)
(0.986973 -0.0028561 0)
(1.10552 -0.00475958 0)
(1.10683 -0.00396362 0)
(1.0866 -0.00218269 0)
(1.07148 -2.73803e-05 0)
(1.06067 0.00260534 0)
(1.05283 0.00556884 0)
(1.04776 0.00871278 0)
(1.04635 0.0112888 0)
(1.04896 0.0127837 0)
(1.05539 0.0134944 0)
(1.06624 0.0137381 0)
(1.08314 0.0136957 0)
(1.09777 0.0134519 0)
(1.04657 0.0108386 0)
(0.826333 0.00535096 0)
(0.469438 0.0014556 0)
(0.0931398 7.85256e-05 0)
(0.104896 5.51753e-05 0)
(0.688332 0.000649364 0)
(0.981024 -0.000559955 0)
(1.10443 -0.00205027 0)
(1.10947 -0.00146368 0)
(1.08974 0.000149778 0)
(1.07459 0.00236015 0)
(1.0638 0.0050592 0)
(1.05581 0.00810242 0)
(1.05025 0.0111298 0)
(1.04817 0.0133593 0)
(1.05006 0.0144871 0)
(1.05573 0.0147502 0)
(1.06603 0.0144437 0)
(1.08259 0.0139753 0)
(1.09462 0.0130493 0)
(1.03573 0.00973708 0)
(0.812674 0.0046758 0)
(0.461413 0.0013463 0)
(0.0911843 7.20303e-05 0)
(0.106294 7.35376e-05 0)
(0.688991 0.00131487 0)
(0.977816 0.00125725 0)
(1.10345 0.000404927 0)
(1.11175 0.000920807 0)
(1.09279 0.00249824 0)
(1.07772 0.00495595 0)
(1.06679 0.00795836 0)
(1.05836 0.011145 0)
(1.05205 0.0141172 0)
(1.04917 0.0160714 0)
(1.05025 0.0166824 0)
(1.05529 0.0164222 0)
(1.06501 0.0157 0)
(1.08104 0.0148209 0)
(1.09001 0.0131744 0)
(1.02467 0.00944172 0)
(0.800499 0.00473449 0)
(0.453675 0.00147106 0)
(0.0892068 7.86391e-05 0)
(0.108243 9.69357e-05 0)
(0.691995 0.0019098 0)
(0.977629 0.00278146 0)
(1.10351 0.00296452 0)
(1.11415 0.00390561 0)
(1.09625 0.0058222 0)
(1.08135 0.00868322 0)
(1.07015 0.0119015 0)
(1.06113 0.0150837 0)
(1.05395 0.0178244 0)
(1.04999 0.0192909 0)
(1.05012 0.0192913 0)
(1.05433 0.0184743 0)
(1.06341 0.0172559 0)
(1.07862 0.01581 0)
(1.08458 0.0137542 0)
(1.01391 0.00995265 0)
(0.788578 0.00532906 0)
(0.445129 0.00172368 0)
(0.0869298 9.43579e-05 0)
(0.110785 0.000122745 0)
(0.697058 0.00256107 0)
(0.979929 0.00408683 0)
(1.10584 0.0052681 0)
(1.11783 0.00717918 0)
(1.1004 0.00980746 0)
(1.08526 0.0130921 0)
(1.07351 0.0165537 0)
(1.06369 0.0198138 0)
(1.05545 0.022392 0)
(1.05021 0.023356 0)
(1.04928 0.0226829 0)
(1.0527 0.0212174 0)
(1.06103 0.0194545 0)
(1.0754 0.0175866 0)
(1.07883 0.015315 0)
(1.0032 0.0113926 0)
(0.77548 0.00624088 0)
(0.435182 0.00204443 0)
(0.0842001 0.000116912 0)
(0.114038 0.000154413 0)
(0.704179 0.00344781 0)
(0.984124 0.00563011 0)
(1.11011 0.00732232 0)
(1.12323 0.0098647 0)
(1.10551 0.0132284 0)
(1.08972 0.0172278 0)
(1.07718 0.0212755 0)
(1.06637 0.0250945 0)
(1.05677 0.0279894 0)
(1.04996 0.0288683 0)
(1.04768 0.0277832 0)
(1.05022 0.0255327 0)
(1.05814 0.0231303 0)
(1.07175 0.0209269 0)
(1.07264 0.0183844 0)
(0.990824 0.0134877 0)
(0.760157 0.00721825 0)
(0.423625 0.00239769 0)
(0.0809126 0.000143314 0)
(0.118281 0.000201315 0)
(0.71413 0.00470275 0)
(0.989658 0.00782735 0)
(1.11513 0.00962375 0)
(1.12947 0.0122381 0)
(1.11176 0.0161251 0)
(1.0952 0.0209568 0)
(1.0818 0.0260877 0)
(1.0698 0.0310587 0)
(1.05847 0.0348985 0)
(1.04979 0.0363021 0)
(1.04587 0.0353324 0)
(1.04694 0.032978 0)
(1.05403 0.0299266 0)
(1.06726 0.026654 0)
(1.06414 0.0225968 0)
(0.974851 0.0157273 0)
(0.742535 0.00822937 0)
(0.410394 0.00279841 0)
(0.0770252 0.000170929 0)
(0.123879 0.000272655 0)
(0.728104 0.00645857 0)
(0.997283 0.0110292 0)
(1.12011 0.0131843 0)
(1.13589 0.0155674 0)
(1.11891 0.0198022 0)
(1.10209 0.0256116 0)
(1.08783 0.0321865 0)
(1.07427 0.038537 0)
(1.06081 0.04347 0)
(1.04991 0.0454066 0)
(1.04402 0.0444974 0)
(1.04335 0.0419086 0)
(1.04875 0.0382487 0)
(1.05959 0.0335315 0)
(1.05071 0.0268269 0)
(0.955075 0.0178543 0)
(0.722933 0.00945286 0)
(0.395223 0.00328792 0)
(0.0724541 0.000200817 0)
(0.13143 0.000383812 0)
(0.747562 0.00888686 0)
(1.00882 0.0155063 0)
(1.12576 0.0188677 0)
(1.14241 0.0213868 0)
(1.127 0.0262368 0)
(1.11064 0.0332804 0)
(1.0953 0.0412058 0)
(1.07969 0.0486365 0)
(1.06357 0.0541237 0)
(1.04998 0.0558889 0)
(1.0418 0.0543255 0)
(1.03894 0.0507665 0)
(1.0418 0.0459147 0)
(1.048 0.0392897 0)
(1.03265 0.0303743 0)
(0.932956 0.0201661 0)
(0.701413 0.0110567 0)
(0.377667 0.0038872 0)
(0.0671213 0.000230464 0)
(0.14171 0.000547875 0)
(0.773885 0.0122262 0)
(1.02629 0.0214384 0)
(1.13439 0.0268369 0)
(1.15013 0.0306877 0)
(1.13697 0.0371831 0)
(1.12075 0.0455104 0)
(1.10378 0.0543554 0)
(1.08547 0.0621737 0)
(1.06606 0.0672671 0)
(1.04924 0.0678433 0)
(1.03829 0.064655 0)
(1.0328 0.0592697 0)
(1.03223 0.0525072 0)
(1.03311 0.0441151 0)
(1.01227 0.0340232 0)
(0.90964 0.0232727 0)
(0.677236 0.0131637 0)
(0.356967 0.00463811 0)
(0.0608703 0.000266947 0)
(0.15598 0.000817805 0)
(0.809023 0.0171745 0)
(1.05171 0.0296024 0)
(1.14881 0.0378432 0)
(1.16173 0.0446001 0)
(1.14913 0.0531558 0)
(1.13203 0.0627864 0)
(1.11257 0.0721129 0)
(1.09084 0.0795592 0)
(1.06749 0.0832694 0)
(1.04691 0.0816333 0)
(1.03271 0.0759765 0)
(1.02421 0.0682507 0)
(1.01995 0.0593599 0)
(1.01621 0.0496018 0)
(0.990939 0.0389736 0)
(0.884634 0.0275927 0)
(0.649055 0.0158601 0)
(0.332374 0.00551031 0)
(0.0536156 0.000301925 0)
(0.176428 0.00129221 0)
(0.856083 0.0249679 0)
(1.08734 0.0414951 0)
(1.1706 0.053044 0)
(1.17858 0.0634361 0)
(1.16391 0.0744982 0)
(1.14417 0.0854069 0)
(1.12104 0.0947695 0)
(1.09503 0.101084 0)
(1.06712 0.102509 0)
(1.04232 0.0978675 0)
(1.02462 0.0892637 0)
(1.01291 0.0789878 0)
(1.00526 0.0680968 0)
(0.997876 0.0571822 0)
(0.968505 0.0459411 0)
(0.856514 0.033279 0)
(0.615552 0.0192089 0)
(0.303324 0.00653189 0)
(0.0453137 0.000335335 0)
(0.206394 0.00235552 0)
(0.920447 0.0384676 0)
(1.13529 0.0609186 0)
(1.20023 0.0754204 0)
(1.20076 0.0898485 0)
(1.18111 0.102967 0)
(1.15662 0.1144 0)
(1.12848 0.122878 0)
(1.09736 0.127079 0)
(1.06437 0.125313 0)
(1.03513 0.117058 0)
(1.01385 0.105242 0)
(0.999 0.0923695 0)
(0.988393 0.0795809 0)
(0.977937 0.0674605 0)
(0.943887 0.0552128 0)
(0.823444 0.0404031 0)
(0.575635 0.0231968 0)
(0.270032 0.00770831 0)
(0.0362264 0.000357129 0)
(0.247579 0.00876278 -6.24388e-21)
(1.00587 0.0658936 -4.37447e-21)
(1.19236 0.0938746 9.12961e-22)
(1.23606 0.110802 0)
(1.22562 0.12762 -3.63049e-35)
(1.19884 0.140864 6.79366e-22)
(1.16805 0.151163 -2.12699e-21)
(1.13394 0.157532 0)
(1.09709 0.158757 6.3474e-35)
(1.05851 0.153238 -4.50627e-21)
(1.02441 0.14113 0)
(0.999158 0.126095 -6.1653e-21)
(0.980902 0.110751 -1.87043e-20)
(0.967255 0.0962671 -9.00231e-21)
(0.953636 0.0831676 -2.80543e-21)
(0.914016 0.0700668 -1.689e-21)
(0.781252 0.0520537 0)
(0.525513 0.0299809 1.2018e-21)
(0.232523 0.0108044 1.42198e-21)
(0.0280285 0.000982509 2.53038e-20)
(0.27508 0.0246541 -1.72793e-20)
(1.07586 0.109348 5.07232e-22)
(1.23991 0.141705 -7.98694e-22)
(1.26889 0.160069 0)
(1.24823 0.175546 -1.05793e-22)
(1.21432 0.187304 -1.24955e-21)
(1.17694 0.19575 -1.73338e-21)
(1.13649 0.199846 -9.15635e-21)
(1.09343 0.198286 0)
(1.04844 0.189432 1.91859e-20)
(1.00828 0.1739 2.06346e-20)
(0.977881 0.156099 6.51732e-21)
(0.95518 0.138619 2.52531e-20)
(0.937516 0.122391 3.67637e-20)
(0.919036 0.107736 0)
(0.872779 0.0927417 5.39731e-20)
(0.730412 0.070782 7.82629e-20)
(0.47489 0.0428003 8.71469e-20)
(0.201826 0.0172484 -1.00207e-19)
(0.0219575 0.00190209 -1.86188e-21)
(0.274025 0.0401275 0)
(1.11888 0.165861 -5.85817e-21)
(1.27364 0.201396 0)
(1.29429 0.219093 7.87958e-21)
(1.26597 0.231176 0)
(1.22585 0.239681 7.67408e-22)
(1.18238 0.244923 2.8529e-21)
(1.13593 0.245797 -1.55e-20)
(1.08691 0.240841 -1.57141e-21)
(1.03593 0.22841 9.50227e-21)
(0.990193 0.209652 4.76059e-20)
(0.95516 0.189481 -3.07284e-22)
(0.928622 0.170434 -1.88774e-20)
(0.90761 0.153181 -3.6158e-20)
(0.886038 0.137575 4.35982e-20)
(0.837843 0.121087 -7.81542e-20)
(0.701052 0.0950305 -1.05734e-20)
(0.460515 0.0608739 0)
(0.20593 0.027059 4.51418e-23)
(0.0249575 0.00351213 0)
(0.266581 0.0537014 -1.53383e-19)
(1.14073 0.225372 6.28512e-20)
(1.29504 0.266015 3.27742e-20)
(1.31098 0.282763 -5.65752e-21)
(1.27738 0.291081 8.43773e-21)
(1.23249 0.295691 -3.2122e-21)
(1.18404 0.297106 5.22563e-21)
(1.13244 0.294201 0)
(1.07812 0.285502 -4.03524e-20)
(1.02171 0.269313 0)
(0.97105 0.247369 -2.4545e-20)
(0.932058 0.224985 -3.34866e-20)
(0.902385 0.204617 -2.11159e-20)
(0.87887 0.186545 -2.68902e-20)
(0.8555 0.170213 0)
(0.808642 0.152616 0)
(0.683899 0.123611 -7.10813e-20)
(0.463535 0.0838744 1.41237e-20)
(0.220427 0.0402134 -8.2274e-21)
(0.0307813 0.00598159 -9.61304e-21)
(0.258708 0.0658404 1.16876e-19)
(1.14918 0.284574 0)
(1.30697 0.331562 -9.46885e-20)
(1.32001 0.347682 -2.25001e-20)
(1.28268 0.352404 -1.48428e-20)
(1.23425 0.35311 0)
(1.18187 0.35063 1.96666e-21)
(1.12602 0.343842 1.54981e-20)
(1.06722 0.331262 1.87429e-20)
(1.0061 0.311258 4.75109e-20)
(0.951202 0.286097 0)
(0.908989 0.261537 -7.30948e-20)
(0.876907 0.239833 -4.62012e-20)
(0.851534 0.221057 -2.77648e-20)
(0.827162 0.204325 1.79629e-19)
(0.782707 0.185753 2.19594e-20)
(0.670666 0.154705 1.04233e-19)
(0.469453 0.108836 -4.99372e-19)
(0.234434 0.0551473 2.96902e-19)
(0.0362321 0.00892426 -3.57844e-19)
(0.251595 0.0768372 1.25727e-19)
(1.14918 0.341609 -2.30663e-20)
(1.31206 0.396757 1.71639e-20)
(1.32296 0.412086 4.49975e-20)
(1.2829 0.413432 2.5601e-20)
(1.23173 0.410424 1.69987e-21)
(1.17624 0.404207 -2.67808e-21)
(1.11692 0.393636 1.39609e-20)
(1.05433 0.377245 -4.10313e-20)
(0.989239 0.353415 0)
(0.930776 0.324998 -3.17828e-20)
(0.885938 0.298189 -1.55908e-21)
(0.852061 0.275084 -5.15972e-20)
(0.825449 0.255571 0)
(0.80066 0.238446 -3.92492e-20)
(0.758845 0.219167 -9.52447e-20)
(0.657443 0.186433 2.61061e-19)
(0.47108 0.134235 -2.58755e-19)
(0.242723 0.0700653 3.68145e-19)
(0.0399516 0.0118561 -3.82646e-19)
(0.245853 0.0870755 -4.13013e-22)
(1.14409 0.395882 2.88853e-20)
(1.31185 0.459867 8.3612e-20)
(1.32118 0.474788 -2.83726e-20)
(1.27911 0.47313 1.49143e-20)
(1.2258 0.466714 0)
(1.16778 0.456996 3.14958e-21)
(1.10556 0.442836 -1.31222e-20)
(1.03975 0.422773 -1.97487e-20)
(0.971229 0.395183 0)
(0.909767 0.363439 -3.16053e-20)
(0.862819 0.334222 -4.31553e-20)
(0.827606 0.309502 5.64741e-20)
(0.800287 0.289014 -3.57873e-20)
(0.77562 0.271326 -1.73072e-19)
(0.736317 0.251362 1.05902e-19)
(0.642779 0.216675 3.29614e-20)
(0.467083 0.15789 0)
(0.243959 0.0831754 -3.56944e-19)
(0.0413159 0.0142619 -1.31355e-20)
(0.241443 0.0968624 2.10685e-20)
(1.13602 0.447228 -3.3593e-20)
(1.30776 0.52038 -4.59521e-20)
(1.31586 0.535149 -8.66491e-20)
(1.27222 0.530856 7.49646e-20)
(1.21722 0.521387 -3.4738e-20)
(1.15713 0.50845 -6.33615e-21)
(1.09246 0.490946 -2.03484e-20)
(1.02385 0.4674 1.66658e-20)
(0.952261 0.436139 -1.17012e-19)
(0.888171 0.401001 -3.81538e-20)
(0.839514 0.369182 0)
(0.803295 0.342592 6.17292e-20)
(0.775623 0.320757 7.58925e-20)
(0.75133 0.302034 9.30021e-20)
(0.714189 0.281026 -1.15514e-19)
(0.62641 0.243775 -3.46375e-20)
(0.458067 0.178068 4.08928e-20)
(0.240326 0.0936083 0)
(0.0409768 0.0160052 -2.86148e-20)
(0.238183 0.106334 -2.47399e-19)
(1.12643 0.495773 1.55181e-19)
(1.30094 0.578017 5.08542e-20)
(1.30795 0.592845 -6.70526e-20)
(1.26303 0.586262 4.60624e-20)
(1.20665 0.574062 -3.95706e-21)
(1.14484 0.558221 4.99549e-21)
(1.07806 0.537653 -7.87873e-21)
(1.00695 0.510846 -3.51855e-20)
(0.932601 0.476047 2.05369e-22)
(0.866053 0.437482 -1.15287e-19)
(0.815876 0.402818 1.08841e-19)
(0.778952 0.374067 -6.89395e-20)
(0.751106 0.350619 8.52083e-20)
(0.727211 0.330572 0)
(0.691716 0.307967 -6.26986e-20)
(0.607979 0.267703 -1.04528e-21)
(0.444755 0.195118 -1.78815e-19)
(0.232489 0.101443 -2.6346e-20)
(0.0393415 0.0170927 0)
(0.235896 0.115606 0)
(1.11613 0.541731 1.69124e-19)
(1.29217 0.632702 1.20061e-19)
(1.29816 0.647728 7.64323e-20)
(1.25215 0.639141 4.32348e-20)
(1.19466 0.624525 0)
(1.1314 0.606086 1.04128e-20)
(1.06277 0.582747 -1.1907e-21)
(0.989413 0.552942 7.51153e-20)
(0.912459 0.514789 -1.48552e-20)
(0.843602 0.472783 -8.42521e-20)
(0.791946 0.435119 5.4966e-20)
(0.754351 0.403876 -1.99144e-21)
(0.726385 0.378444 8.98949e-20)
(0.702904 0.356767 5.81546e-20)
(0.668689 0.332233 -1.36277e-19)
(0.587541 0.288149 1.64075e-19)
(0.427875 0.20859 4.88061e-20)
(0.221229 0.10668 2.01344e-19)
(0.0366309 0.0174519 -5.39201e-19)
(0.234507 0.124783 -6.44065e-20)
(1.10573 0.585296 9.84488e-20)
(1.28222 0.684458 -7.62649e-20)
(1.28702 0.699793 -8.99613e-20)
(1.24012 0.689405 0)
(1.18169 0.672651 3.42367e-20)
(1.11719 0.651915 -2.75228e-20)
(1.04694 0.626102 1.2807e-20)
(0.97151 0.593583 0)
(0.892074 0.552297 -2.2553e-19)
(0.820881 0.506909 2.29358e-19)
(0.767654 0.466088 0)
(0.729276 0.432127 8.13593e-20)
(0.701218 0.404396 -1.98793e-21)
(0.678096 0.38074 -1.84195e-19)
(0.644702 0.353817 7.24202e-20)
(0.56502 0.305283 0)
(0.408132 0.218529 2.6434e-19)
(0.207442 0.109466 0)
(0.0332397 0.0172546 -2.56399e-19)
(0.233795 0.133929 7.21924e-20)
(1.09554 0.626635 1.13286e-19)
(1.27139 0.733349 -7.98169e-20)
(1.275 0.749022 0)
(1.22734 0.737038 6.20295e-20)
(1.16813 0.718407 0)
(1.10257 0.695642 4.18213e-20)
(1.03086 0.667648 6.24945e-22)
(0.953503 0.632716 1.00548e-20)
(0.871612 0.588565 -1.11491e-19)
(0.797938 0.5399 2.26112e-20)
(0.743013 0.495846 0)
(0.703766 0.458893 -1.73148e-19)
(0.675492 0.42859 2.04672e-21)
(0.652615 0.402665 0)
(0.619597 0.37292 2.37381e-21)
(0.540363 0.319253 2.40857e-19)
(0.385649 0.224978 -2.30421e-19)
(0.191626 0.109827 6.80099e-20)
(0.0293613 0.016466 0)
(0.233442 0.142885 0)
(1.08582 0.665818 1.2739e-19)
(1.26004 0.779511 9.45736e-20)
(1.26245 0.795469 -2.25004e-21)
(1.21414 0.782064 4.00307e-20)
(1.15428 0.761788 8.11924e-20)
(1.0878 0.737248 -1.25259e-20)
(1.01477 0.707353 -4.51324e-21)
(0.9356 0.670312 5.16035e-20)
(0.851248 0.623608 -1.75234e-19)
(0.774981 0.571864 -3.25903e-21)
(0.718098 0.524527 -7.19165e-20)
(0.677734 0.484394 2.83085e-19)
(0.649111 0.451262 -2.4246e-21)
(0.626348 0.42274 -1.44526e-19)
(0.593266 0.389646 -2.63086e-19)
(0.513644 0.330133 0)
(0.360743 0.228099 0)
(0.174081 0.107737 7.41689e-20)
(0.0251919 0.0151261 -4.34404e-20)
(0.233651 0.15179 9.06298e-20)
(1.07654 0.702747 -2.80109e-19)
(1.24845 0.823043 -1.01409e-19)
(1.24966 0.839213 0)
(1.20078 0.824541 -1.54548e-21)
(1.14038 0.80282 1.00382e-19)
(1.07311 0.776742 -4.7927e-20)
(0.998902 0.745214 -8.1894e-22)
(0.918008 0.706379 5.99363e-20)
(0.831221 0.657469 -1.37518e-19)
(0.752177 0.602906 -1.94892e-19)
(0.692995 0.552327 1.91887e-19)
(0.651174 0.508832 0)
(0.622011 0.472557 -6.50969e-20)
(0.599211 0.441081 -1.58137e-19)
(0.565649 0.40405 -1.90128e-19)
(0.484839 0.337796 -2.29385e-19)
(0.33359 0.227772 6.83051e-20)
(0.154979 0.103117 -4.00872e-20)
(0.0207012 0.0132381 3.6038e-22)
(0.233861 0.160552 0)
(1.06791 0.737818 0)
(1.23679 0.864009 2.564e-21)
(1.23681 0.880344 0)
(1.18746 0.86455 -1.5253e-19)
(1.12661 0.841561 -9.05734e-20)
(1.05867 0.814151 0)
(0.983415 0.781247 -3.5953e-21)
(0.900918 0.740927 8.86873e-20)
(0.811708 0.69018 -3.16081e-19)
(0.729668 0.633129 0)
(0.667807 0.579437 -1.23072e-19)
(0.624144 0.532445 -2.96685e-21)
(0.594124 0.492688 -2.43724e-21)
(0.57111 0.457784 1.68696e-19)
(0.536685 0.416071 -4.21811e-22)
(0.454008 0.342156 -4.96892e-19)
(0.304191 0.22381 1.48135e-19)
(0.134674 0.0960833 4.38838e-20)
(0.0161047 0.0109432 0)
(0.234083 0.169087 -3.35489e-19)
(1.05964 0.771166 -1.73188e-19)
(1.22518 0.902515 -2.56682e-19)
(1.22407 0.918963 3.51836e-19)
(1.17432 0.902157 -2.88108e-19)
(1.11312 0.878068 0)
(1.04463 0.84952 -4.44651e-20)
(0.968452 0.815474 5.56727e-21)
(0.884459 0.773967 3.79086e-21)
(0.792852 0.721768 2.44428e-20)
(0.707642 0.662629 2.4646e-19)
(0.642704 0.606057 -4.23504e-20)
(0.596668 0.55551 -1.74596e-19)
(0.565348 0.511864 -7.69516e-20)
(0.541883 0.472877 9.3417e-20)
(0.506293 0.425527 -3.00928e-22)
(0.421398 0.342957 1.35499e-19)
(0.273013 0.216157 -3.20541e-19)
(0.113854 0.086958 3.80388e-19)
(0.0116049 0.00837038 5.52465e-20)
(0.234173 0.177305 1.23686e-19)
(1.05174 0.802846 -9.50905e-20)
(1.21375 0.938683 6.05106e-21)
(1.21154 0.955194 2.00093e-19)
(1.16148 0.937467 6.81901e-20)
(1.10002 0.912412 1.82378e-19)
(1.0311 0.882896 -2.11207e-20)
(0.95411 0.847915 3.10196e-20)
(0.868739 0.805499 -7.82736e-20)
(0.774796 0.752236 -1.77748e-19)
(0.686288 0.691473 0)
(0.617861 0.632371 -1.89496e-19)
(0.568852 0.578315 2.53048e-19)
(0.535559 0.530385 0)
(0.511234 0.486381 -1.99906e-19)
(0.47428 0.432029 1.22758e-19)
(0.387184 0.339668 -1.46177e-19)
(0.241109 0.204799 -1.74357e-19)
(0.0934686 0.0762342 -3.08391e-19)
(0.00744962 0.00570888 -2.40525e-19)
(0.234507 0.185302 -1.3629e-19)
(1.04405 0.832838 1.01667e-19)
(1.20254 0.972591 2.41512e-19)
(1.19931 0.989122 2.75986e-19)
(1.14903 0.970569 -1.42319e-19)
(1.08739 0.944673 1.2749e-19)
(1.01813 0.914329 -6.50675e-20)
(0.94046 0.878613 4.45087e-20)
(0.853837 0.835544 -4.09667e-20)
(0.757664 0.781593 1.75502e-19)
(0.665767 0.719701 5.28709e-19)
(0.593488 0.658516 0)
(0.540833 0.601173 0)
(0.504625 0.548686 -8.89358e-20)
(0.478639 0.498416 0)
(0.44011 0.434886 2.6638e-19)
(0.351587 0.331152 3.17764e-19)
(0.209888 0.189306 0)
(0.0749249 0.0644171 0)
(0.00391536 0.00322779 2.60487e-19)
(0.234499 0.192823 1.50887e-19)
(1.03662 0.86115 1.22988e-19)
(1.19163 1.00436 1.73771e-19)
(1.18744 1.02087 -2.4757e-19)
(1.13702 1.00156 -1.59543e-19)
(1.07527 0.974927 -1.70897e-19)
(1.00578 0.943882 9.74191e-20)
(0.927555 0.907597 2.7986e-22)
(0.839821 0.864109 -4.8858e-21)
(0.741537 0.809828 -5.80887e-21)
(0.646251 0.747325 2.69192e-19)
(0.569816 0.684582 0)
(0.512861 0.624374 2.55863e-19)
(0.472513 0.567334 1.88206e-19)
(0.443339 0.509425 4.74405e-19)
(0.402522 0.433403 1.43766e-19)
(0.314383 0.315186 -1.73796e-19)
(0.18201 0.167678 -1.01843e-19)
(0.0624963 0.0515098 0)
(0.00236338 0.00155176 2.81788e-19)
(0.234735 0.200287 -3.32469e-19)
(1.02942 0.887882 0)
(1.18101 1.03405 1.95001e-19)
(1.17596 1.05053 -2.0333e-19)
(1.12548 1.03054 1.81906e-19)
(1.0637 1.00326 2.52105e-19)
(0.994092 0.971611 -2.30397e-19)
(0.915421 0.934906 1.02318e-22)
(0.826719 0.891201 0)
(0.726483 0.836903 -1.74792e-19)
(0.627884 0.774317 -5.65975e-19)
(0.547082 0.710614 2.63829e-20)
(0.485296 0.648125 3.49396e-19)
(0.439411 0.587004 0)
(0.404546 0.520389 3.20802e-19)
(0.359197 0.427785 0)
(0.27256 0.288613 0)
(0.159135 0.130903 -1.1233e-19)
(0.0731487 0.0263762 0)
(0.0255775 0.0104319 7.58884e-20)
(0.234597 0.207118 -3.647e-19)
(1.0224 0.913358 0)
(1.17068 1.06188 3.16399e-19)
(1.16484 1.07832 0)
(1.1144 1.05775 -9.92341e-20)
(1.05262 1.02994 0)
(0.982989 0.997824 -1.78446e-20)
(0.903961 0.960874 -8.80958e-21)
(0.814415 0.917182 4.15556e-21)
(0.712357 0.863207 -1.79694e-19)
(0.610534 0.801097 1.54436e-20)
(0.52517 0.737167 2.16757e-19)
(0.457971 0.673003 3.39079e-19)
(0.404958 0.608754 4.78303e-20)
(0.360826 0.533239 2.51866e-19)
(0.306209 0.420535 0)
(0.214413 0.252258 3.76276e-19)
(0.112198 0.0679872 -2.21109e-19)
(0.0479827 0.0482069 2.54403e-19)
(-0.0675226 0.412697 -2.98061e-19)
(0.234453 0.213699 2.97767e-19)
(1.01535 0.937426 4.69912e-19)
(1.16056 1.08815 0)
(1.15396 1.10466 5.04436e-21)
(1.10359 1.08376 2.70674e-19)
(1.04179 1.05564 -4.93206e-19)
(0.972185 1.0233 -1.03846e-19)
(0.892798 0.986421 0)
(0.802422 0.943121 7.22674e-21)
(0.698546 0.890019 -7.06939e-21)
(0.593364 0.829118 0)
(0.503028 0.765999 0)
(0.429654 0.700834 2.99172e-19)
(0.367996 0.634512 -1.49371e-19)
(0.30974 0.551556 -2.52948e-19)
(0.238854 0.418132 0)
(0.122473 0.232357 1.9191e-19)
(0.0144543 0.427941 -2.21947e-19)
(0.0417815 1.83198 -1.16587e-19)
(0.0730604 2.78086 -1.51405e-19)
(0.234158 0.219422 -2.18467e-19)
(1.0085 0.960229 -5.94103e-19)
(1.15065 1.11286 1.82983e-19)
(1.1433 1.12941 1.74267e-19)
(1.09311 1.10834 0)
(1.03125 1.08008 -3.54563e-19)
(0.961858 1.04773 -1.76662e-19)
(0.8821 1.01112 6.62923e-21)
(0.79098 0.968507 1.48735e-21)
(0.685399 0.91672 1.5137e-19)
(0.576949 0.857674 2.61959e-19)
(0.481605 0.796577 2.28151e-19)
(0.401521 0.731229 2.95608e-19)
(0.330835 0.662598 -3.43255e-19)
(0.257511 0.578144 -3.76756e-19)
(0.160681 0.444181 0)
(0.0622937 0.811329 0)
(0.119349 2.50838 1.00522e-19)
(0.121547 3.17771 0)
(0.124158 3.37905 2.32036e-19)
(0.236326 0.224739 0)
(1.00239 0.981905 0)
(1.14074 1.13587 0)
(1.13265 1.15235 4.88182e-20)
(1.08263 1.13127 2.42121e-19)
(1.02078 1.10312 -2.72355e-19)
(0.951902 1.07101 -1.27384e-19)
(0.871821 1.03488 7.86538e-21)
(0.780055 0.993206 -1.98778e-20)
(0.672939 0.943167 -1.01122e-20)
(0.561427 0.886638 4.8673e-19)
(0.461244 0.828666 -2.66874e-20)
(0.374096 0.764901 3.39072e-20)
(0.295507 0.689975 4.90836e-20)
(0.203363 0.613054 4.30153e-22)
(0.124794 0.92979 1.82242e-21)
(0.163656 2.64979 -5.15128e-19)
(0.179077 3.27711 -1.93043e-19)
(0.164035 3.42461 9.16176e-20)
(0.147288 3.44947 -9.64458e-20)
(0.15397 0.181529 1.25285e-19)
(0.990445 1.00536 0)
(1.13057 1.15737 -3.57218e-19)
(1.12268 1.17402 -4.49366e-19)
(1.07292 1.15332 5.07919e-19)
(1.01128 1.12539 2.89935e-19)
(0.942218 1.09325 1.50143e-19)
(0.862059 1.05781 -1.478e-19)
(0.76983 1.01734 3.17797e-20)
(0.661505 0.969421 0)
(0.547291 0.916018 2.19265e-19)
(0.442634 0.861917 -1.74396e-19)
(0.348234 0.804012 0)
(0.263496 0.720014 4.3695e-20)
(0.181028 0.82592 1.04265e-19)
(0.178665 2.36977 -1.28658e-19)
(0.249783 3.31355 1.43583e-19)
(0.225644 3.44306 7.09783e-20)
(0.187722 3.46698 8.00937e-20)
(0.162413 3.47832 1.07195e-19)
(0.278436 0.261727 -2.32714e-19)
(0.974404 1.01368 0)
(1.11197 1.18128 3.70316e-19)
(1.10861 1.20585 4.71246e-19)
(1.05721 1.18563 -5.25216e-19)
(0.995218 1.15821 -3.11434e-19)
(0.925468 1.12746 -2.3639e-19)
(0.844884 1.09317 -1.08446e-20)
(0.751635 1.05482 -6.16853e-20)
(0.641095 1.01072 6.92256e-20)
(0.522664 0.963648 9.79812e-21)
(0.411188 0.917481 1.39922e-19)
(0.302557 0.872139 2.86729e-20)
(0.233314 0.976246 -4.01031e-20)
(0.255096 2.22477 -9.40054e-20)
(0.325273 3.31622 7.3132e-20)
(0.311175 3.47937 -7.05317e-20)
(0.271646 3.50334 -3.98072e-20)
(0.23127 3.53228 -8.6772e-21)
(0.174288 3.52471 -1.9239e-21)
(0.265724 0.258023 0)
(0.971435 1.03519 9.82736e-20)
(1.10398 1.20382 -7.36795e-20)
(1.09882 1.22838 -5.2883e-20)
(1.04744 1.20812 -3.46492e-19)
(0.985572 1.18092 3.04903e-19)
(0.915584 1.15032 1.60451e-19)
(0.835025 1.11681 -1.16659e-20)
(0.741624 1.07992 8.27336e-20)
(0.63043 1.03861 -1.43317e-20)
(0.510319 0.996284 -3.19855e-19)
(0.396121 0.956487 1.98999e-20)
(0.290314 0.935609 -2.54066e-20)
(0.27457 1.41504 -3.40515e-20)
(0.361717 3.03756 1.82159e-20)
(0.39344 3.47287 9.19528e-22)
(0.347939 3.54192 1.71219e-20)
(0.30803 3.56708 -2.04321e-20)
(0.254958 3.59193 6.08681e-20)
(0.18954 3.58713 1.8406e-20)
(0.248878 0.255852 2.41917e-19)
(0.966715 1.05918 6.63315e-19)
(1.09542 1.22832 -2.10828e-19)
(1.08854 1.25231 -2.00958e-19)
(1.03718 1.23187 0)
(0.975508 1.20468 4.50551e-19)
(0.905587 1.17431 2.47105e-19)
(0.825337 1.14153 -1.25771e-20)
(0.732111 1.10615 8.32885e-21)
(0.620773 1.06778 -2.40197e-21)
(0.499734 1.03043 -1.18112e-19)
(0.384635 0.997913 -1.43217e-19)
(0.294802 1.05165 -1.72831e-19)
(0.347516 2.04719 1.87926e-19)
(0.454788 3.36222 1.14869e-19)
(0.443646 3.54106 0)
(0.39117 3.58946 0)
(0.352174 3.63455 5.81497e-20)
(0.288906 3.70257 0)
(0.202267 3.67177 1.3002e-19)
(0.23746 0.256875 -3.54575e-19)
(0.96002 1.08411 -5.53363e-19)
(1.08542 1.25389 0)
(1.077 1.27703 5.9047e-21)
(1.02574 1.25617 -3.4005e-19)
(0.964376 1.22886 6.72619e-19)
(0.894856 1.19871 1.67551e-19)
(0.815129 1.16656 -1.66385e-20)
(0.722333 1.13259 1.06586e-19)
(0.611262 1.09707 -3.54978e-21)
(0.490101 1.06481 0)
(0.376316 1.04174 0)
(0.32205 1.25905 -1.35289e-19)
(0.439096 2.72428 4.8994e-20)
(0.535851 3.48792 2.54599e-20)
(0.492231 3.57995 0)
(0.452209 3.63971 1.42374e-19)
(0.406937 3.71656 -2.29787e-19)
(0.35845 3.71198 -2.2352e-19)
(0.233319 3.69663 2.17492e-20)