/*--------------------------------*- C++ -*----------------------------------*\
  =========                 |
  \\      /  F ield         | OpenFOAM: The Open Source CFD Toolbox
   \\    /   O peration     | Website:  https://openfoam.org
    \\  /    A nd           | Version:  10
     \\/     M anipulation  |
\*---------------------------------------------------------------------------*/
FoamFile
{
    format      ascii;
    class       volScalarField;
    location    "61";
    object      p;
}
// * * * * * * * * * * * * * * * * * * * * * * * * * * * * * * * * * * * * * //

dimensions      [0 2 -2 0 0 0 0];

internalField   nonuniform List<scalar> 
918
(
0.556518
1.18475
0.000666199
0.555951
-0.00938312
1.15176
-0.50926
0.672173
0.536711
-0.111381
-0.0457917
0.536937
1.01247
0.77951
-1.12466
-0.010814
0.65141
-0.382325
0.535809
-0.0560499
0.698764
0.543257
0.546282
0.536861
0.599461
0.753995
0.893706
0.021889
0.0114379
0.00493325
-0.0145227
-0.0363756
-0.0310955
1.0354
1.0865
1.1092
0.504524
0.332126
-0.374455
-0.446607
-0.435715
-0.547639
0.667956
0.666054
-0.207475
0.675612
0.678783
0.523754
0.536079
0.536989
0.538017
0.536997
0.538379
0.403822
-0.112745
-0.144353
-0.0923706
-0.0838587
0.0536899
-0.0470028
-0.0490517
-0.044287
-0.0438177
0.453769
0.531446
0.528314
0.541972
0.552704
1.1243
1.09622
1.12236
1.03607
1.05255
0.990448
0.96313
0.799369
0.82121
0.765984
0.752687
-1.55707
-2.5094
-0.534279
-0.283303
-0.0153461
-0.00828256
-0.00249927
0.648103
0.649014
0.650966
0.654065
1.07996
-0.379329
-0.480437
0.535949
0.534755
0.543088
0.543788
0.539806
0.538897
-0.0470794
-0.0437683
-0.0473657
-0.0523625
-0.0512178
0.68751
0.687918
0.537391
0.534396
0.559903
0.580136
0.570665
0.27807
0.607989
0.623324
0.585465
0.747184
0.740627
0.749575
0.867241
0.831528
0.930669
0.953739
0.01726
-0.00112104
-0.0154031
-0.0193937
-0.0179156
0.500363
0.492917
0.520221
0.507952
0.510455
0.248696
0.115128
0.417192
0.442186
-0.292697
-0.357881
-0.430235
-0.459842
-0.567748
0.611236
0.662629
0.660162
-0.218858
-0.146717
-0.279159
-0.0734206
-0.136069
0.514028
0.521035
0.516037
0.53158
0.526049
0.528012
0.540346
0.537418
0.538977
0.466142
0.589894
0.329917
0.294583
-0.245021
-0.159634
-0.245646
-0.0718143
-0.0667923
0.0676501
0.0931073
0.0406597
0.0289099
-0.0605417
-0.0519347
-0.0561592
-0.0429893
-0.0435424
0.446545
0.435378
0.466451
0.473998
0.518769
0.520204
0.524756
0.522674
0.913832
0.936185
0.94385
0.917614
-3.50012
-6.28389
0.0416366
0.178165
-0.00654033
-0.0107707
0.00467406
-0.0103933
-0.00309299
-0.00439622
-0.00650971
-0.00764231
-0.00318427
-0.00137043
0.641833
0.642804
1.00181
1.0082
0.977909
0.930611
0.524143
0.52622
0.531728
0.527606
-0.042639
-0.0433155
-0.0422084
0.681755
0.686316
0.684523
0.239761
0.150417
0.328938
0.35794
0.63532
0.623781
0.633744
0.645835
0.683296
0.961136
0.979408
0.977592
0.985999
1.02999
1.04637
1.0118
0.479822
0.489799
0.484751
0.523331
0.521103
0.522006
0.517832
0.519144
0.517108
-0.0354874
-0.415858
0.489919
0.507044
0.491817
0.494656
0.691392
0.769978
0.654061
0.657401
0.656477
-0.0047935
-0.0631471
0.250014
0.21616
0.386247
0.422567
0.401581
0.885133
0.845512
0.895636
0.868831
0.83007
0.85577
-0.367469
-1.86835
-0.986735
0.528286
0.34231
0.429727
0.0108185
-0.0060008
-0.00149656
1.00108
1.07378
0.645736
0.820444
0.823346
0.71802
0.747526
0.805612
0.733615
0.766821
0.799137
0.777779
0.567371
0.503099
0.519031
0.83919
0.894959
0.120766
0.0599785
0.0159692
0.111831
0.169033
0.143128
1.03409
0.948881
1.01919
0.534155
0.534874
-0.00408122
-0.0181119
0.539107
0.53916
-0.0163668
-0.00371848
0.412497
-0.832768
0.101627
0.527672
0.517613
0.534726
-0.0946251
0.355299
-0.0471638
0.0487935
-0.00671193
0.530723
0.464883
0.424042
0.000492727
-0.0190388
-0.0472722
-0.214712
0.531825
0.53013
0.534194
0.53514
0.535818
-0.0179551
-0.0130905
-0.00977708
-0.0448571
-0.0394157
-0.0498494
0.498693
0.517675
-0.170352
0.53434
0.536472
0.536292
0.52954
0.535176
0.533424
-0.0104155
-0.0167176
-0.0180978
0.220672
0.35148
0.652127
0.739915
0.623448
0.399544
0.164362
0.555451
0.618619
0.524423
0.678088
0.658685
0.672768
0.16722
0.0170027
0.175574
0.117072
0.525531
0.524239
0.515867
0.512836
0.529591
0.527701
0.532264
0.529278
0.53223
0.533614
-0.0512366
-0.078061
-0.0881611
-0.156982
0.310022
0.571561
0.253347
0.28352
0.142028
-0.0410471
-0.0409721
-0.0457164
-0.0519683
0.00181286
-0.0218712
0.0437786
0.0443019
0.0166926
-0.00919849
-0.00603097
-0.0169139
-0.0127274
0.52436
0.523943
0.527815
0.536424
0.474514
0.478287
0.443184
0.463921
0.449201
0.388053
0.423237
0.398496
-0.0075566
0.00250102
-0.00482063
-0.016521
-0.0126912
-0.0322858
-0.0287731
-0.0249561
-0.0206213
-0.0272027
-0.0420213
-0.0439342
-0.172351
-0.287506
0.988404
0.91013
0.136021
0.520977
0.52743
0.524193
0.529103
0.532232
0.533038
0.530751
0.527301
0.518004
0.519526
0.516375
0.517309
-0.102068
-0.242663
-0.0708452
-0.144315
0.143672
0.626853
0.363379
0.299389
0.294476
0.522407
0.916823
0.701192
0.675838
0.684233
-0.343171
0.0465797
-0.279113
0.336112
0.163541
0.651978
0.700197
0.721518
0.670173
0.623481
-0.103344
0.555067
-0.0707237
-0.0192181
0.181746
0.0593411
0.669776
0.645031
0.64977
0.66465
0.680521
0.650453
0.636433
0.631754
0.659619
0.661486
0.486705
0.251482
0.202846
0.16429
0.64156
0.52144
0.574032
0.49221
0.52073
0.523333
0.521968
0.503518
0.511096
0.506623
0.513169
0.516666
0.525303
0.52576
0.521048
0.523181
-0.0570864
-0.0614441
-0.0302468
-0.137764
-0.131628
-0.193976
-0.0630884
0.0750584
0.0356071
0.23674
0.341215
0.0522053
-0.0586715
-0.0312194
0.0108508
0.179751
0.207272
0.0740646
0.162167
0.152361
0.134498
0.236773
0.240609
-0.0259321
-0.0293798
-0.0328646
-0.0347264
0.0197461
0.0902127
0.0999477
-0.0039677
-0.010016
-0.0390382
-0.0397282
-0.0218803
-0.0268416
-0.0226192
0.00839203
-0.0521575
-0.0192634
-0.00512373
-0.00101527
-0.00319389
-0.00873013
0.517515
0.519999
0.519616
0.525597
0.540505
0.555138
0.519111
0.496695
0.48749
0.490506
0.463387
0.473727
0.469388
0.483119
0.504245
0.513788
0.511299
0.51413
0.496374
0.498126
0.484629
0.488336
0.463132
0.44399
0.432124
-0.0419242
-0.0035657
-0.011131
-0.0376575
-0.00843965
-0.0203028
-0.00871739
0.00963304
-0.00634761
-0.00792197
-0.0178125
-0.0248543
-0.0242192
-0.0742266
0.0121964
-0.184088
-0.219894
-0.292375
0.890364
1.01441
0.810125
0.583247
0.603062
0.846184
0.930883
0.543251
0.735449
0.758699
0.58613
0.853578
0.525815
0.525417
0.523016
0.522495
0.523712
-0.00725979
0.0983734
0.0979872
0.160249
0.27551
0.387345
0.317859
0.193313
0.323641
0.326148
0.619837
0.631772
0.587054
0.610838
0.610796
0.425244
0.500807
0.552905
0.512089
0.564585
0.585798
0.540169
0.572814
0.522979
0.478008
0.473923
0.424359
0.444
0.419929
0.402953
0.514748
0.492705
0.503079
0.49363
0.512822
0.540754
0.537029
0.561391
0.57619
0.497512
0.452549
0.461953
0.492202
0.453192
0.468456
0.484995
0.230714
0.132449
0.215426
-0.0708669
0.00147318
-0.011511
-0.0599054
-0.00950238
0.274989
-0.417059
-0.393316
-1.0212
0.501491
0.952978
0.608205
0.581392
0.67872
0.661462
0.666684
0.683064
0.685535
0.630114
0.641007
0.64539
0.605323
0.626919
0.645917
0.642598
0.524541
0.385018
0.383046
0.332398
0.202549
0.241825
0.439335
0.362901
0.287768
0.288235
0.457389
0.344206
0.413828
0.44809
0.37959
0.334013
0.536854
0.602076
0.595334
0.569246
0.482159
0.495263
0.519138
0.553242
0.57824
0.60871
0.512597
0.518517
0.519752
0.517229
0.514503
0.51756
0.517801
0.520348
0.521
0.523991
0.523037
-0.0467745
-0.0343701
-0.0478924
-0.0563653
-0.0206315
-0.0231365
0.0209577
0.0058287
-0.0134762
-0.00804177
-0.0320592
-0.0364336
-0.0321798
-0.023573
0.0994364
0.112184
0.0957808
0.0560103
0.25025
0.379791
0.454309
0.329546
0.222666
0.245693
0.265574
-0.0125359
0.0137322
0.000701933
0.0401242
0.0320017
-0.0339642
-0.0376496
-0.0351771
-0.0281477
-0.0186993
-0.0354615
-0.039384
-0.0303308
-0.0353957
-0.0379582
-0.0421591
0.498955
0.492415
0.49413
0.48793
0.486646
0.501087
0.505351
0.507321
0.512852
0.51528
0.505154
0.510934
0.514936
-0.0098138
-0.032846
-0.0366701
-0.0259757
-0.0287
-0.0267165
-0.0280702
0.122938
0.0532225
0.0576669
0.00958316
-0.121884
-0.0641327
0.4906
0.489455
0.479053
0.720256
0.569551
0.490069
0.587087
0.692806
0.27539
0.472255
0.307143
0.887938
0.784174
0.930586
0.541768
0.244062
0.406289
0.450433
0.262745
0.33796
0.325367
0.214351
0.245265
0.282358
0.381491
0.264193
0.240713
-0.00223886
0.188079
0.300387
0.282228
0.407056
0.467949
0.265037
0.184518
0.139747
0.604719
0.624181
0.638075
0.61045
0.631388
0.579003
0.570235
0.586126
0.594498
0.589604
-0.749269
-0.455785
-1.40212
-0.72334
-0.269035
0.53179
0.502151
0.768255
0.646629
0.687081
0.672369
0.631355
0.600476
0.622596
0.646879
0.343907
0.454826
0.430057
0.435341
0.337436
0.268181
0.566134
0.562409
0.594914
0.618072
0.590364
0.619613
0.510423
0.510144
0.509604
0.505851
0.504123
0.506492
0.0572627
0.0252362
0.0629722
0.0438978
0.0206651
0.00816334
-0.0066373
-0.0165333
-0.0238091
-0.0237605
-0.00989831
-0.00581979
0.17049
0.10849
0.0286623
0.0581766
-0.00257566
-0.0714005
-0.0901016
0.0145838
0.110951
0.101131
0.404794
0.654606
0.474578
0.642095
0.484457
0.540236
0.467613
0.459017
0.48421
0.378566
0.459076
0.244425
-0.262902
-0.171942
0.791505
0.803541
0.580119
0.403315
0.171883
0.352157
0.542963
0.474078
0.510021
0.579125
0.567074
0.0248151
0.0840624
0.366207
0.59312
0.238302
0.229422
0.223136
0.405602
0.324938
)
;

boundaryField
{
    wall-4
    {
        type            zeroGradient;
    }
    velocity-inlet-5
    {
        type            zeroGradient;
    }
    velocity-inlet-6
    {
        type            zeroGradient;
    }
    pressure-outlet-7
    {
        type            fixedValue;
        value           uniform 0;
    }
    wall-8
    {
        type            zeroGradient;
    }
    frontAndBackPlanes
    {
        type            empty;
    }
}


// ************************************************************************* //
