/*--------------------------------*- C++ -*----------------------------------*\
  =========                 |
  \\      /  F ield         | OpenFOAM: The Open Source CFD Toolbox
   \\    /   O peration     | Website:  https://openfoam.org
    \\  /    A nd           | Version:  10
     \\/     M anipulation  |
\*---------------------------------------------------------------------------*/
FoamFile
{
    format      ascii;
    class       volScalarField;
    location    "75";
    object      p;
}
// * * * * * * * * * * * * * * * * * * * * * * * * * * * * * * * * * * * * * //

dimensions      [0 2 -2 0 0 0 0];

internalField   nonuniform List<scalar> 
2200
(
0.773664
0.752166
0.736265
0.720605
0.706004
0.6935
0.683167
0.675092
0.669405
0.66655
0.667081
0.670895
0.677306
0.685907
0.696607
0.709396
0.724197
0.740134
0.756182
0.777681
0.706079
0.702822
0.6999
0.695787
0.690336
0.683878
0.677282
0.671362
0.666904
0.664613
0.665169
0.668501
0.673714
0.680194
0.687203
0.693975
0.699654
0.703756
0.706606
0.709971
0.666127
0.666349
0.668421
0.669779
0.670183
0.669346
0.66739
0.664754
0.662262
0.660812
0.661449
0.663988
0.66731
0.670565
0.672921
0.673928
0.673664
0.672677
0.671046
0.670797
0.643624
0.64508
0.647677
0.650131
0.652588
0.654627
0.655805
0.656069
0.65575
0.655516
0.656225
0.657713
0.65897
0.659399
0.658747
0.657098
0.654952
0.652776
0.650169
0.648766
0.629218
0.63119
0.634015
0.636866
0.639746
0.642603
0.645097
0.647005
0.648286
0.649143
0.649956
0.650522
0.650355
0.649307
0.647486
0.645144
0.642617
0.639901
0.637113
0.635193
0.621811
0.623409
0.625623
0.628168
0.630855
0.63355
0.63618
0.638649
0.640728
0.642323
0.643302
0.643426
0.642675
0.64123
0.639385
0.637283
0.634985
0.632656
0.630564
0.628989
0.618312
0.619334
0.620614
0.622501
0.624673
0.626877
0.629118
0.631473
0.633783
0.635741
0.636892
0.637025
0.636338
0.635204
0.633868
0.632352
0.630683
0.629127
0.628023
0.627006
0.615571
0.61624
0.616883
0.618205
0.619847
0.621574
0.623386
0.625391
0.627566
0.629657
0.631055
0.631502
0.631286
0.630755
0.630045
0.629153
0.628141
0.627242
0.626808
0.626129
0.61221
0.612653
0.613059
0.614078
0.615376
0.616809
0.618374
0.620137
0.622121
0.624237
0.62593
0.626881
0.627276
0.627323
0.627123
0.626718
0.626187
0.625691
0.62552
0.625053
0.608044
0.608339
0.608708
0.609601
0.610746
0.612067
0.613571
0.615276
0.61722
0.619429
0.621513
0.623024
0.623962
0.624476
0.624665
0.624611
0.624378
0.624095
0.623984
0.623657
0.603161
0.603361
0.60374
0.604591
0.605721
0.607083
0.608683
0.610531
0.612658
0.615123
0.617648
0.619704
0.621111
0.62199
0.622464
0.622666
0.622629
0.622504
0.622421
0.622179
0.597783
0.597926
0.598307
0.599148
0.600337
0.601833
0.603631
0.605741
0.608201
0.611102
0.614186
0.616791
0.618637
0.619849
0.620583
0.620968
0.621151
0.621182
0.621134
0.620938
0.591975
0.592084
0.59247
0.593308
0.594566
0.596212
0.598245
0.600693
0.603634
0.607137
0.610921
0.614125
0.616443
0.618027
0.619076
0.619742
0.620152
0.620323
0.620318
0.620141
0.585679
0.585739
0.586135
0.587023
0.588414
0.590271
0.592601
0.595466
0.59899
0.603245
0.607801
0.611723
0.614599
0.616651
0.618108
0.6191
0.619761
0.620089
0.620128
0.619958
0.578868
0.578899
0.579333
0.58026
0.581798
0.583868
0.586501
0.589832
0.594017
0.599178
0.604763
0.609539
0.613125
0.615776
0.617734
0.619137
0.620081
0.620574
0.620662
0.620489
0.57138
0.571337
0.571777
0.572816
0.574565
0.576899
0.579915
0.583813
0.58881
0.594992
0.601754
0.607609
0.612076
0.61548
0.618044
0.619893
0.62116
0.621834
0.621974
0.621794
0.562944
0.562954
0.563382
0.564495
0.566521
0.56921
0.572733
0.577318
0.583246
0.590713
0.598851
0.60602
0.611574
0.615818
0.619058
0.621469
0.623105
0.623956
0.62415
0.623955
0.553322
0.553334
0.553811
0.555105
0.557412
0.560526
0.564677
0.570124
0.577192
0.586151
0.596034
0.604712
0.611552
0.616845
0.6209
0.623909
0.625959
0.627009
0.627256
0.627039
0.542153
0.542117
0.542692
0.544207
0.546896
0.550614
0.5556
0.562154
0.57067
0.581446
0.593366
0.603909
0.612208
0.618642
0.623581
0.6273
0.629817
0.631057
0.631348
0.631106
0.528943
0.528874
0.529565
0.531441
0.534678
0.539175
0.545238
0.553212
0.563559
0.576615
0.590888
0.603512
0.613417
0.621199
0.627207
0.631719
0.634747
0.636184
0.636498
0.636222
0.513255
0.513146
0.513934
0.516182
0.520168
0.525755
0.533274
0.543145
0.555838
0.571642
0.588733
0.603658
0.615437
0.62464
0.631768
0.637162
0.640714
0.642323
0.642645
0.642338
0.494092
0.494008
0.495036
0.497838
0.502852
0.509944
0.519452
0.531823
0.547496
0.566573
0.586855
0.604423
0.618182
0.628961
0.637377
0.643688
0.647747
0.6495
0.649784
0.649448
0.470567
0.470417
0.471757
0.475397
0.48185
0.491042
0.503299
0.519011
0.538421
0.561447
0.585342
0.605773
0.621687
0.634162
0.643884
0.651165
0.655691
0.657534
0.657731
0.657377
0.440188
0.440227
0.442367
0.447471
0.456324
0.468751
0.484894
0.504936
0.528871
0.556435
0.584372
0.607887
0.626081
0.640259
0.651342
0.659499
0.664339
0.666187
0.666262
0.665904
0.400177
0.400422
0.404022
0.412157
0.425099
0.442548
0.464077
0.489593
0.518907
0.551641
0.583998
0.610731
0.631217
0.647172
0.659536
0.668438
0.673419
0.675128
0.675055
0.674719
0.346962
0.347494
0.35471
0.368074
0.38759
0.412372
0.441027
0.473287
0.508924
0.547426
0.584348
0.614301
0.637097
0.654752
0.668344
0.677733
0.682437
0.683682
0.683496
0.683222
0.277497
0.280185
0.295667
0.317771
0.346392
0.380092
0.416941
0.456717
0.499253
0.544008
0.58599
0.619617
0.645121
0.6648
0.679599
0.689273
0.693537
0.694112
0.693995
0.693771
0.198648
0.208557
0.234334
0.266068
0.304908
0.347883
0.393074
0.440583
0.490328
0.541751
0.589283
0.627063
0.655407
0.677009
0.69297
0.702504
0.706042
0.706078
0.706099
0.705947
0.128303
0.142817
0.175503
0.216465
0.26509
0.317043
0.370329
0.425528
0.482473
0.540469
0.593278
0.634844
0.66581
0.689103
0.705745
0.714798
0.717671
0.71751
0.717661
0.717556
0.0742546
0.0884127
0.12559
0.17258
0.228734
0.288319
0.349055
0.411586
0.475413
0.539667
0.597672
0.642842
0.676146
0.700756
0.718048
0.727198
0.72929
0.729332
0.729553
0.729495
0.0297699
0.0430703
0.0842505
0.135269
0.196994
0.26264
0.329914
0.398968
0.469064
0.539285
0.602295
0.650902
0.686351
0.712491
0.730334
0.739593
0.741956
0.742244
0.742394
0.742436
-0.00764936
0.00541496
0.0492786
0.103397
0.169552
0.240072
0.312827
0.387551
0.463351
0.539138
0.606866
0.658915
0.696657
0.724244
0.743103
0.752871
0.755576
0.75607
0.756067
0.756163
-0.0404059
-0.0270819
0.0189546
0.0757413
0.145548
0.220095
0.297562
0.377245
0.458188
0.539187
0.611406
0.666681
0.706838
0.736109
0.756252
0.766165
0.769148
0.769523
0.769544
0.769613
-0.0691207
-0.0559761
-0.00812278
0.0510781
0.124087
0.202152
0.283703
0.367756
0.453389
0.539205
0.615732
0.67436
0.716779
0.747353
0.768504
0.778824
0.781909
0.7823
0.782311
0.782359
-0.0952717
-0.0821356
-0.0329084
0.0286023
0.10446
0.18563
0.270805
0.358769
0.448651
0.539005
0.619956
0.681734
0.725963
0.757847
0.779555
0.790213
0.793636
0.794059
0.79407
0.794094
-0.119246
-0.106088
-0.0559837
0.00769816
0.0860935
0.17009
0.258506
0.349948
0.443783
0.538626
0.623869
0.688553
0.734635
0.767451
0.789417
0.800625
0.804164
0.804661
0.80465
0.804657
-0.141785
-0.128362
-0.0776323
-0.0119586
0.0686539
0.15517
0.246482
0.341139
0.438746
0.537779
0.626935
0.69463
0.742536
0.776405
0.79851
0.809892
0.813548
0.814086
0.814061
0.814053
-0.163065
-0.149247
-0.0980753
-0.0306798
0.0518171
0.140626
0.234608
0.332234
0.433214
0.535971
0.629122
0.70016
0.750084
0.784718
0.806885
0.818395
0.821874
0.822451
0.822387
0.822363
-0.183166
-0.169286
-0.117469
-0.0486066
0.035498
0.12635
0.222711
0.322974
0.426937
0.53323
0.630647
0.705139
0.757203
0.79292
0.814985
0.825877
0.829228
0.829757
0.829693
0.829656
-0.202315
-0.188366
-0.135985
-0.0659026
0.0195595
0.112205
0.210666
0.313249
0.419919
0.529737
0.631469
0.709623
0.764352
0.801047
0.822709
0.832991
0.835821
0.836251
0.836147
0.836099
-0.220922
-0.206655
-0.153779
-0.082652
0.00398038
0.0981587
0.198407
0.303052
0.412303
0.525551
0.631412
0.713514
0.771424
0.809721
0.830922
0.839775
0.841787
0.841827
0.841737
0.841747
-0.239062
-0.224198
-0.170966
-0.0989443
-0.0113173
0.0841624
0.185972
0.292519
0.404193
0.520552
0.630381
0.716837
0.778513
0.818958
0.840007
0.846983
0.847155
0.846738
0.846334
0.846323
-0.25681
-0.241244
-0.187643
-0.114802
-0.0263071
0.0702895
0.173456
0.281721
0.395587
0.51471
0.628345
0.719391
0.785397
0.82916
0.851197
0.855734
0.853531
0.852119
0.852176
0.853107
-0.273953
-0.257807
-0.20383
-0.13023
-0.0409767
0.0565826
0.160934
0.270713
0.386495
0.508055
0.625201
0.721004
0.792041
0.840136
0.86467
0.868278
0.862906
0.855943
0.851696
0.851338
-0.290531
-0.273946
-0.219528
-0.145195
-0.0552591
0.0431288
0.148473
0.259513
0.376932
0.500627
0.620871
0.721328
0.797761
0.851728
0.880839
0.885341
0.879206
0.869782
0.870872
0.875056
-0.306454
-0.289529
-0.234669
-0.159662
-0.0691243
0.0299575
0.136104
0.24817
0.366972
0.492526
0.615395
0.720138
0.802314
0.862996
0.898679
0.907332
0.898886
0.869759
0.834053
0.803494
-0.32174
-0.304593
-0.249286
-0.173692
-0.0826604
0.0169549
0.123686
0.236518
0.356428
0.483546
0.608542
0.716939
0.804487
0.873142
0.918065
0.933496
0.93788
0.908627
0.92635
0.989988
-0.336309
-0.319087
-0.263432
-0.187433
-0.0960751
0.00386459
0.110929
0.224237
0.344885
0.473124
0.599719
0.710928
0.803344
0.879116
0.930569
0.951381
0.9463
0.914289
0.868241
0.88696
-0.350177
-0.333039
-0.277082
-0.200834
-0.109292
-0.00921421
0.0979619
0.211463
0.332456
0.46129
0.588833
0.701655
0.796442
0.876328
0.929822
0.951776
0.926188
0.863706
0.79636
0.782925
-0.363306
-0.346375
-0.290212
-0.213903
-0.122328
-0.0222932
0.0847935
0.198222
0.319156
0.448001
0.575719
0.688738
0.783314
0.860527
0.909172
0.905368
0.862403
0.778339
0.700362
0.672889
-0.375756
-0.359159
-0.302868
-0.226659
-0.135188
-0.0353657
0.0714399
0.184524
0.304998
0.433253
0.560258
0.671855
0.762135
0.828463
0.85248
0.831893
0.763029
0.656297
0.565701
0.540079
-0.387939
-0.37171
-0.315392
-0.23945
-0.148219
-0.0487399
0.0576296
0.17014
0.289796
0.416879
0.542181
0.650362
0.733645
0.783336
0.77444
0.733178
0.612385
0.48474
0.373893
0.343537
-0.400702
-0.384878
-0.328497
-0.252859
-0.161931
-0.0628494
0.042987
0.154745
0.273291
0.398661
0.521223
0.623809
0.699818
0.723264
0.687837
0.591518
0.429478
0.272308
0.139305
0.108804
-0.414525
-0.398905
-0.342406
-0.267102
-0.176512
-0.0778343
0.0274139
0.138293
0.255489
0.378639
0.497328
0.593037
0.658101
0.651735
0.59786
0.440843
0.236828
0.0208828
-0.161546
-0.212714
-0.429547
-0.414053
-0.357268
-0.282195
-0.191908
-0.0936407
0.0109543
0.120821
0.236446
0.35688
0.470469
0.559521
0.609172
0.570844
0.480129
0.287821
0.0543548
-0.23635
-0.55766
-0.708499
-0.445812
-0.430222
-0.3731
-0.298244
-0.208228
-0.110373
-0.00648585
0.102263
0.21612
0.333436
0.440813
0.523027
0.554067
0.485329
0.34417
0.13642
-0.0982446
-0.442714
-1.02687
-1.59711
-0.46344
-0.447723
-0.390095
-0.315305
-0.225458
-0.128
-0.0248583
0.0826959
0.194664
0.308634
0.409555
0.483631
0.494721
0.409979
0.214026
-0.0206851
-0.223789
-0.458099
-1.00785
-2.50283
-0.482416
-0.46638
-0.408221
-0.333526
-0.243817
-0.146759
-0.044419
0.0618435
0.171745
0.28216
0.376635
0.440765
0.43006
0.350387
0.120123
-0.117977
-0.266698
-0.304709
-0.29384
-0.676318
-0.502709
-0.486641
-0.427809
-0.353184
-0.263638
-0.167103
-0.0657661
0.0389409
0.146422
0.252676
0.341056
0.394278
0.366949
0.298584
0.070081
-0.132503
-0.244137
-0.253081
-0.200748
-0.240704
-0.524174
-0.508018
-0.448671
-0.374373
-0.285091
-0.189219
-0.0890948
0.0137962
0.118459
0.219976
0.303074
0.345709
0.311461
0.242893
0.0369448
-0.123636
-0.206751
-0.215338
-0.263048
-0.267051
-0.546801
-0.530806
-0.470942
-0.397064
-0.308079
-0.213085
-0.114443
-0.0136638
0.0878342
0.184455
0.2624
0.294858
0.26319
0.180438
0.00835939
-0.114886
-0.186005
-0.162964
-0.183403
-0.185095
-0.570278
-0.553984
-0.494259
-0.421186
-0.332567
-0.238693
-0.141757
-0.0433222
0.0546955
0.146502
0.219385
0.240536
0.221086
0.112036
-0.0275464
-0.110535
-0.150515
-0.198306
-0.172545
-0.181189
-0.594595
-0.577854
-0.518712
-0.446514
-0.358211
-0.265842
-0.170862
-0.0749964
0.0191922
0.10643
0.174913
0.18529
0.177318
0.0506371
-0.0646923
-0.128749
-0.107281
-0.166819
-0.147274
-0.152352
-0.618499
-0.601626
-0.543973
-0.472681
-0.384833
-0.294365
-0.20147
-0.108314
-0.0184347
0.0646371
0.130187
0.132768
0.124739
-0.000846724
-0.0922498
-0.143608
-0.130653
-0.146899
-0.15206
-0.150409
-0.641832
-0.62513
-0.569551
-0.499024
-0.411972
-0.323851
-0.233211
-0.14295
-0.0576978
0.0214998
0.0855898
0.0843296
0.0670784
-0.0435097
-0.105851
-0.1382
-0.17571
-0.147896
-0.153415
-0.1479
-0.663416
-0.647427
-0.593913
-0.524634
-0.439487
-0.353822
-0.265545
-0.178294
-0.0977146
-0.0226756
0.0409215
0.0403136
0.0112787
-0.078021
-0.119384
-0.114396
-0.185872
-0.128447
-0.143482
-0.135582
-0.68275
-0.667883
-0.616534
-0.54864
-0.466703
-0.383468
-0.297865
-0.213862
-0.137588
-0.0673741
-0.00410295
-0.00040756
-0.0343406
-0.0968385
-0.126117
-0.0874798
-0.133873
-0.114534
-0.120404
-0.116956
-0.698106
-0.684841
-0.636167
-0.570548
-0.49259
-0.411906
-0.329336
-0.248795
-0.176351
-0.111877
-0.0494647
-0.038464
-0.0661464
-0.0969647
-0.113554
-0.0918413
-0.105118
-0.108942
-0.11014
-0.110129
-0.708787
-0.697656
-0.652442
-0.589561
-0.515564
-0.438155
-0.359112
-0.282351
-0.213294
-0.154919
-0.0939082
-0.0733371
-0.0897201
-0.0935665
-0.100192
-0.110001
-0.103592
-0.10923
-0.108557
-0.109545
-0.713342
-0.704562
-0.663527
-0.604317
-0.53455
-0.46108
-0.386079
-0.313393
-0.247644
-0.194938
-0.135335
-0.107091
-0.117998
-0.0951722
-0.0983533
-0.118232
-0.109947
-0.117267
-0.113591
-0.115456
-0.711886
-0.705131
-0.668572
-0.613488
-0.548231
-0.479436
-0.409101
-0.34077
-0.278604
-0.229981
-0.172265
-0.139345
-0.140802
-0.115319
-0.120273
-0.164597
-0.133552
-0.138327
-0.131294
-0.132846
-0.703451
-0.696235
-0.664681
-0.615441
-0.555809
-0.492214
-0.426926
-0.363023
-0.304545
-0.258623
-0.203496
-0.168522
-0.155772
-0.129032
-0.10669
-0.10245
-0.0914972
-0.0984839
-0.0979882
-0.100102
-0.682007
-0.673747
-0.65071
-0.609172
-0.556088
-0.498501
-0.438717
-0.378863
-0.323182
-0.278783
-0.226284
-0.18456
-0.16291
-0.152022
-0.144029
-0.164946
-0.172582
-0.169803
-0.168649
-0.164487
-0.63908
-0.631508
-0.623576
-0.594329
-0.549944
-0.498689
-0.44415
-0.387567
-0.333094
-0.288175
-0.237119
-0.183048
-0.194641
-0.255683
-0.400781
-0.534315
-0.563033
-0.548881
-0.503248
-0.45949
-0.599635
-0.597056
-0.595297
-0.573268
-0.538311
-0.494011
-0.443561
-0.388862
-0.332818
-0.283242
-0.23318
-0.158917
-0.159476
-0.223236
-0.332693
-0.381778
-0.355531
-0.300857
-0.25918
-0.239132
-0.576181
-0.578029
-0.567776
-0.55565
-0.527829
-0.487473
-0.439126
-0.38537
-0.32482
-0.264544
-0.20773
-0.102967
0.0187094
0.187091
0.340949
0.498593
0.622237
0.695854
0.738221
0.772514
-0.546055
-0.545418
-0.543158
-0.542247
-0.518884
-0.482213
-0.434259
-0.37827
-0.313141
-0.239421
-0.165124
-0.0395195
0.150924
0.44013
0.719801
0.957987
1.13404
1.23398
1.27855
1.293
-0.536174
-0.534357
-0.538108
-0.529566
-0.51345
-0.480196
-0.432284
-0.373459
-0.303413
-0.218294
-0.126807
-0.0047555
0.213155
0.523114
0.828081
1.08455
1.27567
1.38439
1.43147
1.44799
-0.520442
-0.519053
-0.522417
-0.514635
-0.510588
-0.477832
-0.429399
-0.369076
-0.296687
-0.205415
-0.104085
0.00245966
0.218679
0.496777
0.771583
1.00777
1.19221
1.30202
1.35053
1.36407
-0.508554
-0.508454
-0.507683
-0.507002
-0.505701
-0.477847
-0.430459
-0.369071
-0.294966
-0.202502
-0.100757
-0.0140817
0.173278
0.411158
0.638968
0.834168
0.99187
1.08842
1.13053
1.14108
-0.503565
-0.50435
-0.501663
-0.505432
-0.498756
-0.476881
-0.433312
-0.373457
-0.30039
-0.210926
-0.113132
-0.0437672
0.105431
0.305491
0.488711
0.640997
0.764334
0.841246
0.874089
0.881853
-0.500243
-0.500985
-0.500133
-0.504236
-0.498327
-0.479365
-0.435837
-0.378659
-0.30961
-0.226704
-0.134688
-0.0766644
0.0347638
0.199776
0.345191
0.460974
0.553139
0.611951
0.636899
0.643202
-0.491588
-0.492038
-0.490186
-0.491795
-0.48681
-0.482371
-0.444353
-0.388158
-0.320815
-0.244751
-0.158974
-0.107374
-0.0282177
0.105649
0.21984
0.307113
0.374937
0.419106
0.436384
0.439943
-0.488502
-0.486717
-0.48279
-0.475214
-0.47101
-0.477274
-0.449728
-0.397921
-0.331759
-0.261566
-0.181982
-0.134242
-0.0798026
0.0277851
0.116354
0.181315
0.231325
0.264085
0.276093
0.279968
-0.510528
-0.506885
-0.502352
-0.497685
-0.497655
-0.496047
-0.459781
-0.404433
-0.337606
-0.273264
-0.200578
-0.156101
-0.119267
-0.0330025
0.0348512
0.0831696
0.121222
0.14667
0.155891
0.158315
-0.556938
-0.555739
-0.558221
-0.563332
-0.56557
-0.547766
-0.482633
-0.411024
-0.338738
-0.278293
-0.212897
-0.171867
-0.146092
-0.0772083
-0.0258109
0.0105444
0.0396473
0.0575675
0.065462
0.0676687
-0.60797
-0.613442
-0.6282
-0.639518
-0.63787
-0.594614
-0.502071
-0.413858
-0.334223
-0.27608
-0.218256
-0.181154
-0.160017
-0.106383
-0.0681345
-0.0405005
-0.0196323
-0.00769889
-0.00270948
-0.00180282
-0.571719
-0.57656
-0.592246
-0.605532
-0.607436
-0.565362
-0.480457
-0.396259
-0.319968
-0.263696
-0.215303
-0.183185
-0.162548
-0.123025
-0.0951198
-0.0755516
-0.0618953
-0.0546474
-0.0522307
-0.0525567
-0.427411
-0.435453
-0.448341
-0.459208
-0.460717
-0.437468
-0.391776
-0.340449
-0.285589
-0.239173
-0.202561
-0.176965
-0.157661
-0.129639
-0.110482
-0.0978379
-0.0898832
-0.0865218
-0.0861669
-0.08713
-0.257174
-0.261323
-0.268188
-0.276903
-0.283204
-0.280094
-0.268998
-0.252417
-0.227421
-0.201958
-0.179743
-0.162524
-0.147377
-0.128588
-0.116627
-0.109718
-0.106311
-0.105767
-0.106744
-0.108017
-0.108808
-0.111125
-0.115896
-0.124675
-0.135957
-0.146786
-0.156712
-0.163355
-0.161869
-0.157196
-0.148768
-0.140917
-0.132946
-0.121239
-0.11512
-0.112861
-0.112753
-0.114134
-0.11579
-0.117149
-0.00579455
-0.00717618
-0.0106403
-0.0191975
-0.0341099
-0.0530456
-0.0731274
-0.0912978
-0.103469
-0.11286
-0.114521
-0.114776
-0.114294
-0.108415
-0.107776
-0.109176
-0.111279
-0.11367
-0.115502
-0.116798
0.0506765
0.0496391
0.0470414
0.0391169
0.0234231
0.00167668
-0.0217437
-0.0436141
-0.0604842
-0.075679
-0.0825329
-0.0879907
-0.0930759
-0.0925465
-0.0961393
-0.100072
-0.103564
-0.106436
-0.108227
-0.109386
0.074053
0.0733519
0.0713728
0.0646099
0.0504782
0.0298614
0.00671853
-0.0156266
-0.0333759
-0.0494719
-0.0569526
-0.0639117
-0.0717587
-0.0761156
-0.0823785
-0.0877077
-0.0918074
-0.0947824
-0.0963548
-0.0973775
0.0779466
0.0774517
0.0759747
0.0706641
0.0592679
0.042042
0.0215657
0.000543762
-0.016705
-0.0324996
-0.0393766
-0.0450796
-0.0529972
-0.0601008
-0.067738
-0.0736329
-0.0779476
-0.0808667
-0.0821515
-0.0830266
0.0718804
0.0715554
0.0704722
0.0665499
0.0579328
0.0446569
0.0281247
0.00988895
-0.00576962
-0.021006
-0.0276825
-0.0320258
-0.0387566
-0.0460378
-0.0537042
-0.0595261
-0.0637774
-0.0665939
-0.0676401
-0.0683575
0.0612618
0.061089
0.06032
0.0575798
0.0513181
0.0415704
0.0291179
0.0146168
0.00177371
-0.0122806
-0.0190301
-0.0229052
-0.0285153
-0.0348719
-0.0416668
-0.0467789
-0.0505489
-0.0530388
-0.0538293
-0.054402
0.0491662
0.0490927
0.0485619
0.0467573
0.042372
0.0354536
0.0264699
0.015666
0.00632334
-0.00544251
-0.0117252
-0.0157225
-0.0206589
-0.0260008
-0.0316366
-0.0358068
-0.0388937
-0.0409663
-0.0415946
-0.042034
0.0370063
0.0370206
0.0366498
0.0355607
0.0326482
0.0279672
0.0217094
0.0139003
0.00772704
-0.00102231
-0.00557265
-0.00923971
-0.0137916
-0.0184106
-0.02304
-0.0263584
-0.0287772
-0.0303876
-0.0308299
-0.0311533
0.0255095
0.0255544
0.0253421
0.024731
0.0229272
0.0199882
0.0158887
0.0104622
0.00673455
0.000761848
-0.00152889
-0.00398697
-0.00772944
-0.0115296
-0.0154311
-0.0180711
-0.0198758
-0.0210601
-0.0214435
-0.0216909
0.0146409
0.0146632
0.0145834
0.0143941
0.0134526
0.0118957
0.00965848
0.0062786
0.00441326
0.00071778
-0.000118542
-0.000960081
-0.00327172
-0.0056649
-0.00878987
-0.0107867
-0.0121146
-0.0129172
-0.0130364
-0.0131683
0.0045759
0.0046076
0.00461189
0.00470453
0.00450144
0.00405109
0.00341116
0.00191609
0.00161539
2.14787e-05
0.000104861
0.000418382
-0.000606666
-0.00144373
-0.00349839
-0.00471991
-0.00585093
-0.0064156
-0.00615209
-0.00610787
-1.07664
-0.243456
0.0262507
0.299756
0.477467
0.628776
0.748137
0.870365
1.00737
1.09357
-0.103532
0.299733
0.312911
0.499014
0.618584
0.725827
0.817507
0.899717
0.926108
0.88535
0.266788
0.478015
0.50986
0.644825
0.727482
0.804633
0.868358
0.916353
0.917906
0.932707
0.491776
0.631852
0.66576
0.764819
0.820797
0.876324
0.920134
0.951962
0.960773
0.984717
0.66614
0.765228
0.794797
0.860136
0.904304
0.943945
0.975475
0.99952
1.00912
1.0409
0.806948
0.874401
0.904409
0.946157
0.981688
1.01121
1.03513
1.05583
1.06977
1.09822
0.924511
0.974321
0.999592
1.02703
1.05422
1.0777
1.09747
1.11669
1.13146
1.15808
1.0273
1.06392
1.08476
1.10515
1.12567
1.14489
1.16222
1.18032
1.19516
1.21886
1.1207
1.14962
1.16582
1.18096
1.19693
1.21292
1.22843
1.24532
1.25895
1.28127
1.20865
1.22902
1.2438
1.2569
1.27043
1.28416
1.29765
1.31224
1.32378
1.34341
1.29394
1.30969
1.32348
1.33527
1.34717
1.3588
1.36994
1.38159
1.38928
1.40606
1.37911
1.39164
1.40535
1.41708
1.42772
1.43751
1.44633
1.45458
1.45814
1.46936
1.46783
1.47867
1.49214
1.50165
1.50922
1.51651
1.52368
1.53013
1.53125
1.53859
1.56623
1.57084
1.57903
1.58375
1.58715
1.59162
1.59761
1.60525
1.60917
1.61904
1.6795
1.66638
1.6591
1.65339
1.65067
1.65201
1.6583
1.67067
1.68551
1.71518
1.80146
1.74541
1.71439
1.6972
1.68898
1.6889
1.69778
1.71742
1.74917
1.81846
)
;

boundaryField
{
    wall-4
    {
        type            zeroGradient;
    }
    pressure-outlet-7
    {
        type            fixedValue;
        value           uniform 0;
    }
    velocity-inlet-6
    {
        type            zeroGradient;
    }
    velocity-inlet-5
    {
        type            zeroGradient;
    }
    frontAndBackPlanes
    {
        type            empty;
    }
}


// ************************************************************************* //
