/*--------------------------------*- C++ -*----------------------------------*\
  =========                 |
  \\      /  F ield         | OpenFOAM: The Open Source CFD Toolbox
   \\    /   O peration     | Website:  https://openfoam.org
    \\  /    A nd           | Version:  10
     \\/     M anipulation  |
\*---------------------------------------------------------------------------*/
FoamFile
{
    format      ascii;
    class       surfaceScalarField;
    location    "75";
    object      phi;
}
// * * * * * * * * * * * * * * * * * * * * * * * * * * * * * * * * * * * * * //

dimensions      [0 3 -1 0 0 0 0];

internalField   nonuniform List<scalar> 
4262
(
0.10713
0.470858
0.0955647
0.705151
0.0693706
0.858497
0.0473378
1.0208
0.0309356
1.21492
0.0197108
1.44944
0.0122639
1.73331
0.0069912
2.07631
0.00302406
2.48921
-0.000802002
2.98612
-0.00453645
2.98603
-0.00815249
2.48886
-0.0130817
2.07597
-0.0202397
1.73302
-0.0311661
1.44915
-0.0472031
1.21455
-0.0689287
1.02049
-0.0951929
0.858567
-0.107066
0.705459
0.470922
0.112855
0.358003
0.135238
0.682768
0.120334
0.873402
0.097803
1.04333
0.0745732
1.23815
0.0528631
1.47115
0.0345105
1.75166
0.0203769
2.09044
0.00912298
2.50046
-0.000863178
2.9961
-0.0110116
2.99618
-0.0224886
2.50034
-0.0366043
2.09008
-0.054834
1.75125
-0.0766252
1.47094
-0.100374
1.2383
-0.123573
1.04369
-0.137055
0.87205
-0.113582
0.681985
0.35734
0.0920362
0.265967
0.124952
0.649852
0.121067
0.877287
0.104729
1.05966
0.0860271
1.25685
0.0668285
1.49035
0.0477762
1.77072
0.0295785
2.10864
0.0128924
2.51715
-0.00302224
3.01202
-0.018453
3.01161
-0.0342121
2.5161
-0.0517387
2.10761
-0.070248
1.76976
-0.088615
1.4893
-0.105792
1.25548
-0.119839
1.05773
-0.125262
0.877473
-0.0923727
0.649096
0.264968
0.0639311
0.202036
0.104696
0.609086
0.106446
0.875537
0.0950769
1.07103
0.081173
1.27075
0.0664615
1.50506
0.0503774
1.7868
0.0333079
2.12571
0.015701
2.53476
-0.00297313
3.03069
-0.0217956
3.03043
-0.0393676
2.53367
-0.0558113
2.12405
-0.0709265
1.78488
-0.0846603
1.50304
-0.0983424
1.26916
-0.110107
1.0695
-0.107088
0.874455
-0.0649282
0.606936
0.20004
0.0374533
0.164583
0.0806471
0.565893
0.0908574
0.865327
0.0835969
1.07829
0.0708972
1.28345
0.0589221
1.51704
0.0457451
1.79998
0.0305959
2.14086
0.0134936
2.55186
-0.00561406
3.0498
-0.0240455
3.04886
-0.0397005
2.54932
-0.0535644
2.13792
-0.0657181
1.79703
-0.0770032
1.51432
-0.0889168
1.28108
-0.09524
1.07582
-0.0833653
0.86258
-0.0384549
0.562026
0.161585
0.0194278
0.145155
0.0570776
0.528243
0.0724033
0.850001
0.0702682
1.08043
0.0614818
1.29224
0.0506699
1.52785
0.039615
1.81103
0.0271184
2.15336
0.0120724
2.56691
-0.00576615
3.06764
-0.0234612
3.06655
-0.0380605
2.56392
-0.0495436
2.1494
-0.0593273
1.80681
-0.0690784
1.52407
-0.0766763
1.28867
-0.0774347
1.07658
-0.0601952
0.84534
-0.0204409
0.522271
0.141144
0.0105775
0.134578
0.0421981
0.496622
0.0582194
0.83398
0.058402
1.08025
0.0521103
1.29853
0.0425571
1.53741
0.0319362
1.82165
0.0202812
2.16501
0.00679915
2.58039
-0.00903592
3.08347
-0.0240809
3.0816
-0.0356545
2.5755
-0.0454054
2.15915
-0.0543322
1.81574
-0.0622392
1.53198
-0.0667269
1.29316
-0.0646736
1.07453
-0.0461415
0.826808
-0.0117796
0.487909
0.129364
0.00650796
0.12807
0.0327362
0.470394
0.0488543
0.817862
0.0502628
1.07884
0.0451314
1.30366
0.0367628
1.54577
0.0271958
1.83122
0.0165024
2.1757
0.00453949
2.59235
-0.00971735
3.09773
-0.0235742
3.09546
-0.0345308
2.58645
-0.0435927
2.16821
-0.0510916
1.82324
-0.057487
1.53838
-0.0605968
1.29627
-0.0568491
1.07078
-0.0375209
0.80748
-0.00795587
0.458344
0.121408
0.00465802
0.123412
0.0263645
0.448688
0.0420435
0.802183
0.0440543
1.07683
0.0392862
1.30843
0.0314636
1.5536
0.0220571
1.84063
0.0110336
2.18673
-0.00107856
2.60446
-0.0139207
3.11057
-0.0253246
3.10686
-0.0348193
2.59595
-0.0430719
2.17646
-0.0500013
1.83017
-0.0553382
1.54371
-0.0574282
1.29836
-0.0522033
1.06555
-0.0323151
0.787592
-0.00646019
0.432489
0.114948
0.00364939
0.119762
0.0213721
0.430965
0.0362516
0.787303
0.038763
1.07432
0.034234
1.31296
0.0267395
1.56109
0.0179012
1.84946
0.00804098
2.19659
-0.00288093
2.61538
-0.0153437
3.12304
-0.0273554
3.11887
-0.0368075
2.6054
-0.0440445
2.1837
-0.0497789
1.8359
-0.0543363
1.54827
-0.0554505
1.29948
-0.0489228
1.05903
-0.0286844
0.767354
-0.00587658
0.409682
0.109072
0.0029837
0.116779
0.017308
0.416641
0.0311037
0.773508
0.0339937
1.07143
0.0297494
1.3172
0.022498
1.56834
0.0137357
1.85823
0.00327433
2.20705
-0.00885432
2.62751
-0.0212372
3.13542
-0.0315994
3.12923
-0.0395434
2.61334
-0.0460675
2.19022
-0.0512446
1.84108
-0.0548252
1.55185
-0.0547135
1.29936
-0.0466059
1.05092
-0.0261119
0.74686
-0.00566555
0.389235
0.103406
0.0022541
0.114524
0.0134196
0.405475
0.0256044
0.761323
0.0283419
1.06869
0.0240875
1.32146
0.0167573
1.57567
0.00800164
1.86698
-0.001717
2.21677
-0.0120894
2.63789
-0.0236996
3.14703
-0.0346231
3.14016
-0.0427493
2.62147
-0.0484038
2.19588
-0.0526404
1.84532
-0.0552776
1.55449
-0.0545119
1.2986
-0.0449795
1.04139
-0.0242847
0.726165
-0.00554697
0.370498
0.0978591
0.00157998
0.112944
0.0101603
0.396895
0.0207332
0.75075
0.0232055
1.06622
0.0189314
1.32573
0.0117415
1.58286
0.00308992
1.87563
-0.00701933
2.22688
-0.0188085
2.64968
-0.0313934
3.15961
-0.0412937
3.15006
-0.047808
2.62798
-0.0524287
2.2005
-0.0557644
1.84865
-0.0572705
1.55599
-0.0554719
1.2968
-0.0444588
1.03037
-0.0232673
0.704973
-0.00554143
0.352772
0.0923176
0.000730928
0.112214
0.0067277
0.390898
0.0154765
0.742001
0.0172779
1.06441
0.012575
1.33044
0.00482447
1.59061
-0.00450257
1.88496
-0.0148259
2.2372
-0.0256482
2.6605
-0.0366746
3.17064
-0.0461748
3.15956
-0.0525475
2.63436
-0.0564182
2.20437
-0.0591509
1.85138
-0.0597601
1.5566
-0.0567379
1.29378
-0.0442913
1.01793
-0.0226317
0.683314
-0.00552737
0.335667
0.0867902
-1.06656e-05
0.112224
0.0036112
0.387276
0.00994317
0.735669
0.010734
1.06362
0.00563002
1.33554
-0.00228733
1.59853
-0.0116982
1.89437
-0.022213
2.24772
-0.033817
2.6721
-0.0463383
3.18316
-0.0556967
3.16892
-0.0605147
2.63917
-0.06322
2.20708
-0.0647348
1.8529
-0.0642255
1.55609
-0.0596091
1.28916
-0.045268
1.00359
-0.0226504
0.660696
-0.00562819
0.318645
0.081162
-0.000916028
0.11314
0.000237528
0.386123
0.00458864
0.731318
0.00425152
1.06396
-0.00173211
1.34152
-0.0107491
1.60755
-0.0213053
1.90493
-0.0328538
2.25926
-0.0448893
2.68414
-0.0557121
3.19398
-0.0631065
3.17631
-0.0676841
2.64375
-0.0699353
2.20933
-0.0709354
1.8539
-0.0695919
1.55475
-0.0632162
1.28278
-0.046895
0.987264
-0.0231442
0.636945
-0.00582168
0.301323
0.0753404
-0.00193998
0.11508
-0.00326777
0.38745
-0.00220029
0.730251
-0.00419279
1.06595
-0.0109957
1.34833
-0.0205921
1.61714
-0.0316651
1.916
-0.0436406
2.27124
-0.0557883
2.69628
-0.0675221
3.20572
-0.0760402
3.18483
-0.0796555
2.64737
-0.0806243
2.2103
-0.0800836
1.85336
-0.0769759
1.55164
-0.0686042
1.27441
-0.0497711
0.968431
-0.0242504
0.611425
-0.00613626
0.283208
0.0692041
-0.0032261
0.118306
-0.00691584
0.39114
-0.00904192
0.732377
-0.0129675
1.06988
-0.0211083
1.35647
-0.0321584
1.62819
-0.0447272
1.92857
-0.0582204
2.28473
-0.0719002
2.70996
-0.083895
3.21771
-0.0900059
3.19094
-0.0919838
2.64934
-0.0916169
2.20993
-0.0901383
1.85188
-0.0861309
1.54764
-0.0752722
1.26355
-0.0534379
0.946597
-0.0258097
0.583796
-0.00654405
0.263943
0.0626601
-0.00459164
0.122898
-0.011368
0.397916
-0.017075
0.738084
-0.0238776
1.07668
-0.0333042
1.36589
-0.0456508
1.64054
-0.059407
1.94233
-0.0739502
2.29928
-0.0879699
2.72398
-0.0992954
3.22904
-0.105619
3.19726
-0.107656
2.65138
-0.10712
2.20939
-0.103877
1.84864
-0.0974186
1.54118
-0.0838397
1.24998
-0.0585107
0.921268
-0.0279407
0.553226
-0.0070422
0.243044
0.0556179
-0.00609571
0.128994
-0.0163451
0.408166
-0.0260952
0.747834
-0.0359605
1.08655
-0.0477723
1.37771
-0.0622401
1.65501
-0.0780691
1.95815
-0.0944961
2.3157
-0.110148
2.73964
-0.122565
3.24146
-0.12803
3.20273
-0.127424
2.65078
-0.123878
2.20585
-0.119175
1.84393
-0.11133
1.53333
-0.0940493
1.2327
-0.0642574
0.891476
-0.0302919
0.519261
-0.00752308
0.220275
0.0480948
-0.00838404
0.137378
-0.0232925
0.423074
-0.038468
0.763009
-0.0516
1.09968
-0.0652466
1.39135
-0.0818321
1.67159
-0.0997531
1.97608
-0.118051
2.334
-0.13469
2.75628
-0.146789
3.25356
-0.150424
3.20636
-0.149545
2.6499
-0.14616
2.20246
-0.13964
1.83741
-0.128185
1.52188
-0.106699
1.21121
-0.0716001
0.856377
-0.0330987
0.480759
-0.00805408
0.195231
0.0400407
-0.0108172
0.148195
-0.0304884
0.442745
-0.0515862
0.784107
-0.0698788
1.11797
-0.0874303
1.4089
-0.107237
1.6914
-0.128157
1.997
-0.148656
2.3545
-0.166097
2.77372
-0.177316
3.26477
-0.180153
3.2092
-0.176593
2.64634
-0.169637
2.19551
-0.160916
1.82869
-0.147147
1.50811
-0.120317
1.18438
-0.078741
0.814801
-0.0354604
0.437479
-0.00834946
0.16812
0.0316912
-0.0156789
0.163874
-0.0430311
0.470098
-0.0712993
0.812375
-0.0947304
1.1414
-0.115861
1.43004
-0.139161
1.7147
-0.162479
2.02031
-0.184237
2.37626
-0.201831
2.79131
-0.21261
3.27555
-0.213224
3.20982
-0.207661
2.64077
-0.19986
2.18771
-0.188776
1.81761
-0.169935
1.48927
-0.136587
1.15103
-0.0872109
0.765425
-0.0377893
0.388057
-0.00854143
0.138872
0.0231498
-0.0197769
0.183651
-0.0559235
0.506244
-0.0936411
0.850093
-0.124581
1.17234
-0.152007
1.45746
-0.180419
1.74311
-0.207148
2.04704
-0.230232
2.39934
-0.247088
2.80817
-0.254044
3.28251
-0.250329
3.2061
-0.242023
2.63246
-0.230778
2.17646
-0.216794
1.80363
-0.194116
1.46659
-0.152536
1.10945
-0.0936485
0.706537
-0.0385825
0.332991
-0.00817373
0.108463
0.0149761
-0.0332808
0.216931
-0.0831186
0.556082
-0.131733
0.898707
-0.169807
1.21042
-0.202662
1.49032
-0.234632
1.77508
-0.261842
2.07425
-0.28365
2.42115
-0.297307
2.82182
-0.300559
3.28576
-0.294263
3.19981
-0.282536
2.62074
-0.269534
2.16346
-0.252072
1.78616
-0.221356
1.43587
-0.169538
1.05763
-0.100272
0.637272
-0.0389359
0.271655
-0.00771
0.0772373
0.00726608
-0.0477087
0.26464
-0.122526
0.6309
-0.187224
0.963405
-0.233313
1.25651
-0.27201
1.52901
-0.305275
1.80835
-0.330778
2.09976
-0.349055
2.43943
-0.358383
2.83115
-0.35605
3.28343
-0.342594
3.18635
-0.326358
2.6045
-0.308347
2.14545
-0.285235
1.76305
-0.247179
1.39782
-0.182733
0.993188
-0.100562
0.5551
-0.0363969
0.20749
-0.00721119
0.0480515
5.48803e-05
-0.0346856
0.299326
-0.0992586
0.695473
-0.158039
1.02219
-0.207089
1.30556
-0.252614
1.57454
-0.293351
1.84908
-0.3319
2.1383
-0.367814
2.47534
-0.397121
2.86046
-0.416337
3.30264
-0.422968
3.19298
-0.419085
2.60062
-0.408461
2.13482
-0.383377
1.73797
-0.325234
1.33967
-0.227099
0.895053
-0.114085
0.442086
-0.0400508
0.133455
-0.00829767
0.0162984
-0.00824278
-0.0127111
0.312037
-0.048765
0.731527
-0.0920898
1.06551
-0.132628
1.34609
-0.172754
1.61466
-0.209461
1.88579
-0.244715
2.17356
-0.27623
2.50686
-0.300707
2.88493
-0.314557
3.31649
-0.314387
3.19281
-0.304859
2.59109
-0.287521
2.11749
-0.255969
1.70642
-0.20461
1.28831
-0.130775
0.821218
-0.0589411
0.370253
-0.0218854
0.0963997
-0.00482874
-0.000758275
-0.0130715
-0.000875073
0.312912
-0.0238289
0.75448
-0.0536652
1.09535
-0.0855914
1.37802
-0.119314
1.64839
-0.152009
1.91849
-0.182504
2.20405
-0.208843
2.5332
-0.228082
2.90417
-0.236074
3.32449
-0.229732
3.18647
-0.214977
2.57634
-0.195602
2.09811
-0.169079
1.67989
-0.125162
1.2444
-0.0688227
0.764879
-0.0279095
0.329339
-0.0120906
0.0805809
-0.00333699
-0.00951189
-0.0164085
0.00161199
0.3113
-0.0143049
0.770397
-0.0360101
1.11705
-0.0605042
1.40251
-0.086853
1.67474
-0.113977
1.94561
-0.139924
2.23
-0.162248
2.55552
-0.177557
2.91948
-0.181009
3.32794
-0.171142
3.1766
-0.155196
2.56039
-0.133608
2.07652
-0.101768
1.64805
-0.0647611
1.20739
-0.030065
0.730183
-0.0117848
0.311059
-0.00671459
0.0755106
-0.00256445
-0.013662
-0.018973
0.00547421
0.305826
-0.00187235
0.777744
-0.0207424
1.13592
-0.0429229
1.4247
-0.0660437
1.69786
-0.0891002
1.96867
-0.11112
2.25202
-0.129565
2.57396
-0.141036
2.93095
-0.141429
3.32833
-0.128741
3.16391
-0.107955
2.53961
-0.0831264
2.05169
-0.0582869
1.62321
-0.0280872
1.17719
-0.00309373
0.705189
0.00166441
0.306301
-0.000275524
0.0774506
-0.000876129
-0.0130614
-0.0198491
0.00511382
0.300712
-0.000891392
0.783749
-0.0164713
1.1515
-0.0345852
1.44281
-0.053941
1.71721
-0.0737347
1.98846
-0.0925499
2.27084
-0.108322
2.58974
-0.117733
2.94036
-0.115544
3.32614
-0.100424
3.14879
-0.080184
2.51937
-0.0560301
2.02754
-0.0257822
1.59297
-7.4671e-05
1.15148
0.0131475
0.691967
0.0123501
0.307099
0.00548823
0.0843124
0.00101101
-0.00858421
-0.0188381
0.00557413
0.295138
0.00214256
0.787181
-0.0107198
1.16436
-0.0276945
1.45978
-0.0456269
1.73514
-0.0633963
2.00623
-0.0802921
2.28773
-0.0942333
2.60368
-0.101774
2.94791
-0.0984234
3.32279
-0.0832492
3.13362
-0.0601813
2.4963
-0.033094
2.00045
-0.0113233
1.5712
0.00842273
1.13174
0.0198766
0.680513
0.0160541
0.310921
0.00797741
0.0923891
0.0018799
-0.0024867
-0.0169582
0.00286086
0.292277
-0.000114693
0.790156
-0.0113778
1.17563
-0.0257991
1.4742
-0.0416464
1.75099
-0.057884
2.02247
-0.0732607
2.30311
-0.0860123
2.61643
-0.0930178
2.95491
-0.0889624
3.31873
-0.0728938
3.11755
-0.0525182
2.47592
-0.0302231
1.97816
-0.0031953
1.54417
0.0158145
1.11273
0.021814
0.674514
0.0174972
0.315238
0.00892337
0.100963
0.00235778
0.00407889
-0.0146004
0.00240994
0.289867
0.00032321
0.792243
-0.0100219
1.18597
-0.0236672
1.48785
-0.0388914
1.76622
-0.0540918
2.03767
-0.0687464
2.31776
-0.0811147
2.6288
-0.0878132
2.96161
-0.0847565
3.31568
-0.0706752
3.10347
-0.0486961
2.45394
-0.0235724
1.95303
-0.00442299
1.52502
0.0122349
1.09607
0.0210449
0.665704
0.016587
0.319696
0.00879851
0.108751
0.00246222
0.0104152
-0.0121382
-0.00027795
0.290145
-0.0037153
0.79568
-0.0126717
1.19493
-0.0245131
1.49969
-0.0382976
1.78
-0.0527558
2.05212
-0.0668603
2.33187
-0.0789652
2.6409
-0.086254
2.9689
-0.0838958
3.31332
-0.0691305
3.0887
-0.0497113
2.43452
-0.0301796
1.9335
-0.00631258
1.50115
0.0108856
1.07887
0.0164204
0.660169
0.0141383
0.321978
0.00772773
0.115162
0.00227632
0.0158666
-0.00986187
-0.000638989
0.290784
-0.00402653
0.799068
-0.0128061
1.20371
-0.0243898
1.51128
-0.0378772
1.79349
-0.0517439
2.06599
-0.0656105
2.34573
-0.0781784
2.65347
-0.0864499
2.97717
-0.0860319
3.3129
-0.0740643
3.07674
-0.0534598
2.41392
-0.0297344
1.90978
-0.0123836
1.4838
0.00289484
1.06359
0.0121849
0.650879
0.0107235
0.323439
0.00626134
0.119624
0.00195189
0.020176
-0.00790998
-0.00192234
0.292706
-0.00725061
0.804396
-0.0155134
1.21197
-0.0259912
1.52175
-0.0383809
1.80588
-0.0518093
2.07942
-0.0657031
2.35963
-0.0786244
2.66639
-0.0877554
2.9863
-0.0885683
3.31371
-0.0765766
3.06474
-0.0583865
2.39573
-0.0400909
1.89148
-0.0175508
1.46126
-0.000659453
1.0467
0.00607124
0.644148
0.00753389
0.321977
0.00470275
0.122455
0.00159285
0.0232859
-0.00631713
-0.0030615
0.295768
-0.00745518
0.80879
-0.0156468
1.22016
-0.0262385
1.53234
-0.0386171
1.81826
-0.0517761
2.09258
-0.0656099
2.37346
-0.0790224
2.6798
-0.0895386
2.99682
-0.0933765
3.31755
-0.0847004
3.05607
-0.0664496
2.37748
-0.0423901
1.86742
-0.0245537
1.44342
-0.00917873
1.03133
0.00200022
0.632969
0.004295
0.319682
0.00330175
0.123449
0.00122142
0.0253663
-0.00509571
-0.00386986
0.299638
-0.00963628
0.814556
-0.0177008
1.22823
-0.0275487
1.54219
-0.0391308
1.82984
-0.0519535
2.1054
-0.0658915
2.3874
-0.0797815
2.69369
-0.0915159
3.00855
-0.0969987
3.32304
-0.0894966
3.04857
-0.0729094
2.36089
-0.054019
1.84853
-0.0294265
1.41883
-0.0105904
1.01249
-0.00127798
0.623657
0.0029091
0.315495
0.00250774
0.12385
0.00104274
0.0268312
-0.00405298
-0.00391726
0.303555
-0.0094174
0.820056
-0.0174791
1.23629
-0.0274569
1.55217
-0.0391444
1.84153
-0.0518336
2.11809
-0.0657149
2.40128
-0.0800859
2.70806
-0.0933982
3.02186
-0.102077
3.33171
-0.0986662
3.04516
-0.0825357
2.34476
-0.0568485
1.82284
-0.0346177
1.3966
-0.0151329
0.993005
-0.00240949
0.610933
0.00147522
0.31161
0.00153702
0.123788
0.000103485
0.0282648
-0.00394949
-0.00410884
0.307664
-0.0107055
0.826653
-0.0187616
1.24435
-0.0281406
1.56155
-0.0391428
1.85253
-0.0514918
2.13044
-0.065485
2.41527
-0.0804338
2.72301
-0.0949014
3.03633
-0.105202
3.34201
-0.103322
3.04328
-0.0894056
2.33084
-0.0688053
1.80224
-0.0380906
1.36589
-0.0118932
0.966807
0.00102495
0.598015
0.00710707
0.305528
0.00646093
0.124434
0.00281538
0.0319103
-0.00113411
-0.00399298
0.311657
-0.0101793
0.832839
-0.018088
1.25225
-0.0275369
1.571
-0.0386196
1.86361
-0.0509086
2.14273
-0.064874
2.42924
-0.0801732
2.73831
-0.0959017
3.05206
-0.109173
3.35529
-0.11199
3.04609
-0.0995976
2.31845
-0.0722651
1.77491
-0.0423324
1.33595
-0.0114426
0.935917
0.0109849
0.575588
0.016334
0.300179
0.00805604
0.132712
-0.00135824
0.0413246
-0.00249235
-0.00414361
0.3158
-0.0109159
0.839612
-0.0187049
1.26004
-0.0276117
1.57991
-0.0380572
1.87406
-0.0499891
2.15466
-0.0639812
2.44323
-0.0797234
2.75406
-0.0963843
3.06872
-0.111138
3.37004
-0.116038
3.05099
-0.106506
2.30892
-0.0854359
1.75384
-0.0465931
1.29711
-0.00446012
0.893784
0.0269132
0.544214
0.0483167
0.278775
0.0515886
0.12944
0.0299445
0.0629687
0.0274521
-0.00400652
0.319807
-0.0102195
0.845825
-0.0177155
1.26754
-0.0265913
1.58878
-0.0370486
1.88451
-0.0489155
2.16653
-0.0628127
2.45713
-0.078706
2.76995
-0.0962871
3.0863
-0.113528
3.38728
-0.123108
3.06057
-0.116883
2.3027
-0.0908611
1.72782
-0.0534164
1.25967
-0.00404509
0.844413
0.0417251
0.498444
0.0730118
0.247489
0.0581161
0.144336
0.0249311
0.0961537
0.0523832
-0.00399522
0.323802
-0.0105678
0.852397
-0.0178867
1.27486
-0.0262158
1.59711
-0.0360796
1.89438
-0.0475387
2.17799
-0.0613294
2.47092
-0.0774967
2.78612
-0.0957591
3.10456
-0.114232
3.40575
-0.12503
3.07137
-0.123163
2.30083
-0.106466
1.71112
-0.0638946
1.21709
-0.00580717
0.786325
0.062996
0.429641
0.156464
0.154021
0.214105
0.0866949
0.188776
0.121483
0.241159
-0.00384469
0.327647
-0.00994688
0.858499
-0.0171434
1.28205
-0.0256961
1.60566
-0.0360304
1.90471
-0.0481036
2.19006
-0.0627785
2.48559
-0.0804005
2.80374
-0.101295
3.12546
-0.124448
3.42891
-0.142016
3.08894
-0.14605
2.30486
-0.126036
1.69111
-0.0862086
1.17727
-0.017831
0.717948
0.042875
0.368935
-0.032151
0.229047
-0.35005
0.404594
-0.946897
0.718329
0.903218
-1.60896
-0.00376217
0.331409
-0.0101734
0.864911
-0.0173024
1.28918
-0.0255289
1.61389
-0.0355127
1.9147
-0.0475353
2.20208
-0.0626416
2.5007
-0.0813588
2.82245
-0.104139
3.14824
-0.130351
3.45512
-0.151933
3.11052
-0.161476
2.31441
-0.159412
1.68904
-0.123909
1.14176
-0.0831084
0.677147
-0.191234
0.477061
-0.693966
0.731779
-1.45989
1.17051
-2.06315
1.32159
1.21502
-2.37495
-0.00353334
0.334942
-0.00935992
0.870737
-0.016194
1.29602
-0.0244365
1.62213
-0.0345879
1.92485
-0.046898
2.21439
-0.0624549
2.51626
-0.0820125
2.84201
-0.106707
3.17293
-0.137177
3.48559
-0.166464
3.13981
-0.184582
2.33252
-0.182334
1.6868
-0.156268
1.1157
-0.242971
0.763851
-0.752899
0.986988
-1.5667
1.54558
-2.12032
1.72414
-2.35666
1.55793
1.32814
-2.46978
-0.00344779
0.33839
-0.00935377
0.876643
-0.016049
1.30271
-0.0239347
1.63002
-0.0336903
1.9346
-0.0458757
2.22658
-0.0617394
2.53212
-0.0822742
2.86255
-0.108827
3.19949
-0.142678
3.51944
-0.177121
3.17425
-0.203155
2.35856
-0.220488
1.70413
-0.289246
1.18446
-0.668728
1.14333
-1.45158
1.76984
-2.03439
2.12839
-2.27214
1.96189
-2.38411
1.6699
1.39106
-2.44703
-0.00313758
0.341528
-0.00838618
0.881892
-0.0146843
1.30901
-0.022489
1.63782
-0.0323896
1.9445
-0.0448031
2.23899
-0.0610217
2.54834
-0.0822513
2.88378
-0.110574
3.22781
-0.148738
3.55761
-0.192081
3.21759
-0.230268
2.39675
-0.262222
1.73608
-0.446557
1.36879
-1.09966
1.79644
-1.79769
2.46787
-2.11178
2.44247
-2.25826
2.10837
-2.33987
1.75151
1.4573
-2.40611
-0.00315204
0.34468
-0.00868043
0.88742
-0.0150787
1.31541
-0.0227836
1.64553
-0.0326633
1.95438
-0.0451989
2.25153
-0.061896
2.56504
-0.0842275
2.90611
-0.114496
3.25808
-0.156211
3.59932
-0.205382
3.26676
-0.247281
2.43865
-0.330172
1.81897
-0.733445
1.77206
-1.49591
2.5589
-1.9633
2.93526
-2.16271
2.64188
-2.26838
2.21404
-2.34567
1.8288
1.52028
-2.40865
-0.00320351
0.347883
-0.00857145
0.892788
-0.0151822
1.32202
-0.0234833
1.65383
-0.0341643
1.96506
-0.0475958
2.26496
-0.0652807
2.58272
-0.0888149
2.92964
-0.121169
3.29043
-0.16733
3.64548
-0.223005
3.32244
-0.280998
2.49664
-0.465948
2.00392
-1.045
2.35111
-1.68183
3.19574
-1.95203
3.20545
-2.09802
2.78788
-2.21189
2.3279
-2.30565
1.92257
1.58176
-2.36714
-0.00334996
0.351233
-0.00953942
0.898978
-0.0167308
1.32921
-0.0253027
1.6624
-0.0361579
1.97592
-0.0499741
2.27877
-0.0684487
2.6012
-0.0934478
2.95464
-0.128007
3.32499
-0.177969
3.69544
-0.238633
3.3831
-0.32089
2.5789
-0.605026
2.28806
-1.26389
3.00998
-1.7493
3.68114
-1.95637
3.41252
-2.09525
2.92676
-2.21931
2.45196
-2.32935
2.03261
1.64048
-2.38807
-0.00327779
0.354511
-0.00914034
0.90484
-0.0165769
1.33665
-0.0259302
1.67175
-0.0377859
1.98777
-0.0526604
2.29365
-0.0722559
2.62079
-0.0985148
2.9809
-0.135108
3.36158
-0.188765
3.7491
-0.255621
3.44996
-0.378235
2.70151
-0.768409
2.67823
-1.4096
3.65117
-1.7583
4.02984
-1.93055
3.58477
-2.03207
3.02828
-2.12084
2.54074
-2.18726
2.09902
1.63303
-2.17981
-0.00331195
0.357823
-0.0102186
0.911747
-0.0183922
1.34482
-0.0280043
1.68137
-0.0399829
1.99975
-0.05519
2.30886
-0.0755498
2.64115
-0.10332
3.00867
-0.142102
3.40036
-0.198331
3.80533
-0.274689
3.52631
-0.443757
2.87058
-0.901586
3.13606
-1.45879
4.20838
-1.71871
4.28976
-1.86977
3.73583
-1.96359
3.1221
-1.96403
2.54117
-1.89377
2.02876
1.5945
-1.85523
-0.00308364
0.360907
-0.00932838
0.917992
-0.0176164
1.35311
-0.0280696
1.69182
-0.0411152
2.0128
-0.0572917
2.32503
-0.0784119
2.66227
-0.106607
3.03687
-0.145923
3.43968
-0.202122
3.86153
-0.286678
3.61087
-0.490072
3.07397
-0.984786
3.63078
-1.42489
4.64848
-1.58897
4.45385
-1.65551
3.80236
-1.65987
3.12646
-1.51237
2.39368
-1.01354
1.52993
0.580958
-0.00270673
0.363613
-0.0103413
0.925626
-0.0195522
1.36232
-0.0303188
1.70259
-0.0436753
2.02616
-0.0606199
2.34198
-0.0833088
2.68496
-0.114367
3.06793
-0.157875
3.48319
-0.220387
3.92404
-0.322743
3.71323
-0.576786
3.32802
-1.11994
4.17393
-1.47623
5.00477
-1.575
4.55262
-1.57316
3.80052
-1.46989
3.02319
-1.23145
2.15524
-0.629202
0.927683
-0.0482444
-0.00240817
0.366021
-0.00857514
0.931793
-0.0176744
1.37142
-0.0296379
1.71455
-0.0447675
2.04128
-0.0637016
2.36091
-0.0886956
2.70996
-0.122396
3.10163
-0.1702
3.53099
-0.239449
3.99329
-0.361444
3.83522
-0.675675
3.64225
-1.23733
4.73559
-1.49579
5.26323
-1.5549
4.61172
-1.53272
3.77835
-1.3313
2.82177
-0.779785
1.60372
-0.108219
0.256118
-0.156463
-0.00147067
0.367492
-0.00926002
0.939582
-0.019372
1.38153
-0.0315031
1.72668
-0.0466178
2.0564
-0.0660621
2.38036
-0.0924817
2.73637
-0.129173
3.13832
-0.180973
3.58279
-0.258019
4.07034
-0.406409
3.98361
-0.77901
4.01485
-1.31452
5.2711
-1.49003
5.43875
-1.52067
4.64235
-1.43289
3.69057
-1.09788
2.48676
-0.312121
0.817962
0.0246916
-0.0806953
-0.131772
-0.000914947
0.368407
-0.00595879
0.944626
-0.0154328
1.39101
-0.0288129
1.74006
-0.0458649
2.07345
-0.0674876
2.40198
-0.0963775
2.76526
-0.13551
3.17745
-0.190361
3.63764
-0.276414
4.15639
-0.450217
4.15741
-0.888048
4.45268
-1.35857
5.74162
-1.47381
5.55398
-1.47706
4.6456
-1.25419
3.4677
-0.684578
1.91716
-0.0630821
0.196467
0.0299797
-0.173757
-0.101792
9.40985e-05
0.368313
-0.00582153
0.950542
-0.0161148
1.4013
-0.0294413
1.75339
-0.0458284
2.08984
-0.0675877
2.42374
-0.0974336
2.79511
-0.139022
3.21904
-0.197104
3.69573
-0.292124
4.25141
-0.493072
4.35836
-0.980303
4.93991
-1.35296
6.11427
-1.41857
5.6196
-1.37241
4.59943
-1.0849
3.18019
-0.323273
1.15553
0.00324549
-0.130051
0.0140535
-0.184565
-0.0877386
0.00337986
0.364933
0.00116468
0.952757
-0.00870899
1.41117
-0.0231445
1.76782
-0.0413779
2.10807
-0.0654398
2.4478
-0.0976129
2.82728
-0.141004
3.26243
-0.201919
3.75664
-0.305483
4.35497
-0.53081
4.58369
-1.04165
5.45075
-1.31717
6.38979
-1.35644
5.65887
-1.21872
4.46171
-0.770321
2.7318
-0.0702248
0.455432
0.0435877
-0.243864
0.0237431
-0.164721
-0.0639955
0.0043058
0.360627
0.0024438
0.954619
-0.00737162
1.42099
-0.0208331
1.78128
-0.0375242
2.12476
-0.0610989
2.47137
-0.0932567
2.85944
-0.138289
3.30746
-0.201786
3.82014
-0.312846
4.46603
-0.569352
4.8402
-1.06337
5.94477
-1.25256
6.57898
-1.26349
5.6698
-1.04572
4.24394
-0.460317
2.14639
-0.0183014
0.0134165
-0.00665989
-0.255505
0.00487217
-0.176253
-0.0591233
0.00871737
0.35191
0.0108076
0.952529
0.00502054
1.42677
-0.00796158
1.79427
-0.0269088
2.14371
-0.0522925
2.49676
-0.0861507
2.8933
-0.131679
3.35299
-0.196779
3.88524
-0.314579
4.58383
-0.590483
5.1161
-1.03956
6.39384
-1.16441
6.70383
-1.14789
5.65328
-0.89043
3.98648
-0.266289
1.52225
-0.0714785
-0.181394
-0.0392287
-0.287755
-0.0146053
-0.200876
-0.0737286
0.0113664
0.340544
0.0160927
0.947802
0.0110556
1.43181
0.000898695
1.80442
-0.0166672
2.16128
-0.0398619
2.51995
-0.0719937
2.92543
-0.117548
3.39854
-0.18335
3.95104
-0.30422
4.7047
-0.589235
5.40112
-0.976296
6.7809
-1.03999
6.76753
-0.974438
5.58773
-0.677128
3.68917
-0.0741648
0.919287
0.0120268
-0.267586
-0.00227534
-0.273453
-0.00274471
-0.200407
-0.0764733
0.0185383
0.322005
0.0310189
0.935322
0.0313356
1.4315
0.0212504
1.81451
0.00406523
2.17846
-0.0192103
2.54323
-0.0518319
2.95805
-0.0962087
3.44292
-0.160249
4.01508
-0.281505
4.82596
-0.557258
5.67687
-0.862757
7.0864
-0.899271
6.80404
-0.793206
5.48166
-0.43937
3.33533
0.0677093
0.412208
0.0792892
-0.279166
0.059222
-0.253386
0.021809
-0.162994
-0.0546643
0.024321
0.297684
0.0426357
0.917007
0.0457587
1.42837
0.0392947
1.82097
0.0274009
2.19036
0.00711451
2.56351
-0.021526
2.98669
-0.0627712
3.48417
-0.124076
4.07638
-0.238449
4.94033
-0.484795
5.92321
-0.705517
7.30713
-0.733023
6.83155
-0.636809
5.38545
-0.299691
2.99822
0.0158101
0.0967073
0.0285423
-0.291898
0.0376675
-0.262511
0.0176193
-0.142946
-0.037045
0.0352117
0.262472
0.0663736
0.885845
0.0793349
1.41541
0.077439
1.82287
0.0670482
2.20075
0.0475481
2.58301
0.019913
3.01433
-0.018499
3.52258
-0.0732983
4.13118
-0.172999
5.04003
-0.372346
6.12256
-0.526388
7.46117
-0.549217
6.85438
-0.453296
5.28953
-0.185294
2.73021
-0.0707414
-0.0178455
-0.0463068
-0.316333
-0.0151343
-0.293683
0.0017595
-0.159839
-0.0352855
0.0447354
0.217737
0.0877271
0.842854
0.108224
1.39491
0.11297
1.81812
0.109313
2.2044
0.0964092
2.59592
0.0764893
3.03425
0.0452309
3.55384
-0.00603634
4.18245
-0.0794227
5.11342
-0.21621
6.25935
-0.30492
7.54988
-0.316371
6.86583
-0.270456
5.24361
-0.118526
2.57828
-0.115062
-0.0213094
-0.0971502
-0.334245
-0.0601612
-0.330672
-0.014501
-0.205499
-0.0497865
0.0579353
0.159802
0.121882
0.778907
0.161077
1.35572
0.175744
1.80346
0.176788
2.20336
0.166368
2.60634
0.150565
3.05005
0.127262
3.57714
0.0921546
4.21756
0.0421483
5.16342
-0.00963279
6.31113
-0.0408198
7.58106
-0.0411389
6.86615
-0.0122844
5.21476
0.00239237
2.56361
-0.171805
0.152887
-0.165034
-0.341015
-0.102245
-0.393462
-0.0199019
-0.287843
-0.0696884
0.0594209
0.100381
0.151447
0.686881
0.209324
1.29784
0.23688
1.7759
0.249
2.19124
0.249534
2.6058
0.243733
3.05585
0.232103
3.58877
0.213124
4.23654
0.19136
5.18519
0.232821
6.26967
0.291349
7.52254
0.325782
6.83172
0.306424
5.23412
0.164266
2.70576
-0.130659
0.447812
-0.198954
-0.27272
-0.134858
-0.457558
-0.0319014
-0.390799
-0.10159
0.0484232
0.0519576
0.184836
0.550469
0.283922
1.19875
0.334003
1.72582
0.355909
2.16933
0.363243
2.59847
0.361981
3.05711
0.362701
3.58805
0.363791
4.23545
0.374798
5.17418
0.524303
6.12016
0.673454
7.37338
0.685904
6.81927
0.491347
5.42867
0.00438746
3.19272
-0.342759
0.794959
-0.402787
-0.212692
-0.321812
-0.538533
-0.162436
-0.550174
-0.264026
0.0339334
0.0180241
0.218683
0.365719
0.349121
1.06832
0.428016
1.64692
0.470778
2.12657
0.495836
2.57341
0.504371
3.04858
0.517948
3.57447
0.541117
4.21228
0.595146
5.12015
0.81122
5.90409
1.12215
7.06246
1.25162
6.6898
1.2421
5.4382
0.742989
3.69183
0.0185816
1.51937
-0.396894
0.202783
-0.474905
-0.460521
-0.268084
-0.756995
-0.53211
0.0300685
-0.0120443
0.231186
0.164601
0.452477
0.847026
0.575416
1.52398
0.630368
2.07162
0.663641
2.54014
0.684494
3.02773
0.707696
3.55127
0.752084
4.16789
0.84502
5.02722
1.16106
5.58805
1.71425
6.50927
2.04296
6.36109
2.27416
5.207
2.16366
3.80233
1.40773
2.27529
0.679035
0.931481
0.167443
0.0510711
-0.0430798
-0.546473
-0.57519
0.0221479
-0.0341922
0.152503
0.0342462
0.493297
0.506231
0.696647
1.32063
0.804674
1.96359
0.858421
2.48639
0.894857
2.99129
0.919202
3.52692
0.980972
4.10612
1.10221
4.90598
1.46157
5.22869
2.21549
5.75535
2.59402
5.98255
2.77308
5.02794
2.63841
3.937
2.13853
2.77517
1.48101
1.589
0.891113
0.64097
0.328702
0.0159381
-0.246488
0.00142026
-0.0356125
0.0747457
-0.0390792
0.40593
0.175048
0.723625
1.00294
0.872798
1.81442
0.915394
2.4438
0.923609
2.98307
0.905568
3.54497
0.899451
4.11224
0.931923
4.87351
1.09135
5.06926
1.53249
5.31421
1.71137
5.80368
1.75881
4.98049
1.67127
4.02454
1.40702
3.03942
0.993971
2.00205
0.583246
1.05169
0.251246
0.347939
0.00475734
0.00514829
-0.0407608
0.0427494
-0.0766803
0.199253
0.0185442
0.550894
0.651297
0.738697
1.62662
0.80603
2.37646
0.821289
2.96782
0.818346
3.54791
0.801085
4.1295
0.816311
4.85828
0.898019
4.98755
1.21122
5.001
1.39034
5.62456
1.40858
4.96226
1.35128
4.08184
1.18426
3.20644
0.892596
2.29372
0.564667
1.37962
0.233569
0.679038
0.238326
-0.00174975
-0.039011
0.00561304
-0.0840431
0.0705361
-0.0463789
0.369714
0.35212
0.59494
1.40139
0.70124
2.27016
0.722539
2.94652
0.718168
3.55228
0.692652
4.15501
0.690436
4.8605
0.721147
4.95684
0.912699
4.80945
1.08088
5.45638
1.08111
4.96203
1.02795
4.135
0.904722
3.32967
0.694249
2.50419
0.431958
1.64191
0.176861
0.934135
0.415187
-0.00633661
-0.0326744
-0.0061135
-0.0842662
0.0277113
-0.0802037
0.237357
0.142475
0.472594
1.16615
0.580808
2.16195
0.617009
2.91032
0.620306
3.54898
0.588826
4.18649
0.561453
4.88787
0.564746
4.95355
0.672446
4.70175
0.811454
5.31737
0.801198
4.97228
0.744473
4.19173
0.648893
3.42525
0.500011
2.65307
0.307931
1.83399
0.119263
1.1228
0.534449
0.0005013
-0.0331757
0.0106591
-0.094424
0.0396194
-0.109164
0.14792
0.0341737
0.367219
0.946856
0.479159
2.05001
0.508011
2.88146
0.507227
3.54977
0.482718
4.211
0.453682
4.91691
0.43554
4.97169
0.494113
4.64318
0.588371
5.22311
0.57738