/*--------------------------------*- C++ -*----------------------------------*\
  =========                 |
  \\      /  F ield         | OpenFOAM: The Open Source CFD Toolbox
   \\    /   O peration     | Website:  https://openfoam.org
    \\  /    A nd           | Version:  10
     \\/     M anipulation  |
\*---------------------------------------------------------------------------*/
FoamFile
{
    format      ascii;
    class       volVectorField;
    location    "75";
    object      U;
}
// * * * * * * * * * * * * * * * * * * * * * * * * * * * * * * * * * * * * * //

dimensions      [0 1 -1 0 0 0 0];

internalField   nonuniform List<vector> 
2200
(
(0.878835 -0.0304114 0)
(1.00578 -0.0512766 0)
(1.00326 -0.0353982 0)
(1.0002 -0.0244261 0)
(0.999818 -0.0166417 0)
(1.00003 -0.0106998 0)
(1 -0.006809 0)
(0.99989 -0.00412972 0)
(0.99971 -0.0020938 0)
(1.00019 -0.000603919 0)
(0.999981 0.00129217 0)
(1.00021 0.00274988 0)
(1.00041 0.00452169 0)
(1.00025 0.00714126 0)
(1.00004 0.0108599 0)
(0.999967 0.0166845 0)
(1.00031 0.0243902 0)
(1.00346 0.0348696 0)
(1.00598 0.0513849 0)
(0.879042 0.0302965 0)
(0.712043 -0.0327597 0)
(0.996652 -0.0630013 0)
(1.03335 -0.0561228 0)
(1.025 -0.0464047 0)
(1.01597 -0.036102 0)
(1.00966 -0.0263789 0)
(1.00597 -0.0181376 0)
(1.00395 -0.0114888 0)
(1.00295 -0.0061234 0)
(1.00233 -0.00169324 0)
(1.00234 0.00245763 0)
(1.00226 0.00698015 0)
(1.00318 0.0124757 0)
(1.0055 0.0189749 0)
(1.00944 0.027249 0)
(1.01553 0.0369786 0)
(1.02461 0.0474722 0)
(1.03315 0.0580126 0)
(0.996694 0.0631478 0)
(0.711774 0.0330388 0)
(0.53558 -0.0238903 0)
(0.969943 -0.0569176 0)
(1.05644 -0.0547256 0)
(1.05218 -0.0487119 0)
(1.03619 -0.0403621 0)
(1.02446 -0.0321608 0)
(1.01588 -0.0238673 0)
(1.01022 -0.0159232 0)
(1.00677 -0.00857443 0)
(1.00537 -0.00181891 0)
(1.0052 0.00438463 0)
(1.00713 0.0107984 0)
(1.01051 0.0177053 0)
(1.01575 0.0254538 0)
(1.02401 0.0334608 0)
(1.03608 0.0414565 0)
(1.05217 0.0494513 0)
(1.05627 0.0532794 0)
(0.969169 0.057673 0)
(0.534325 0.0239417 0)
(0.392457 -0.0136327 0)
(0.911963 -0.0463576 0)
(1.05757 -0.046796 0)
(1.06973 -0.0442565 0)
(1.05499 -0.0381057 0)
(1.03939 -0.0314494 0)
(1.02764 -0.0246475 0)
(1.01929 -0.0174762 0)
(1.01415 -0.0100311 0)
(1.01166 -0.00252013 0)
(1.01126 0.00506335 0)
(1.01306 0.0126535 0)
(1.01798 0.0200467 0)
(1.02652 0.0267875 0)
(1.0385 0.0331749 0)
(1.05396 0.0396007 0)
(1.06816 0.0456801 0)
(1.05542 0.0483269 0)
(0.909844 0.0470064 0)
(0.389838 0.0137835 0)
(0.307888 -0.00450894 0)
(0.84685 -0.0323536 0)
(1.0494 -0.0398827 0)
(1.07943 -0.0381086 0)
(1.06821 -0.0334135 0)
(1.05175 -0.027754 0)
(1.03835 -0.0223129 0)
(1.02801 -0.0161579 0)
(1.02069 -0.00916736 0)
(1.0166 -0.00147287 0)
(1.01667 0.00625952 0)
(1.02062 0.0134463 0)
(1.02756 0.0197456 0)
(1.03731 0.0254928 0)
(1.05014 0.0304523 0)
(1.06659 0.0357839 0)
(1.07764 0.0401058 0)
(1.04718 0.0418107 0)
(0.842826 0.0329987 0)
(0.303587 0.00474702 0)
(0.264569 0.000105563 0)
(0.789391 -0.0200396 0)
(1.03373 -0.0313945 0)
(1.08385 -0.031938 0)
(1.07751 -0.0286524 0)
(1.06098 -0.0237911 0)
(1.04734 -0.0193243 0)
(1.03652 -0.014308 0)
(1.02887 -0.00829261 0)
(1.02458 -0.00128588 0)
(1.02393 0.00620383 0)
(1.02718 0.0131246 0)
(1.03428 0.0189063 0)
(1.04492 0.0233456 0)
(1.05862 0.027268 0)
(1.07485 0.0316331 0)
(1.08027 0.0343544 0)
(1.02908 0.033429 0)
(0.782366 0.0207779 0)
(0.258518 0.000130195 0)
(0.240643 0.00107358 0)
(0.738723 -0.0122442 0)
(1.01387 -0.0249062 0)
(1.08409 -0.0266394 0)
(1.08308 -0.0242986 0)
(1.0679 -0.0200851 0)
(1.05439 -0.0160127 0)
(1.04349 -0.0113538 0)
(1.03514 -0.00584082 0)
(1.02989 0.00061773 0)
(1.02964 0.00715925 0)
(1.03405 0.012925 0)
(1.0416 0.0174726 0)
(1.05171 0.0214875 0)
(1.06459 0.0248519 0)
(1.07929 0.0283058 0)
(1.07974 0.029843 0)
(1.00726 0.0273443 0)
(0.72847 0.0131926 0)
(0.232773 -0.000825453 0)
(0.22648 0.000969045 0)
(0.696229 -0.00798142 0)
(0.993699 -0.0206111 0)
(1.0827 -0.022924 0)
(1.08721 -0.021047 0)
(1.07363 -0.0174876 0)
(1.06009 -0.0136711 0)
(1.04943 -0.0094549 0)
(1.04146 -0.00459466 0)
(1.03662 0.00107283 0)
(1.03568 0.00728952 0)
(1.03878 0.0126481 0)
(1.04561 0.0170476 0)
(1.05568 0.0203166 0)
(1.06913 0.0232918 0)
(1.08182 0.0259792 0)
(1.07547 0.0269558 0)
(0.98295 0.0235679 0)
(0.681238 0.0091766 0)
(0.216244 -0.000703835 0)
(0.21693 0.000629768 0)
(0.660814 -0.00562477 0)
(0.973046 -0.0175047 0)
(1.07976 -0.0200525 0)
(1.09047 -0.0184324 0)
(1.07848 -0.0152113 0)
(1.06511 -0.0114876 0)
(1.05463 -0.00712777 0)
(1.04668 -0.00206985 0)
(1.04144 0.00344756 0)
(1.04055 0.00853533 0)
(1.0441 0.0130893 0)
(1.05072 0.0167385 0)
(1.05996 0.0200695 0)
(1.07233 0.0227188 0)
(1.08315 0.0248674 0)
(1.07053 0.0252368 0)
(0.958619 0.0211741 0)
(0.640872 0.00714245 0)
(0.20402 -0.000324098 0)
(0.209969 0.000312029 0)
(0.632759 -0.00412796 0)
(0.95471 -0.0148136 0)
(1.07712 -0.0176105 0)
(1.09386 -0.0161998 0)
(1.08326 -0.0132183 0)
(1.06977 -0.00954478 0)
(1.05922 -0.00550166 0)
(1.05126 -0.00100208 0)
(1.04604 0.00386626 0)
(1.04456 0.00928941 0)
(1.047 0.0138529 0)
(1.05297 0.0175376 0)
(1.06238 0.0201614 0)
(1.07535 0.022532 0)
(1.08413 0.0241728 0)
(1.06349 0.0241224 0)
(0.933725 0.019332 0)
(0.605698 0.00601255 0)
(0.193439 5.34455e-05 0)
(0.20418 9.30516e-05 0)
(0.609498 -0.00309967 0)
(0.93675 -0.0124209 0)
(1.07394 -0.015432 0)
(1.09722 -0.0142399 0)
(1.08815 -0.0114099 0)
(1.07463 -0.00783947 0)
(1.06387 -0.0036482 0)
(1.05578 0.00130534 0)
(1.05055 0.00680437 0)
(1.04889 0.0114237 0)
(1.05123 0.0153395 0)
(1.05698 0.0183859 0)
(1.06571 0.0210688 0)
(1.07758 0.0230318 0)
(1.08425 0.0242093 0)
(1.05637 0.0234167 0)
(0.909415 0.0178607 0)
(0.574956 0.00538901 0)
(0.183605 0.000339919 0)
(0.199861 3.12728e-05 0)
(0.591853 -0.00217914 0)
(0.921816 -0.00998715 0)
(1.07132 -0.0129789 0)
(1.10073 -0.0118129 0)
(1.09297 -0.00900624 0)
(1.0793 -0.00529165 0)
(1.06834 -0.00127986 0)
(1.05993 0.00320271 0)
(1.05377 0.00769543 0)
(1.05133 0.0126091 0)
(1.05305 0.0167024 0)
(1.05842 0.0197758 0)
(1.06745 0.0217559 0)
(1.07987 0.0235202 0)
(1.08389 0.024347 0)
(1.04718 0.0229375 0)
(0.884611 0.0167163 0)
(0.54695 0.00503476 0)
(0.173954 0.000509328 0)
(0.196415 4.59691e-05 0)
(0.577395 -0.0014734 0)
(0.907673 -0.007873 0)
(1.06876 -0.010758 0)
(1.10446 -0.00959137 0)
(1.09828 -0.00677887 0)
(1.0846 -0.00319002 0)
(1.07312 0.000862061 0)
(1.06409 0.00560475 0)
(1.05805 0.0111186 0)
(1.05546 0.0158021 0)
(1.05674 0.0192987 0)
(1.06185 0.0216119 0)
(1.07032 0.0234783 0)
(1.08108 0.0246218 0)
(1.083 0.0249817 0)
(1.03754 0.0229953 0)
(0.859787 0.015981 0)
(0.521015 0.00491284 0)
(0.164449 0.000603403 0)
(0.194518 6.53282e-05 0)
(0.567285 -0.000678068 0)
(0.896569 -0.00570773 0)
(1.06668 -0.00827737 0)
(1.10832 -0.00690938 0)
(1.10346 -0.00392101 0)
(1.08961 1.93126e-05 0)
(1.07792 0.0042284 0)
(1.06871 0.008929 0)
(1.06141 0.0135289 0)
(1.05745 0.01794 0)
(1.05809 0.0213669 0)
(1.06263 0.0237042 0)
(1.07132 0.0249762 0)
(1.08231 0.0259706 0)
(1.08085 0.0257733 0)
(1.02542 0.0231879 0)
(0.834004 0.0155257 0)
(0.496035 0.00486892 0)
(0.154895 0.000636701 0)
(0.19392 0.000109931 0)
(0.560314 -0.000100432 0)
(0.887171 -0.00347856 0)
(1.06553 -0.00553458 0)
(1.11254 -0.00394757 0)
(1.10917 -0.000787914 0)
(1.0954 0.00308204 0)
(1.08307 0.00734761 0)
(1.07272 0.012126 0)
(1.0649 0.0173961 0)
(1.06107 0.0223048 0)
(1.06117 0.0252998 0)
(1.0656 0.0267858 0)
(1.07365 0.0277952 0)
(1.08182 0.0280148 0)
(1.07781 0.0273782 0)
(1.01258 0.0240457 0)
(0.807681 0.0154911 0)
(0.47168 0.00496594 0)
(0.145322 0.000658217 0)
(0.194658 7.29076e-05 0)
(0.556561 0.000949092 0)
(0.880969 -0.00141086 0)
(1.06512 -0.00287787 0)
(1.11725 -0.00085808 0)
(1.11511 0.002607 0)
(1.10115 0.00703185 0)
(1.08853 0.0117093 0)
(1.07813 0.0169079 0)
(1.06968 0.0220926 0)
(1.06351 0.0257154 0)
(1.06213 0.0283004 0)
(1.06527 0.0299636 0)
(1.07322 0.0304412 0)
(1.08191 0.0306309 0)
(1.07306 0.0293978 0)
(0.99675 0.02511 0)
(0.779728 0.0158211 0)
(0.446985 0.00515999 0)
(0.135434 0.000678031 0)
(0.197072 0.000345966 0)
(0.557198 0.00162872 0)
(0.87721 0.00115612 0)
(1.06647 0.000593079 0)
(1.12265 0.00297103 0)
(1.12165 0.00677257 0)
(1.10761 0.0113398 0)
(1.09429 0.0163532 0)
(1.0824 0.0215752 0)
(1.07198 0.026693 0)
(1.06593 0.0312716 0)
(1.06464 0.0339389 0)
(1.06785 0.034654 0)
(1.07472 0.0349724 0)
(1.07947 0.0341266 0)
(1.06707 0.0321444 0)
(0.979852 0.0269705 0)
(0.750528 0.0165352 0)
(0.4217 0.00547681 0)
(0.125173 0.000701221 0)
(0.201546 0.000693424 0)
(0.560406 0.00250855 0)
(0.878182 0.00369185 0)
(1.06941 0.00390847 0)
(1.12893 0.00712134 0)
(1.12888 0.0113836 0)
(1.1144 0.0167128 0)
(1.10042 0.0222639 0)
(1.08816 0.0282661 0)
(1.07755 0.0339376 0)
(1.06933 0.0380308 0)
(1.06522 0.0393795 0)
(1.066 0.0398508 0)
(1.07272 0.0392445 0)
(1.07815 0.0384366 0)
(1.05906 0.0357473 0)
(0.958981 0.0290937 0)
(0.718465 0.0176369 0)
(0.394785 0.00589232 0)
(0.11421 0.000722536 0)
(0.20847 0.000906041 0)
(0.56822 0.00368549 0)
(0.8827 0.00626864 0)
(1.07482 0.00834591 0)
(1.13637 0.0120055 0)
(1.13723 0.0169608 0)
(1.1224 0.0227443 0)
(1.10753 0.0289367 0)
(1.09361 0.0351412 0)
(1.08048 0.0408205 0)
(1.07019 0.0444389 0)
(1.0664 0.0462737 0)
(1.06782 0.0465456 0)
(1.07292 0.0459013 0)
(1.07324 0.0438559 0)
(1.049 0.0399564 0)
(0.936274 0.0321821 0)
(0.684134 0.0191289 0)
(0.366166 0.00640132 0)
(0.102546 0.000741731 0)
(0.217235 0.00111214 0)
(0.579935 0.00499883 0)
(0.891817 0.00940006 0)
(1.08303 0.0129119 0)
(1.14519 0.0178706 0)
(1.14653 0.0236243 0)
(1.13069 0.0304076 0)
(1.11453 0.0373722 0)
(1.09933 0.0444244 0)
(1.08492 0.0505892 0)
(1.07362 0.05468 0)
(1.06673 0.0555459 0)
(1.06501 0.0545435 0)
(1.06893 0.052467 0)
(1.06992 0.0503577 0)
(1.03647 0.0454155 0)
(0.908278 0.0355236 0)
(0.645206 0.0209161 0)
(0.334662 0.00691322 0)
(0.0899199 0.00074337 0)
(0.230152 0.00143651 0)
(0.598914 0.00694677 0)
(0.907239 0.013811 0)
(1.09453 0.0192366 0)
(1.15589 0.0248477 0)
(1.15748 0.0316659 0)
(1.14083 0.0392901 0)
(1.12331 0.047163 0)
(1.10599 0.0548527 0)
(1.08875 0.0613087 0)
(1.07382 0.0648061 0)
(1.06614 0.0649433 0)
(1.06514 0.0642145 0)
(1.06769 0.0621589 0)
(1.0617 0.0584367 0)
(1.02032 0.0517323 0)
(0.876881 0.0400707 0)
(0.602532 0.023085 0)
(0.300553 0.00746443 0)
(0.0765196 0.000747486 0)
(0.246335 0.00201166 0)
(0.623502 0.00872536 0)
(0.929522 0.0184021 0)
(1.11084 0.026094 0)
(1.16916 0.0337015 0)
(1.17016 0.041855 0)
(1.15141 0.0509596 0)
(1.13162 0.0599006 0)
(1.11192 0.0683818 0)
(1.0923 0.0748151 0)
(1.07547 0.0777712 0)
(1.06573 0.077629 0)
(1.06101 0.0752667 0)
(1.06109 0.0714875 0)
(1.05488 0.0672495 0)
(1.00102 0.0591368 0)
(0.838244 0.0445085 0)
(0.553113 0.0251579 0)
(0.262754 0.00781175 0)
(0.0622268 0.000712806 0)
(0.26884 0.00288692 0)
(0.656949 0.0126545 0)
(0.958503 0.0253954 0)
(1.13115 0.0361286 0)
(1.18506 0.0449426 0)
(1.18488 0.0550068 0)
(1.16418 0.0651734 0)
(1.14197 0.0750686 0)
(1.11902 0.0838137 0)
(1.0957 0.0902492 0)
(1.07557 0.0930111 0)
(1.06313 0.0914191 0)
(1.0591 0.088432 0)
(1.05806 0.084548 0)
(1.04198 0.0783151 0)
(0.975667 0.067575 0)
(0.794015 0.0502173 0)
(0.49869 0.0274092 0)
(0.222446 0.00801688 0)
(0.0476544 0.000690318 0)
(0.3009 0.00381672 0)
(0.703762 0.0156975 0)
(0.999509 0.0335122 0)
(1.15883 0.0474359 0)
(1.20503 0.0591761 0)
(1.20232 0.0716952 0)
(1.17755 0.0839015 0)
(1.15149 0.0947931 0)
(1.12506 0.10388 0)
(1.09854 0.109434 0)
(1.07522 0.109995 0)
(1.06114 0.107128 0)
(1.05295 0.103094 0)
(1.0481 0.0969663 0)
(1.02985 0.0897639 0)
(0.945954 0.0768313 0)
(0.739561 0.055114 0)
(0.434689 0.0287502 0)
(0.17865 0.00773568 0)
(0.0327669 0.000589631 0)
(0.338002 0.00718503 0)
(0.762078 0.0253084 0)
(1.04784 0.0471846 0)
(1.19157 0.0659003 0)
(1.2286 0.0794115 0)
(1.22112 0.0947055 0)
(1.19187 0.107582 0)
(1.1619 0.118537 0)
(1.13101 0.126582 0)
(1.09967 0.130631 0)
(1.07298 0.130286 0)
(1.05628 0.12606 0)
(1.04871 0.119913 0)
(1.04244 0.113429 0)
(1.00965 0.103682 0)
(0.906223 0.0864077 0)
(0.676753 0.0606552 0)
(0.367047 0.0298754 0)
(0.135181 0.00723492 0)
(0.0195314 0.000565006 0)
(0.419398 0.0110445 0)
(0.851365 0.0359321 0)
(1.11751 0.0687335 0)
(1.23351 0.0916177 0)
(1.25676 0.107878 6.08433e-34)
(1.24257 0.125401 -2.75352e-34)
(1.20659 0.138615 0)
(1.17119 0.148558 0)
(1.13571 0.155032 0)
(1.10088 0.15688 0)
(1.07111 0.153156 0)
(1.05203 0.145684 0)
(1.04023 0.138381 0)
(1.02752 0.129012 0)
(0.988344 0.116659 0)
(0.859994 0.0959069 0)
(0.599979 0.0636947 0)
(0.285801 0.0282754 0)
(0.0873741 0.00648478 0)
(0.00567015 0.000687881 0)
(0.491681 0.0261478 4.39287e-20)
(0.953947 0.0612242 -3.3323e-20)
(1.1861 0.102703 0)
(1.27516 0.130353 2.61315e-20)
(1.2862 0.14701 -2.11893e-20)
(1.26207 0.16626 2.90525e-34)
(1.2193 0.17727 0)
(1.17911 0.18498 1.5577e-20)
(1.13841 0.188752 -5.11989e-20)
(1.09786 0.187144 1.04811e-20)
(1.06384 0.180554 0)
(1.04291 0.172017 -2.67528e-20)
(1.03134 0.162369 -3.23004e-20)
(1.01521 0.152066 5.66346e-20)
(0.948977 0.135856 -4.47308e-20)
(0.782409 0.10562 0)
(0.488258 0.0647393 -1.60524e-20)
(0.19158 0.0252464 0)
(0.0401678 0.00601792 -8.88846e-20)
(-0.00881322 0.000196624 1.04752e-19)
(0.528738 0.0545632 -5.83413e-21)
(1.02305 0.103839 9.708e-20)
(1.24134 0.155216 -4.69967e-21)
(1.31069 0.179558 -6.26298e-20)
(1.3121 0.197017 -4.45961e-20)
(1.27936 0.214172 7.25376e-20)
(1.23027 0.222729 0)
(1.18419 0.228027 0)
(1.13812 0.229202 8.11312e-20)
(1.09371 0.225069 0)
(1.05708 0.216117 9.59664e-20)
(1.03252 0.204381 2.87064e-20)
(1.01427 0.192763 6.70552e-22)
(0.983381 0.178324 -6.11342e-20)
(0.902483 0.154795 0)
(0.704047 0.117452 0)
(0.394247 0.0648309 -2.60491e-19)
(0.128646 0.0218334 6.55085e-19)
(0.00708992 0.00374021 -3.87189e-19)
(-0.0195651 -0.00153406 -4.55996e-19)
(0.535919 0.0794047 -5.01089e-20)
(1.05465 0.16053 1.98238e-20)
(1.27474 0.214254 1.13954e-20)
(1.33785 0.238028 1.08514e-19)
(1.33264 0.255072 1.47429e-20)
(1.29217 0.268015 -1.88164e-19)
(1.23737 0.272313 6.44593e-20)
(1.18639 0.273843 0)
(1.13511 0.271316 -1.70847e-19)
(1.08495 0.263305 1.52489e-19)
(1.04314 0.250486 -2.58794e-19)
(1.01539 0.235613 1.21348e-19)
(0.996738 0.222003 -7.87485e-20)
(0.964835 0.205645 1.77758e-19)
(0.862816 0.177935 0)
(0.646236 0.127838 -6.45145e-20)
(0.33751 0.0649773 0)
(0.0994079 0.0197938 3.55639e-19)
(-0.00940333 0.000934435 -8.42044e-19)
(-0.025674 -0.00357513 5.26994e-19)
(0.534557 0.108836 1.23375e-19)
(1.08345 0.221132 -5.57355e-20)
(1.30126 0.282769 -1.24702e-20)
(1.35629 0.304505 0)
(1.34552 0.318108 -8.04735e-20)
(1.30026 0.325462 9.94846e-20)
(1.24118 0.324933 -6.85772e-20)
(1.18519 0.322283 0)
(1.1292 0.315826 1.21231e-19)
(1.07549 0.303701 -1.07015e-19)
(1.03082 0.286781 2.22971e-19)
(1.00127 0.269743 0)
(0.977356 0.253817 -1.66923e-19)
(0.933201 0.232546 9.42234e-20)
(0.828005 0.195681 2.36286e-19)
(0.605108 0.138254 -2.07784e-19)
(0.307659 0.0687184 3.27077e-19)
(0.089424 0.0204076 -7.23592e-19)
(-0.0184029 -0.00183267 4.57911e-19)
(-0.0306264 -0.00591835 -5.72498e-19)
(0.517147 0.133476 -3.21549e-20)
(1.08176 0.271585 2.24853e-20)
(1.30912 0.34554 -4.16505e-20)
(1.3659 0.369165 8.79072e-20)
(1.35239 0.381786 -8.57412e-20)
(1.30333 0.384159 3.0715e-20)
(1.24036 0.378795 3.91121e-21)
(1.18061 0.371714 -1.35032e-19)
(1.12066 0.360377 -1.26264e-19)
(1.06219 0.343393 -2.2864e-19)
(1.01314 0.322529 -4.7897e-19)
(0.980352 0.301834 -1.47794e-19)
(0.956058 0.282193 2.2936e-21)
(0.915541 0.258612 -3.20771e-19)
(0.800193 0.219544 -4.61058e-21)
(0.57806 0.149717 3.01241e-19)
(0.299369 0.0744961 -8.96837e-20)
(0.0878284 0.021919 -5.21944e-20)
(-0.0203409 -0.00479174 0)
(-0.0332706 -0.00805622 1.2115e-18)
(0.50359 0.156085 0)
(1.08402 0.325882 1.91324e-21)
(1.31467 0.412363 -4.60693e-21)
(1.36867 0.435045 -1.30787e-20)
(1.35225 0.445283 8.09758e-20)
(1.30099 0.442898 -7.27002e-20)
(1.23563 0.433013 7.432e-20)
(1.17275 0.421232 2.21969e-19)
(1.10947 0.405656 -7.01765e-20)
(1.04822 0.384329 1.12854e-19)
(0.996774 0.358967 2.57217e-19)
(0.962398 0.334967 3.22143e-19)
(0.934844 0.313506 -1.93826e-19)
(0.88442 0.284961 3.46948e-19)
(0.774162 0.236571 -2.74807e-19)
(0.559284 0.165141 0)
(0.295556 0.0822933 -6.81009e-19)
(0.0935635 0.0249327 9.19061e-19)
(-0.0153636 -0.00570823 6.85099e-20)
(-0.0324167 -0.00966221 -1.27973e-18)
(0.483563 0.17439 -5.26197e-21)
(1.06818 0.369894 -3.43187e-20)
(1.30874 0.470424 3.25847e-20)
(1.36594 0.496096 -5.75519e-20)
(1.34823 0.506173 6.91006e-20)
(1.29521 0.499757 -6.92485e-20)
(1.2276 0.485754 1.45748e-19)
(1.16238 0.470051 -6.55707e-20)
(1.09632 0.449839 -2.82632e-19)
(1.03137 0.42369 -1.5908e-23)
(0.976484 0.394162 -2.79298e-19)
(0.939021 0.367102 -3.4646e-19)
(0.909636 0.340411 2.14329e-19)
(0.865563 0.310523 -1.24547e-19)
(0.750448 0.262083 2.99055e-19)
(0.543187 0.180375 0)
(0.294892 0.0941276 -4.24284e-19)
(0.101856 0.0301802 6.26653e-19)
(-0.00740586 -0.0043268 1.1844e-18)
(-0.0293707 -0.0103363 -1.39349e-18)
(0.471588 0.193747 -1.23395e-19)
(1.06084 0.418457 5.66827e-20)
(1.30341 0.531037 -1.32696e-20)
(1.35937 0.556786 5.84177e-20)
(1.33977 0.565132 1.23222e-20)
(1.28557 0.555009 -1.34119e-19)
(1.21654 0.537452 -8.52125e-20)
(1.14937 0.517508 -8.51342e-20)
(1.08096 0.49348 -1.60063e-19)
(1.01372 0.463226 2.57939e-19)
(0.957106 0.429326 2.81695e-19)
(0.918305 0.398662 5.49622e-19)
(0.886449 0.37157 0)
(0.833432 0.337642 6.21649e-21)
(0.726232 0.279568 -8.22379e-19)
(0.529414 0.197672 1.93656e-19)
(0.294918 0.105928 9.22002e-19)
(0.110318 0.0370453 -2.72071e-19)
(0.00169484 -0.00156394 5.63762e-19)
(-0.0253752 -0.010227 -4.69726e-20)
(0.45675 0.209052 5.93634e-21)
(1.04236 0.457168 7.3524e-20)
(1.29141 0.583443 3.41798e-21)
(1.3498 0.612314 4.71821e-20)
(1.32935 0.620837 -1.19978e-19)
(1.27415 0.6075 1.31714e-19)
(1.20375 0.586558 8.80162e-20)
(1.13503 0.563413 2.53066e-19)
(1.06454 0.535521 3.20166e-19)
(0.994611 0.500958 -2.99409e-19)
(0.934883 0.463629 0)
(0.892692 0.429995 -2.08668e-19)
(0.859529 0.397273 2.39574e-19)
(0.814158 0.361885 3.02574e-19)
(0.704344 0.30605 -1.75294e-19)
(0.516392 0.213718 -4.24166e-19)
(0.295516 0.119035 -1.26109e-19)
(0.118325 0.0449145 -2.07755e-21)
(0.0106548 0.00221538 0)
(-0.0210308 -0.00950784 0)
(0.448709 0.226372 -9.85626e-20)
(1.03226 0.500084 0)
(1.28109 0.637696 1.95335e-20)
(1.3382 0.667248 -2.10709e-20)
(1.31636 0.674196 1.39836e-19)
(1.26041 0.657812 -3.47928e-20)
(1.18906 0.63412 8.93712e-20)
(1.11909 0.60747 -1.70624e-19)
(1.04696 0.576289 2.42769e-19)
(0.974964 0.538286 -9.99865e-20)
(0.913016 0.496652 1.61884e-19)
(0.870292 0.458779 6.63378e-19)
(0.836614 0.426012 1.41357e-20)
(0.782427 0.387479 -3.16487e-19)
(0.681703 0.32161 5.84693e-19)
(0.502503 0.231523 2.8698e-21)
(0.293254 0.131132 1.3492e-19)
(0.124123 0.0530754 -6.42968e-19)
(0.0182997 0.00636154 6.62379e-19)
(-0.0169431 -0.00844481 -7.80327e-19)
(0.440181 0.241372 3.33328e-23)
(1.0159 0.534763 0)
(1.26662 0.684164 0)
(1.32497 0.71707 6.76021e-21)
(1.30257 0.72427 -3.89512e-20)
(1.24601 0.70534 5.99755e-20)
(1.17384 0.678839 -1.63771e-19)
(1.10283 0.649565 0)
(1.02874 0.615405 -3.58578e-19)
(0.953936 0.573893 4.34881e-19)
(0.889622 0.529263 4.64545e-19)
(0.844313 0.48852 -2.43643e-19)
(0.808785 0.449443 -2.95688e-19)
(0.763568 0.408333 6.93738e-19)
(0.660045 0.34655 -2.0827e-19)
(0.488057 0.245927 -2.47442e-19)
(0.290319 0.143405 -1.47736e-19)
(0.127889 0.0609201 -6.95662e-19)
(0.0243061 0.0104234 1.01949e-19)
(-0.013394 -0.00727132 8.45977e-19)
(0.434248 0.257268 -4.65399e-20)
(1.00563 0.57283 -6.35104e-20)
(1.25419 0.732224 2.40478e-20)
(1.31083 0.766257 -1.99495e-22)
(1.28747 0.771933 -4.79122e-20)
(1.23044 0.750443 9.15932e-20)
(1.1576 0.721787 0)
(1.08549 0.689817 1.04128e-19)
(1.00996 0.653028 -8.21053e-20)
(0.933935 0.608702 7.27602e-19)
(0.868097 0.56011 -1.04135e-19)
(0.821348 0.514593 1.20863e-19)
(0.78608 0.475877 0)
(0.73228 0.431626 -3.75861e-19)
(0.637258 0.358458 4.5515e-19)
(0.472778 0.261886 0)
(0.284494 0.153246 -3.17942e-19)
(0.129108 0.0678079 9.36153e-19)
(0.0284534 0.0139456 1.11293e-19)
(-0.0105142 -0.0061628 -1.04403e-18)
(0.42898 0.274429 -1.14205e-19)
(0.991473 0.604044 1.43563e-19)
(1.239 0.772925 0)
(1.29602 0.810342 3.48577e-20)
(1.27232 0.816407 0)
(1.2148 0.793027 -1.23908e-19)
(1.1414 0.762124 0)
(1.06858 0.727976 0)
(0.991696 0.688975 -1.10411e-19)
(0.913376 0.642129 -6.92031e-19)
(0.844236 0.590874 -8.60036e-19)
(0.794864 0.542677 1.42049e-19)
(0.757402 0.497126 5.13769e-19)
(0.713164 0.448459 4.14574e-19)
(0.614811 0.380514 -1.46182e-18)
(0.456459 0.272134 -5.82075e-19)
(0.277409 0.162491 3.41637e-19)
(0.128586 0.0734527 0)
(0.0310604 0.0169397 9.57527e-19)
(-0.00828116 -0.00519866 -1.12682e-18)
(0.426321 0.290106 1.33673e-19)
(0.982766 0.638476 -1.64551e-19)
(1.22594 0.815428 0)
(1.28102 0.853876 -1.15754e-20)
(1.25657 0.858585 -8.44106e-21)
(1.19875 0.833117 0)
(1.12496 0.800524 5.10519e-20)
(1.05145 0.764404 7.34688e-20)
(0.973508 0.723455 -2.06664e-19)
(0.893722 0.674461 9.13876e-20)
(0.822404 0.619441 0)
(0.771552 0.566598 5.8986e-19)
(0.734412 0.521051 6.7652e-21)
(0.681069 0.468847 2.23933e-19)
(0.591713 0.386723 2.64976e-19)
(0.440804 0.283509 0)
(0.269683 0.168458 -5.55483e-19)
(0.127006 0.0778802 1.09125e-18)
(0.0326174 0.019153 -1.15966e-18)
(-0.00656954 -0.00439879 2.42918e-18)
(0.423948 0.304935 0)
(0.970622 0.66642 0)
(1.21103 0.851017 -8.18232e-20)
(1.26598 0.892467 0)
(1.24127 0.897731 0)
(1.18309 0.870969 -9.67673e-20)
(1.10904 0.836672 5.22059e-20)
(1.03515 0.798777 1.80044e-20)
(0.955947 0.756232 -4.68813e-20)
(0.873432 0.705431 0)
(0.798538 0.648552 -1.32003e-19)
(0.744807 0.59329 -4.81197e-19)
(0.704194 0.539591 -5.8023e-19)
(0.661001 0.480474 -2.33482e-19)
(0.568892 0.404201 2.87099e-19)
(0.423954 0.288166 -6.75734e-19)
(0.260673 0.173801 1.19159e-18)
(0.124147 0.0806719 1.41849e-21)
(0.0334836 0.0217423 -1.10907e-18)
(-0.00500467 -0.00306281 -1.6393e-19)
(0.422529 0.318702 0)
(0.962815 0.697347 -1.3187e-19)
(1.19837 0.888533 9.85277e-20)
(1.2512 0.930779 0)
(1.22583 0.934823 0)
(1.16752 0.906354 1.91165e-19)
(1.09337 0.870753 0)
(1.01892 0.831499 0)
(0.938503 0.787586 -4.55362e-19)
(0.854451 0.735319 1.28127e-19)
(0.777415 0.675401 -1.1721e-18)
(0.721155 0.61563 0)
(0.680392 0.56132 -6.33749e-19)
(0.627083 0.497348 9.43731e-21)
(0.544764 0.40242 -9.26793e-19)
(0.408822 0.292181 3.63108e-19)
(0.254617 0.172319 1.17923e-21)
(0.123862 0.0797886 -1.25501e-18)
(0.0344681 0.0193443 5.95704e-19)
(-0.00675043 -0.00579701 1.75386e-19)
(0.420837 0.33219 0)
(0.952107 0.722465 -1.76042e-19)
(1.1844 0.919507 1.03303e-19)
(1.23676 0.964386 1.499e-19)
(1.21117 0.969088 -2.66088e-21)
(1.15262 0.939777 1.87762e-20)
(1.07831 0.902957 -2.84199e-20)
(1.00348 0.862287 4.26548e-19)
(0.92189 0.81723 4.87109e-19)
(0.835362 0.763896 9.75158e-19)
(0.754403 0.702936 9.73851e-19)
(0.694038 0.64154 1.71874e-19)
(0.648069 0.577938 9.11011e-19)
(0.604629 0.503707 5.63075e-19)
(0.519949 0.41335 6.64761e-19)
(0.393656 0.286642 -3.97043e-19)
(0.250783 0.166779 -4.52594e-19)
(0.131841 0.0812588 5.41392e-19)
(0.0466759 0.032293 -3.20337e-19)
(0.00295652 0.00564701 5.69025e-19)
(0.419647 0.345153 2.44324e-19)
(0.945203 0.750512 2.76126e-19)
(1.17263 0.95266 5.85828e-20)
(1.22278 0.998048 1.51991e-20)
(1.19659 1.00159 -2.62117e-20)
(1.13797 0.970839 -5.24327e-20)
(1.06367 0.933006 2.69699e-20)
(0.988401 0.891476 -1.83586e-20)
(0.905727 0.84558 -5.69195e-19)
(0.817765 0.791469 -1.05902e-18)
(0.734359 0.728491 6.766e-20)
(0.670323 0.663005 0)
(0.623114 0.598569 0)
(0.566484 0.518727 -2.94411e-19)
(0.49088 0.401583 -1.09267e-18)
(0.376651 0.277323 8.55405e-19)
(0.25394 0.150167 4.99063e-19)
(0.149224 0.0560135 0)
(0.0655931 -0.00192243 1.02552e-18)
(-0.00435724 -0.022853 -6.06159e-19)
(0.418159 0.357822 -1.29723e-19)
(0.935852 0.773099 1.13984e-19)
(1.15977 0.979601 -1.3937e-19)
(1.20927 1.02723 -1.19664e-19)
(1.18291 1.03146 -2.49912e-20)
(1.12411 1.00019 -1.66497e-20)
(1.04971 0.961544 0)
(0.974149 0.918946 -5.37352e-19)
(0.890569 0.872301 6.80493e-20)
(0.800297 0.817696 0)
(0.712868 0.75469 0)
(0.643489 0.688753 1.1067e-19)
(0.588026 0.614886 1.48475e-19)
(0.539189 0.521634 -3.19061e-19)
(0.459316 0.408371 7.83777e-19)
(0.35297 0.255587 -9.32972e-19)
(0.244353 0.124193 -1.07372e-18)
(0.179438 0.0500405 9.51708e-19)
(0.14332 0.0590923 -3.64332e-19)
(0.107171 0.0717166 2.11951e-19)
(0.417124 0.369661 1.5958e-19)
(0.929815 0.798399 0)
(1.14895 1.00899 0)
(1.19629 1.0568 -3.39231e-20)
(1.16938 1.05986 2.746e-20)
(1.11058 1.02733 -1.93008e-20)
(1.03633 0.987899 1.26496e-19)
(0.960547 0.944871 5.50168e-19)
(0.876063 0.897844 1.03496e-18)
(0.784466 0.842981 -8.05228e-20)
(0.694589 0.779176 1.67192e-19)
(0.620661 0.710135 -9.94268e-19)
(0.562541 0.636341 -9.94297e-19)
(0.494391 0.538804 -1.72016e-19)
(0.414624 0.388798 0)
(0.322019 0.239913 -3.38932e-21)
(0.232025 0.0476761 5.93919e-19)
(0.233891 -0.05747 -9.95268e-19)
(0.202983 -0.121238 7.55873e-19)
(0.0887688 -0.103242 6.25362e-19)
(0.415624 0.381286 -3.51268e-19)
(0.921391 0.818402 -1.57385e-19)
(1.13701 1.03243 6.83291e-21)
(1.18369 1.08224 6.45052e-20)
(1.15666 1.08609 0)
(1.0977 1.05338 -3.59087e-20)
(1.02342 1.01356 -1.84878e-19)
(0.947402 0.96987 -2.14629e-21)
(0.862134 0.922508 -5.42354e-19)
(0.768254 0.867669 -7.9215e-20)
(0.674237 0.804929 7.358e-20)
(0.594261 0.737501 8.73817e-19)
(0.523745 0.655401 9.69462e-19)
(0.459785 0.541405 1.68481e-19)
(0.37306 0.402571 8.56381e-19)
(0.263696 0.202694 0)
(0.138551 0.0209359 0)
(-0.0195176 0.160054 6.76942e-19)
(-0.0785413 0.628577 -2.59789e-20)
(0.0107964 1.54903 -8.44062e-19)
(0.414695 0.392113 1.93363e-19)
(0.91602 0.841343 4.46089e-19)
(1.12697 1.05895 -6.20087e-19)
(1.17151 1.10884 3.18833e-19)
(1.14388 1.11168 -1.29525e-20)
(1.08491 1.07804 1.48382e-20)
(1.0108 1.03783 0)
(0.93461 0.994315 -4.5825e-19)
(0.848432 0.947294 0)
(0.753246 0.893023 1.11266e-18)
(0.656749 0.830915 -9.07099e-20)
(0.571424 0.761964 1.01717e-19)
(0.497548 0.683105 1.12259e-18)
(0.404018 0.572405 -3.66015e-19)
(0.285681 0.382084 -4.34007e-19)
(0.175028 0.248759 0)
(0.069338 0.438497 0)
(0.0233852 1.37546 0)
(0.070834 2.47868 -3.83785e-19)
(0.0958966 2.91817 -2.3759e-19)
(0.412972 0.402501 0)
(0.908246 0.858925 0)
(1.11578 1.07945 2.25339e-19)
(1.15975 1.13137 -2.59873e-19)
(1.132 1.1353 1.23665e-19)
(1.07288 1.10193 -4.76053e-21)
(0.998704 1.06188 2.46141e-20)
(0.922221 1.01823 -1.91636e-20)
(0.835351 0.971513 7.75533e-20)
(0.737963 0.91812 -1.27712e-18)
(0.637017 0.85827 1.64152e-19)
(0.545362 0.793983 8.84366e-19)
(0.454359 0.710105 -1.11778e-18)
(0.36398 0.576906 -1.23735e-18)
(0.260113 0.436966 4.14854e-19)
(0.174819 0.594996 0)
(0.109276 1.60418 5.58048e-19)
(0.115287 2.70516 5.96765e-19)
(0.122626 3.09185 -6.6631e-19)
(0.115637 3.22404 7.06271e-19)
(0.411851 0.412628 0)
(0.903446 0.879585 3.87469e-19)
(1.10655 1.1034 -5.64057e-20)
(1.14849 1.15536 3.55934e-19)
(1.12013 1.15843 -1.29807e-19)
(1.06098 1.12439 0)
(0.986989 1.08424 0)
(0.910419 1.04128 0)
(0.822773 0.995591 4.32894e-19)
(0.724369 0.943701 5.8604e-20)
(0.621349 0.885926 0)
(0.524356 0.821493 -8.78655e-19)
(0.434643 0.744025 0)
(0.305668 0.620055 8.84847e-19)
(0.195712 0.665145 -6.02203e-19)
(0.139517 1.47046 -4.80582e-19)
(0.145247 2.69135 -1.0945e-18)
(0.169177 3.12582 -5.73729e-19)
(0.159866 3.26434 -7.66243e-19)
(0.147399 3.30448 5.47032e-19)
(0.410093 0.421727 -1.34436e-19)
(0.896177 0.894749 1.4475e-20)
(1.09612 1.12112 -6.23545e-20)
(1.13766 1.17518 -2.76411e-19)
(1.1092 1.17964 0)
(1.04992 1.14625 0)
(0.975842 1.10669 0)
(0.898977 1.064 3.26741e-20)
(0.810845 1.01912 -5.47703e-19)
(0.710586 0.96889 0)
(0.603503 0.91424 0)
(0.502242 0.856959 0)
(0.388341 0.771926 0)
(0.308647 0.713215 6.53619e-19)
(0.261257 1.12659 1.59719e-18)
(0.233238 2.40958 4.65875e-19)
(0.252178 3.08067 9.27933e-19)
(0.24662 3.27641 -7.10374e-19)
(0.198962 3.34161 2.58232e-19)
(0.167736 3.35506 0)
(0.408849 0.430701 1.37934e-19)
(0.891777 0.91388 -8.5528e-19)
(1.08751 1.14349 -2.31178e-19)
(1.1271 1.19752 -5.15015e-20)
(1.098 1.20115 3.00241e-20)
(1.03871 1.16724 -1.25035e-19)
(0.964861 1.12775 1.80368e-22)
(0.88807 1.08611 -3.55169e-19)
(0.799385 1.0428 0)
(0.698549 0.994877 -7.5787e-20)
(0.590412 0.943762 6.8946e-20)
(0.484525 0.885933 0)
(0.385548 0.816111 0)
(0.31978 0.909406 -8.19489e-19)
(0.262086 1.85106 1.04791e-19)
(0.259006 2.94558 -3.51306e-19)
(0.285149 3.2788 7.34756e-19)
(0.256024 3.37696 5.22117e-19)
(0.192337 3.40172 -7.0392e-19)
(0.168151 3.41222 3.46106e-19)
(0.406654 0.439936 2.69587e-19)
(0.883899 0.928271 8.30615e-19)
(1.07659 1.1604 2.78419e-19)
(1.11607 1.21678 0)
(1.08699 1.22211 0)
(1.02766 1.18905 9.67488e-20)
(0.953826 1.15036 4.81094e-20)
(0.876881 1.1091 3.15994e-19)
(0.788072 1.06679 2.11197e-20)
(0.685986 1.02099 9.64282e-19)
(0.575058 0.973203 -1.15569e-18)
(0.46165 0.918773 0)
(0.380321 0.891355 0)
(0.332274 1.29322 -5.6059e-19)
(0.324899 2.49985 -6.71159e-19)
(0.371191 3.19183 0)
(0.396679 3.3583 -7.42742e-19)
(0.325564 3.42144 5.17733e-20)
(0.257955 3.46757 3.37725e-19)
(0.236083 3.49316 -1.08926e-19)
(0.404787 0.449488 -5.11944e-19)
(0.878919 0.949456 -3.98089e-19)
(1.06693 1.1852 0)
(1.10429 1.24104 0)
(1.0746 1.2451 0)
(1.01543 1.21117 0)
(0.942084 1.1723 -5.89394e-20)
(0.865612 1.13213 2.75014e-19)
(0.776666 1.09156 0)
(0.674796 1.04841 -8.77426e-19)
(0.564377 1.00487 2.07602e-18)
(0.453409 0.959305 8.53751e-20)
(0.397365 1.01746 1.15684e-19)
(0.383256 1.7358 9.1348e-19)
(0.393201 2.90145 -4.91309e-19)
(0.434547 3.30975 0)
(0.417322 3.43047 2.09413e-19)
(0.331382 3.52008 9.08603e-20)
(0.258608 3.58487 1.4834e-19)
(0.183028 3.56429 -1.70806e-20)
(0.401695 0.459589 2.43088e-19)
(0.869038 0.964704 -4.03721e-19)
(1.05393 1.203 0)
(1.09154 1.26148 -7.52535e-20)
(1.06208 1.26755 2.6031e-19)
(1.00307 1.23453 0)
(0.929998 1.19646 0)
(0.853651 1.15649 -4.76988e-19)
(0.765119 1.11675 -5.58281e-20)
(0.662918 1.07573 8.62652e-19)
(0.549024 1.03466 -9.86458e-19)
(0.452395 1.00787 5.83569e-19)
(0.411453 1.20433 0)
(0.418856 2.18489 -4.84873e-19)
(0.460372 3.14014 3.17492e-19)
(0.526449 3.4106 1.99805e-19)
(0.516952 3.50587 0)
(0.454658 3.58918 -3.63348e-20)
(0.386396 3.62817 -4.07882e-19)
(0.306152 3.60071 -9.6452e-20)
(0.398913 0.469862 -4.8174e-19)
(0.862956 0.988876 5.77441e-19)