/*--------------------------------*- C++ -*----------------------------------*\
  =========                 |
  \\      /  F ield         | OpenFOAM: The Open Source CFD Toolbox
   \\    /   O peration     | Website:  https://openfoam.org
    \\  /    A nd           | Version:  10
     \\/     M anipulation  |
\*---------------------------------------------------------------------------*/
FoamFile
{
    format      ascii;
    class       volScalarField;
    location    "58";
    object      p;
}
// * * * * * * * * * * * * * * * * * * * * * * * * * * * * * * * * * * * * * //

dimensions      [0 2 -2 0 0 0 0];

internalField   nonuniform List<scalar> 
918
(
0.556329
1.18646
0.000589739
0.555756
-0.00934059
1.15345
-0.508623
0.677758
0.536519
-0.110115
-0.0443054
0.536115
1.01428
0.780211
-1.12526
-0.00994355
0.651506
-0.383962
0.535613
-0.0546768
0.703148
0.543067
0.546093
0.536673
0.600464
0.754555
0.895545
0.0215926
0.0114013
0.00499365
-0.0149669
-0.0368606
-0.0310486
1.03709
1.08818
1.11089
0.504367
0.331543
-0.374041
-0.445425
-0.435816
-0.547219
0.673164
0.671189
-0.205407
0.680947
0.684254
0.523573
0.535886
0.536795
0.537827
0.536805
0.538188
0.40385
-0.112732
-0.144727
-0.0905227
-0.0817253
0.0548974
-0.0446786
-0.0473758
-0.0429906
-0.042504
0.453692
0.530413
0.527346
0.541372
0.552074
1.12601
1.09793
1.12407
1.0378
1.05425
0.992254
0.964879
0.800722
0.822846
0.765916
0.751632
-1.55822
-2.51139
-0.534425
-0.283337
-0.0152997
-0.00786818
-0.00186952
0.647989
0.648711
0.651162
0.654729
1.07974
-0.380899
-0.481427
0.535753
0.534559
0.542893
0.543593
0.539611
0.538702
-0.0448134
-0.0407434
-0.0470545
-0.0504708
-0.0499968
0.692102
0.692323
0.537203
0.534209
0.559172
0.579813
0.571122
0.278412
0.608661
0.623488
0.586269
0.746391
0.740981
0.749558
0.869192
0.833289
0.932386
0.955567
0.0174203
-0.00094896
-0.0150419
-0.0189467
-0.0178594
0.500212
0.492776
0.520019
0.507791
0.510289
0.247988
0.114216
0.416725
0.441801
-0.291853
-0.356358
-0.431269
-0.460304
-0.5679
0.610698
0.666634
0.663706
-0.21772
-0.145257
-0.277339
-0.0716376
-0.134053
0.513857
0.520856
0.515863
0.531395
0.525866
0.527828
0.540151
0.537223
0.538783
0.466253
0.590033
0.329987
0.294809
-0.246982
-0.161495
-0.247719
-0.0693165
-0.0643883
0.0687293
0.0940998
0.0419579
0.0302464
-0.0583186
-0.0500916
-0.0539372
-0.041527
-0.04078
0.446475
0.435321
0.466362
0.473896
0.518543
0.519929
0.524144
0.522222
0.915633
0.938077
0.945599
0.919267
-3.50308
-6.28849
0.041923
0.178634
-0.00632672
-0.0104173
0.00497348
-0.010687
-0.00291189
-0.00451894
-0.00513185
-0.00669445
-0.00200494
-0.000649778
0.641558
0.642424
1.00123
1.00717
0.977829
0.930287
0.523942
0.526022
0.531532
0.527409
-0.0405532
-0.0408949
-0.0407608
0.68678
0.690878
0.689427
0.240219
0.151051
0.329142
0.358058
0.635045
0.623211
0.633374
0.647514
0.684137
0.963014
0.981224
0.979421
0.987716
1.03168
1.04802
1.01349
0.479706
0.489664
0.484628
0.52313
0.5209
0.521805
0.517602
0.518935
0.516876
-0.0365497
-0.417298
0.489863
0.507267
0.491447
0.4947
0.690748
0.769139
0.655004
0.659758
0.658436
-0.00312966
-0.0614757
0.25045
0.216759
0.386253
0.422542
0.401571
0.887004
0.847056
0.897264
0.870523
0.831694
0.857945
-0.36897
-1.87085
-0.988696
0.529091
0.343121
0.430754
0.0121584
-0.00480966
-0.000241454
1.00026
1.07343
0.645882
0.82018
0.823352
0.718378
0.747065
0.807586
0.733806
0.76834
0.801619
0.779165
0.567011
0.503127
0.51895
0.838313
0.894018
0.121618
0.0611637
0.0171682
0.112735
0.169744
0.14398
1.03403
0.948039
1.01842
0.533969
0.534685
-0.00353555
-0.0179641
0.538913
0.538966
-0.0162115
-0.00320574
0.413172
-0.83372
0.103176
0.527476
0.517436
0.534534
-0.0928539
0.355453
-0.0452906
0.049893
-0.00557441
0.531565
0.464766
0.424032
0.00143128
-0.0187371
-0.0451599
-0.21642
0.531639
0.529944
0.534001
0.534949
0.535626
-0.0171636
-0.012418
-0.00931456
-0.0432901
-0.0384507
-0.0481585
0.498539
0.517421
-0.17063
0.534146
0.536278
0.536097
0.529344
0.534981
0.533228
-0.00963643
-0.0160989
-0.0175431
0.221497
0.351496
0.652915
0.740787
0.624539
0.400319
0.164792
0.556235
0.619286
0.525163
0.678604
0.662692
0.67788
0.16867
0.0184027
0.177013
0.118284
0.525334
0.524038
0.515691
0.512665
0.529398
0.527509
0.532071
0.529083
0.532035
0.533421
-0.0503958
-0.0756761
-0.0874641
-0.156745
0.3101
0.571874
0.253107
0.283534
0.142737
-0.039797
-0.0407538
-0.0444334
-0.0501566
0.00313408
-0.0205697
0.0449065
0.0455397
0.0179699
-0.00814234
-0.00459636
-0.0154929
-0.011769
0.524749
0.523662
0.529005
0.537878
0.474382
0.478158
0.443114
0.463802
0.449097
0.388008
0.423196
0.398419
-0.00686276
0.00360745
-0.00417433
-0.0159248
-0.0119651
-0.0311736
-0.0276605
-0.0239
-0.0194967
-0.0261988
-0.0404996
-0.0420724
-0.173767
-0.288513
0.988027
0.910339
0.134455
0.520795
0.527245
0.52401
0.528911
0.532039
0.532847
0.530564
0.527117
0.517769
0.519311
0.516119
0.516992
-0.102627
-0.242997
-0.0711083
-0.143939
0.142904
0.626765
0.363421
0.299837
0.294818
0.522475
0.917896
0.702917
0.677836
0.688242
-0.343582
0.0469037
-0.279202
0.336613
0.163355
0.653922
0.70161
0.72145
0.670825
0.624435
-0.104753
0.554255
-0.0697433
-0.0187097
0.181862
0.0605992
0.67347
0.648274
0.652236
0.668897
0.684964
0.654446
0.639778
0.634834
0.664543
0.666651
0.488123
0.252331
0.203798
0.165256
0.641685
0.523393
0.576599
0.493486
0.52052
0.523132
0.521765
0.503358
0.510926
0.506461
0.512976
0.516454
0.525112
0.525564
0.520862
0.522994
-0.0554043
-0.0593272
-0.0307487
-0.139256
-0.132618
-0.19538
-0.0646061
0.0737862
0.0342934
0.23546
0.34043
0.0513239
-0.0597215
-0.0325088
0.00928266
0.178747
0.205642
0.0745312
0.162772
0.1524
0.135048
0.236898
0.240979
-0.0246226
-0.0284768
-0.0315885
-0.0338791
0.0208863
0.0910808
0.100888
-0.00223178
-0.00820797
-0.0377306
-0.0372708
-0.0212116
-0.025907
-0.022088
0.0106139
-0.0510073
-0.0182624
-0.00398671
0.000753928
-0.00171988
-0.00723319
0.517187
0.519685
0.519232
0.525022
0.541903
0.556625
0.517644
0.496543
0.487351
0.490362
0.463273
0.473603
0.469259
0.483003
0.504169
0.513848
0.511111
0.513929
0.496295
0.498007
0.484501
0.488219
0.462952
0.443898
0.432042
-0.0406033
-0.00231431
-0.00997675
-0.0363847
-0.00732751
-0.0192229
-0.00749472
0.0108362
-0.00500038
-0.0068688
-0.0168177
-0.0234232
-0.0229191
-0.0754153
0.0108122
-0.184491
-0.220561
-0.292763
0.889825
1.01387
0.809849
0.582959
0.60237
0.84561
0.930358
0.543159
0.735015
0.758427
0.5857
0.852776
0.525629
0.525231
0.522831
0.522311
0.523527
-0.00791605
0.0977121
0.0975743
0.159521
0.274789
0.386788
0.317003
0.192515
0.322908
0.325448
0.619105
0.631246
0.586732
0.610898
0.610356
0.425391
0.501154
0.553306
0.511748
0.56413
0.58527
0.54012
0.572659
0.522864
0.477727
0.473595
0.424276
0.443928
0.420035
0.403023
0.515009
0.492546
0.503039
0.493369
0.512346
0.539731
0.535097
0.561378
0.575201
0.497106
0.452461
0.461832
0.492164
0.453087
0.468232
0.484745
0.229954
0.131526
0.214373
-0.0723955
0.000542215
-0.0127419
-0.0609351
-0.0108747
0.273783
-0.418748
-0.394989
-1.02322
0.500361
0.953312
0.614658
0.587533
0.682511
0.664769
0.669595
0.685996
0.689359
0.630245
0.642434
0.646074
0.608139
0.630121
0.649119
0.646169
0.524144
0.3858
0.383419
0.333369
0.203506
0.242438
0.441003
0.364147
0.288855
0.289524
0.45802
0.344842
0.414214
0.449044
0.38052
0.334864
0.537872
0.602773
0.595529
0.569921
0.483843
0.497226
0.521091
0.555326
0.580818
0.611426
0.512421
0.518333
0.519568
0.51705
0.514317
0.517366
0.5176
0.520144
0.520807
0.523792
0.522835
-0.0447851
-0.0328288
-0.0462295
-0.0543237
-0.020589
-0.0235131
0.0195372
0.00506137
-0.0120351
-0.00632281
-0.0312354
-0.0355488
-0.0309915
-0.0222373
0.0987115
0.1113
0.0945229
0.0548902
0.248873
0.37867
0.453134
0.328293
0.221021
0.244119
0.264332
-0.0119698
0.0148489
0.00176694
0.0410263
0.0326883
-0.0320871
-0.0363525
-0.0336481
-0.0266013
-0.0171056
-0.0336176
-0.0367862
-0.0280138
-0.0326849
-0.0346651
-0.0386518
0.498803
0.492277
0.493998
0.487807
0.486517
0.500923
0.505168
0.507157
0.512671
0.515056
0.504994
0.510846
0.514739
-0.00852321
-0.0314034
-0.035429
-0.0240331
-0.0268862
-0.0249345
-0.0264816
0.122162
0.0516285
0.0563928
0.00836482
-0.122815
-0.0651854
0.489863
0.488973
0.478836
0.719598
0.568913
0.489433
0.586561
0.692203
0.27454
0.471605
0.306357
0.887291
0.783374
0.929807
0.541086
0.243016
0.404708
0.44948
0.261364
0.336252
0.32548
0.214141
0.245207
0.281988
0.381258
0.263407
0.239787
-0.00298711
0.187241
0.299714
0.281552
0.40658
0.467682
0.264101
0.183835
0.138882
0.604422
0.623689
0.637943
0.610174
0.63122
0.577648
0.568498
0.585034
0.593709
0.589097
-0.751128
-0.457666
-1.40389
-0.7247
-0.270793
0.530618
0.500366
0.766931
0.646693
0.689062
0.67451
0.633767
0.602586
0.623826
0.648711
0.345396
0.456592
0.431767
0.436893
0.338727
0.269722
0.567835
0.563814
0.596853
0.62014
0.591767
0.621369
0.510242
0.509958
0.509428
0.505684
0.503958
0.506314
0.0575828
0.0260191
0.0628127
0.0433499
0.0201296
0.00820354
-0.00473995
-0.0145317
-0.021758
-0.0218341
-0.00837023
-0.00426677
0.169524
0.107885
0.0276603
0.0576246
-0.00337347
-0.0723197
-0.0907294
0.0132914
0.109639
0.0999061
0.403992
0.653906
0.473879
0.641345
0.483517
0.53927
0.467477
0.458973
0.484409
0.377996
0.458448
0.24196
-0.265028
-0.174095
0.789759
0.802316
0.579561
0.402038
0.170845
0.351856
0.543445
0.475074
0.511302
0.580298
0.568553
0.0228079
0.0827282
0.362972
0.590027
0.23725
0.22836
0.222152
0.403993
0.323735
)
;

boundaryField
{
    wall-4
    {
        type            zeroGradient;
    }
    velocity-inlet-5
    {
        type            zeroGradient;
    }
    velocity-inlet-6
    {
        type            zeroGradient;
    }
    pressure-outlet-7
    {
        type            fixedValue;
        value           uniform 0;
    }
    wall-8
    {
        type            zeroGradient;
    }
    frontAndBackPlanes
    {
        type            empty;
    }
}


// ************************************************************************* //
