/*--------------------------------*- C++ -*----------------------------------*\
  =========                 |
  \\      /  F ield         | OpenFOAM: The Open Source CFD Toolbox
   \\    /   O peration     | Website:  https://openfoam.org
    \\  /    A nd           | Version:  10
     \\/     M anipulation  |
\*---------------------------------------------------------------------------*/
FoamFile
{
    format      ascii;
    class       volVectorField;
    location    "62";
    object      U;
}
// * * * * * * * * * * * * * * * * * * * * * * * * * * * * * * * * * * * * * //

dimensions      [0 1 -1 0 0 0 0];

internalField   nonuniform List<vector> 
8800
(
(0.980138 -0.0915206 0)
(1.00234 -0.05873 0)
(0.999582 -0.032129 0)
(0.999977 -0.0165222 0)
(1.00007 -0.00884215 0)
(1.00009 -0.00509812 0)
(1.00006 -0.00299464 0)
(1.00002 -0.00168321 0)
(1 -0.000780558 0)
(1.00006 -8.08994e-05 0)
(0.999986 0.000628648 0)
(0.999994 0.00138507 0)
(1.00002 0.00240924 0)
(1.00005 0.00400867 0)
(1.00004 0.0067511 0)
(0.999996 0.0120514 0)
(0.999798 0.0230947 0)
(0.999031 0.0431559 0)
(1.00724 0.0790252 0)
(0.775026 0.0478395 0)
(0.358993 -0.0147482 0)
(1.04651 -0.0724803 0)
(1.08847 -0.066017 0)
(1.04944 -0.0509098 0)
(1.02554 -0.0376887 0)
(1.01275 -0.0258833 0)
(1.00659 -0.0166865 0)
(1.00364 -0.0101938 0)
(1.00219 -0.00555925 0)
(1.00151 -0.00196152 0)
(1.00138 0.0012536 0)
(1.00173 0.00456482 0)
(1.0027 0.0084539 0)
(1.00475 0.0137611 0)
(1.00898 0.0214309 0)
(1.01794 0.0319171 0)
(1.03579 0.0446866 0)
(1.06741 0.0581263 0)
(1.09468 0.0699536 0)
(0.845613 0.0555087 0)
(0.217808 -0.0013801 0)
(1.07569 -0.0506393 0)
(1.09942 -0.0489194 0)
(1.0644 -0.0400002 0)
(1.03992 -0.0325387 0)
(1.02383 -0.0253219 0)
(1.01404 -0.0180961 0)
(1.00853 -0.0114672 0)
(1.00566 -0.00570338 0)
(1.00448 -0.000406521 0)
(1.00478 0.00470777 0)
(1.00662 0.00999619 0)
(1.01057 0.015959 0)
(1.01789 0.0227037 0)
(1.03048 0.0297966 0)
(1.05046 0.0368759 0)
(1.08002 0.0446461 0)
(1.10563 0.0519636 0)
(0.943223 0.0410219 0)
(0.217158 0.00140648 0)
(0.176678 -0.000628025 0)
(1.01945 -0.0354459 0)
(1.10574 -0.0413828 0)
(1.078 -0.0363613 0)
(1.05249 -0.0303113 0)
(1.03527 -0.0244282 0)
(1.0234 -0.0186229 0)
(1.01557 -0.0126137 0)
(1.01096 -0.00650718 0)
(1.00891 -0.000261149 0)
(1.00942 0.00590008 0)
(1.01249 0.0118149 0)
(1.01846 0.0175726 0)
(1.02805 0.0231302 0)
(1.04223 0.0286654 0)
(1.06304 0.0344349 0)
(1.09382 0.0403108 0)
(1.09437 0.0418228 0)
(0.830083 0.0227953 0)
(0.175568 0.0006492 0)
(0.154787 -0.000461753 0)
(0.958279 -0.0256685 0)
(1.10446 -0.0350778 0)
(1.08813 -0.0326205 0)
(1.06133 -0.0281068 0)
(1.04329 -0.0231352 0)
(1.03089 -0.01782 0)
(1.02227 -0.0122636 0)
(1.0167 -0.00633909 0)
(1.01403 0.000125569 0)
(1.01465 0.00658926 0)
(1.01841 0.0124599 0)
(1.0252 0.0177623 0)
(1.03534 0.0227468 0)
(1.05005 0.0275531 0)
(1.07197 0.0319784 0)
(1.10093 0.0358424 0)
(1.06957 0.0340314 0)
(0.742327 0.0144767 0)
(0.153123 0.000485524 0)
(0.140124 -0.000333568 0)
(0.901335 -0.0192997 0)
(1.0969 -0.0301747 0)
(1.09629 -0.0292853 0)
(1.06906 -0.0254941 0)
(1.05024 -0.0213975 0)
(1.03725 -0.0166823 0)
(1.02824 -0.0114153 0)
(1.02227 -0.00567563 0)
(1.01926 0.000692945 0)
(1.01984 0.00706983 0)
(1.02381 0.0127178 0)
(1.03084 0.0176819 0)
(1.04134 0.0221234 0)
(1.05668 0.0260489 0)
(1.07946 0.0295463 0)
(1.1032 0.0322436 0)
(1.0377 0.0282102 0)
(0.675395 0.0103362 0)
(0.137779 0.000361809 0)
(0.129411 -0.000252024 0)
(0.85154 -0.0148993 0)
(1.0846 -0.0260669 0)
(1.10201 -0.026398 0)
(1.07592 -0.0230667 0)
(1.05658 -0.0193992 0)
(1.04317 -0.0151851 0)
(1.03379 -0.0103022 0)
(1.02753 -0.00478351 0)
(1.02429 0.00140043 0)
(1.02475 0.00756058 0)
(1.02872 0.0129241 0)
(1.03591 0.0174624 0)
(1.04669 0.0212971 0)
(1.06239 0.0246238 0)
(1.08562 0.0276415 0)
(1.10237 0.0294341 0)
(1.00291 0.0236886 0)
(0.623208 0.00794057 0)
(0.126233 0.0002864 0)
(0.121252 -0.000193111 0)
(0.809133 -0.0117107 0)
(1.06935 -0.0224655 0)
(1.10557 -0.0237588 0)
(1.0822 -0.0208789 0)
(1.0624 -0.0174371 0)
(1.04871 -0.0135041 0)
(1.03907 -0.00894212 0)
(1.03254 -0.00369693 0)
(1.02906 0.00225435 0)
(1.02935 0.00814514 0)
(1.03326 0.0131553 0)
(1.0405 0.0172351 0)
(1.05138 0.0205917 0)
(1.06732 0.0235208 0)
(1.09093 0.0262211 0)
(1.09867 0.0271022 0)
(0.967668 0.0201372 0)
(0.581273 0.00638072 0)
(0.117062 0.000234862 0)
(0.114934 -0.000148406 0)
(0.773395 -0.00932388 0)
(1.05255 -0.0192941 0)
(1.10795 -0.0213195 0)
(1.08809 -0.0188199 0)
(1.06788 -0.0155375 0)
(1.05393 -0.0117728 0)
(1.0441 -0.00741275 0)
(1.03735 -0.00240625 0)
(1.03359 0.0032846 0)
(1.03366 0.00886549 0)
(1.03744 0.0134952 0)
(1.04461 0.0171688 0)
(1.05551 0.0201442 0)
(1.07168 0.0227425 0)
(1.09498 0.0250982 0)
(1.09213 0.0251708 0)
(0.933335 0.0173912 0)
(0.546581 0.00531224 0)
(0.109514 0.00019904 0)
(0.110008 -0.000113062 0)
(0.743401 -0.00747398 0)
(1.0353 -0.0164804 0)
(1.10937 -0.0190253 0)
(1.09369 -0.016839 0)
(1.07318 -0.0136559 0)
(1.05895 -0.0099891 0)
(1.04892 -0.00575389 0)
(1.04195 -0.000918736 0)
(1.03791 0.00452396 0)
(1.0377 0.00978307 0)
(1.04125 0.0140518 0)
(1.04828 0.017363 0)
(1.05916 0.0199888 0)
(1.07554 0.0222951 0)
(1.09774 0.0242789 0)
(1.08315 0.0235852 0)
(0.900496 0.0153016 0)
(0.517063 0.004567 0)
(0.103094 0.000174364 0)
(0.106184 -8.38664e-05 0)
(0.718329 -0.00598432 0)
(1.01841 -0.0139537 0)
(1.10996 -0.0168069 0)
(1.09917 -0.0149028 0)
(1.07839 -0.0117372 0)
(1.06386 -0.0081075 0)
(1.05361 -0.00393982 0)
(1.04638 0.000780708 0)
(1.04202 0.00601197 0)
(1.04145 0.0109661 0)
(1.0447 0.0148942 0)
(1.05155 0.0178618 0)
(1.06239 0.0201477 0)
(1.07897 0.0221914 0)
(1.09914 0.0237788 0)
(1.07209 0.0223439 0)
(0.869277 0.0137558 0)
(0.491248 0.00405357 0)
(0.0974536 0.000158375 0)
(0.103268 -5.8624e-05 0)
(0.697536 -0.0047366 0)
(1.0025 -0.0116476 0)
(1.10987 -0.0146288 0)
(1.1045 -0.0129298 0)
(1.08359 -0.00973657 0)
(1.06874 -0.00608612 0)
(1.05822 -0.00192346 0)
(1.0507 0.00273258 0)
(1.04594 0.00780232 0)
(1.04492 0.0124853 0)
(1.04781 0.0160855 0)
(1.05443 0.0187156 0)
(1.06522 0.0206682 0)
(1.08194 0.0224536 0)
(1.09953 0.0236283 0)
(1.05926 0.0214542 0)
(0.839526 0.0126637 0)
(0.468039 0.00371466 0)
(0.0923301 0.000149109 0)
(0.101139 -3.5389e-05 0)
(0.680547 -0.00364241 0)
(0.988028 -0.00949205 0)
(1.10929 -0.012404 0)
(1.10963 -0.0108267 0)
(1.08887 -0.00758306 0)
(1.07367 -0.00385325 0)
(1.06283 0.000365852 0)
(1.05493 0.00501016 0)
(1.0497 0.00996644 0)
(1.04814 0.0144045 0)
(1.05058 0.0176859 0)
(1.05694 0.019977 0)
(1.06764 0.0215876 0)
(1.08442 0.0231033 0)
(1.09892 0.0238593 0)
(1.0448 0.0209349 0)
(0.810924 0.0119545 0)
(0.446581 0.0035123 0)
(0.0875202 0.000145173 0)
(0.0997346 -1.24913e-05 0)
(0.667054 -0.00263251 0)
(0.97536 -0.00741337 0)
(1.10855 -0.0100758 0)
(1.11471 -0.00853786 0)
(1.0943 -0.00521022 0)
(1.07871 -0.00134043 0)
(1.0675 0.00299639 0)
(1.05914 0.0076932 0)
(1.05332 0.0125863 0)
(1.05112 0.0168039 0)
(1.05302 0.0197701 0)
(1.05906 0.0217149 0)
(1.06965 0.0229637 0)
(1.08645 0.0242159 0)
(1.09708 0.0245131 0)
(1.02879 0.0207657 0)
(0.783052 0.0115701 0)
(0.426174 0.00341984 0)
(0.0828605 0.000145526 0)
(0.0990362 1.20711e-05 0)
(0.656901 -0.00165237 0)
(0.964806 -0.0053387 0)
(1.10797 -0.00757755 0)
(1.11986 -0.00598968 0)
(1.09997 -0.0025311 0)
(1.08395 0.00154694 0)
(1.07229 0.00606648 0)
(1.06338 0.010882 0)
(1.05683 0.0157609 0)
(1.05385 0.0197768 0)
(1.05513 0.0224235 0)
(1.06077 0.0240045 0)
(1.07122 0.0248693 0)
(1.08794 0.0258284 0)
(1.09395 0.0256188 0)
(1.0112 0.020985 0)
(0.755449 0.0114842 0)
(0.406241 0.00342326 0)
(0.0782171 0.00014966 0)
(0.0990643 3.46006e-05 0)
(0.650057 -0.000655126 0)
(0.956671 -0.00319576 0)
(1.1079 -0.00483753 0)
(1.12524 -0.00309038 0)
(1.10596 0.000563648 0)
(1.08948 0.0049202 0)
(1.07729 0.00969765 0)
(1.06769 0.0146999 0)
(1.06027 0.0196073 0)
(1.05635 0.0234298 0)
(1.05687 0.0257414 0)
(1.06204 0.0269438 0)
(1.07232 0.0274118 0)
(1.08869 0.0280066 0)
(1.08932 0.0271985 0)
(0.991878 0.0216173 0)
(0.727589 0.0116781 0)
(0.38625 0.00351314 0)
(0.0734674 0.000157137 0)
(0.0998543 7.11197e-05 0)
(0.646596 0.000369559 0)
(0.95127 -0.000909787 0)
(1.10868 -0.0017725 0)
(1.13106 0.000247526 0)
(1.1124 0.00417201 0)
(1.09541 0.00889437 0)
(1.08256 0.014018 0)
(1.07213 0.019283 0)
(1.06365 0.0242721 0)
(1.05861 0.0279167 0)
(1.05822 0.0298701 0)
(1.06284 0.0306669 0)
(1.07291 0.0307081 0)
(1.08854 0.0308817 0)
(1.08297 0.0293319 0)
(0.970573 0.0226942 0)
(0.698903 0.0121431 0)
(0.365709 0.00368233 0)
(0.0685032 0.000167478 0)
(0.101617 0.000100778 0)
(0.646905 0.00153167 0)
(0.948951 0.001601 0)
(1.11075 0.00173504 0)
(1.13752 0.00413089 0)
(1.11942 0.00845904 0)
(1.10183 0.0136476 0)
(1.08821 0.01921 0)
(1.07676 0.0248134 0)
(1.06699 0.0299266 0)
(1.06061 0.0333924 0)
(1.05915 0.0349444 0)
(1.06309 0.0352951 0)
(1.07289 0.0348728 0)
(1.08727 0.0345655 0)
(1.07462 0.0321086 0)
(0.946909 0.0242525 0)
(0.668774 0.0128757 0)
(0.344149 0.00392527 0)
(0.0632272 0.000180202 0)
(0.10441 0.000148341 0)
(0.651379 0.00297141 0)
(0.950214 0.0044994 0)
(1.1146 0.0057755 0)
(1.14484 0.0087292 0)
(1.12717 0.0136084 0)
(1.1089 0.0193772 0)
(1.09432 0.0254844 0)
(1.08163 0.0315054 0)
(1.07029 0.0367678 0)
(1.0623 0.0400158 0)
(1.05961 0.0411107 0)
(1.06275 0.0409844 0)
(1.07222 0.0400396 0)
(1.08468 0.0391934 0)
(1.06391 0.0356319 0)
(0.920384 0.0263323 0)
(0.636539 0.0138714 0)
(0.321123 0.00423487 0)
(0.0575554 0.000194563 0)
(0.108508 0.00021068 0)
(0.660523 0.00465497 0)
(0.95551 0.00792474 0)
(1.12072 0.0105421 0)
(1.1533 0.0142361 0)
(1.13587 0.0198347 0)
(1.11677 0.0263244 0)
(1.101 0.0331036 0)
(1.08677 0.0396217 0)
(1.07354 0.0450454 0)
(1.06366 0.0480146 0)
(1.05953 0.0485779 0)
(1.06172 0.0479119 0)
(1.07078 0.0463865 0)
(1.08085 0.0449275 0)
(1.05039 0.0400084 0)
(0.890355 0.0289622 0)
(0.601479 0.0151158 0)
(0.296206 0.00459905 0)
(0.0514223 0.000209398 0)
(0.114252 0.000294453 0)
(0.675062 0.00674463 0)
(0.965479 0.0120805 0)
(1.12968 0.0162777 0)
(1.16326 0.0209317 0)
(1.14577 0.02748 0)
(1.12561 0.0348601 0)
(1.10836 0.0424333 0)
(1.09221 0.0494983 0)
(1.0767 0.0550431 0)
(1.0646 0.0576265 0)
(1.05875 0.05752 0)
(1.05992 0.0562522 0)
(1.06851 0.0540872 0)
(1.07552 0.0518974 0)
(1.03346 0.0453232 0)
(0.856038 0.0321475 0)
(0.56285 0.0165749 0)
(0.269036 0.00499687 0)
(0.0447941 0.000223113 0)
(0.122146 0.000415314 0)
(0.695961 0.00948252 0)
(0.980995 0.0172671 0)
(1.14215 0.0233235 0)
(1.17519 0.0292105 0)
(1.15717 0.0370039 0)
(1.13563 0.0454577 0)
(1.11645 0.0539306 0)
(1.09791 0.0615362 0)
(1.07965 0.0670757 0)
(1.06498 0.0690934 0)
(1.05719 0.0681646 0)
(1.05724 0.0661529 0)
(1.06535 0.0632665 0)
(1.06836 0.0602391 0)
(1.01234 0.051643 0)
(0.816507 0.0358587 0)
(0.519923 0.0181825 0)
(0.239359 0.00539593 0)
(0.0376832 0.000233531 0)
(0.13291 0.000586398 0)
(0.724467 0.0132404 0)
(1.00322 0.0239671 0)
(1.15891 0.0322281 0)
(1.18971 0.0396628 0)
(1.17042 0.0490539 0)
(1.14696 0.0587663 0)
(1.12527 0.0681903 0)
(1.10375 0.0762206 0)
(1.08223 0.0815028 0)
(1.06463 0.0826646 0)
(1.05473 0.0807108 0)
(1.05356 0.0778114 0)
(1.061 0.074047 0)
(1.05874 0.0699904 0)
(0.986043 0.0589654 0)
(0.770736 0.0399889 0)
(0.472073 0.019823 0)
(0.207116 0.00574795 0)
(0.0301679 0.000237853 0)
(0.147806 0.000862969 0)
(0.762616 0.0186304 0)
(1.03382 0.0329702 0)
(1.1809 0.0439448 0)
(1.20756 0.0534173 0)
(1.18583 0.0646949 0)
(1.15967 0.0757707 0)
(1.13468 0.0860092 0)
(1.10947 0.094126 0)
(1.08415 0.0986934 0)
(1.06332 0.0985735 0)
(1.05119 0.0953143 0)
(1.04875 0.0913725 0)
(1.05507 0.0867169 0)
(1.04592 0.0812383 0)
(0.953303 0.0671573 0)
(0.717693 0.0443287 0)
(0.418954 0.0213219 0)
(0.172558 0.0059897 0)
(0.0224142 0.000232974 0)
(0.169036 0.00134088 0)
(0.813672 0.0268224 0)
(1.07535 0.0458404 0)
(1.20926 0.0603198 0)
(1.22935 0.0725494 0)
(1.20349 0.0855452 0)
(1.1735 0.0977738 0)
(1.14423 0.108309 0)
(1.11461 0.115838 0)
(1.085 0.118975 0)
(1.06074 0.116995 0)
(1.04637 0.112066 0)
(1.0427 0.106887 0)
(1.04755 0.101334 0)
(1.02891 0.0938993 0)
(0.912575 0.0759195 0)
(0.656583 0.0485395 0)
(0.360818 0.0224563 0)
(0.136426 0.0060516 0)
(0.014698 0.000215406 0)
(0.199999 0.00240072 0)
(0.883371 0.0405175 0)
(1.1315 0.066425 0)
(1.24443 0.0849153 0)
(1.25483 0.0997463 0)
(1.22278 0.113909 0)
(1.18761 0.126343 0)
(1.15311 0.13606 0)
(1.11845 0.141894 0)
(1.08425 0.1426 0)
(1.05652 0.138002 0)
(1.04003 0.130969 0)
(1.03525 0.124316 0)
(1.03809 0.117657 0)
(1.0063 0.107736 0)
(0.862064 0.0846416 0)
(0.587374 0.0521238 0)
(0.299235 0.0230476 0)
(0.10036 0.00591537 0)
(0.00750936 0.000184328 0)
(0.242192 0.00864924 5.44129e-20)
(0.97584 0.0678366 4.73665e-20)
(1.20002 0.100899 -1.64635e-20)
(1.2833 0.121352 0)
(1.28121 0.138606 -4.10834e-34)
(1.24158 0.152124 5.98216e-21)
(1.20047 0.163008 -1.06304e-20)
(1.16021 0.1705 0)
(1.12015 0.173555 2.15149e-34)
(1.08109 0.171016 -1.28479e-20)
(1.0497 0.163304 0)
(1.03094 0.153968 -1.51219e-20)
(1.02518 0.145974 -4.45208e-20)
(1.02533 0.139053 -2.1003e-20)
(0.974369 0.125277 -6.30518e-21)
(0.795964 0.0949614 -3.74288e-21)
(0.504782 0.0555627 0)
(0.232465 0.0234825 2.61551e-21)
(0.0643837 0.00588903 3.0879e-21)
(0.000827671 0.000165667 5.56952e-20)
(0.271769 0.024146 4.15207e-20)
(1.05216 0.110513 5.37374e-22)
(1.25655 0.150018 4.46826e-21)
(1.31798 0.170678 0)
(1.30431 0.187762 -2.10995e-20)
(1.25766 0.199089 -2.38001e-20)
(1.21064 0.207631 -1.07886e-20)
(1.16454 0.212604 -3.7942e-20)
(1.11885 0.212825 0)
(1.07448 0.207096 5.47184e-20)
(1.03887 0.196352 5.40067e-20)
(1.0175 0.184693 1.59858e-20)
(1.00971 0.174824 5.80484e-20)
(1.00198 0.165399 8.1376e-20)
(0.924571 0.14594 0)
(0.707349 0.106068 1.14359e-19)
(0.408118 0.0587994 1.63924e-19)
(0.163174 0.0232448 1.82002e-19)
(0.0285365 0.004643 -2.08036e-19)
(-0.00600075 -0.000484681 -3.91861e-21)
(0.272801 0.0399686 0)
(1.10033 0.165825 7.70358e-21)
(1.29453 0.210453 0)
(1.34488 0.23057 -2.85795e-20)
(1.32238 0.244597 0)
(1.26983 0.252052 -4.72097e-20)
(1.21728 0.25685 2.21363e-20)
(1.16564 0.258217 -7.67839e-20)
(1.11456 0.254767 -1.57886e-21)
(1.0651 0.245233 2.83801e-20)
(1.02546 0.231028 1.18475e-19)
(1.00153 0.216782 -2.36142e-22)
(0.991361 0.204872 -4.21108e-20)
(0.975871 0.192673 -7.64598e-20)
(0.87971 0.166733 9.03514e-20)
(0.644804 0.116877 -1.59884e-19)
(0.353055 0.0620295 -2.10888e-20)
(0.128798 0.022922 0)
(0.0116922 0.00280001 -1.02875e-23)
(-0.00940471 -0.00133512 0)
(0.266383 0.0536604 1.10406e-19)
(1.12624 0.224427 -5.24002e-20)
(1.31785 0.275332 -3.83334e-20)
(1.36265 0.295621 1.37489e-20)
(1.33402 0.305745 -2.29856e-20)
(1.27702 0.308677 9.91607e-20)
(1.2199 0.309066 4.63046e-20)
(1.16348 0.306194 0)
(1.1076 0.29853 -1.43335e-19)
(1.05346 0.284733 0)
(1.01 0.266769 -6.22641e-20)
(0.983525 0.24973 -7.64029e-20)
(0.970968 0.235556 -4.57954e-20)
(0.94927 0.220071 -5.54522e-20)
(0.84282 0.187821 0)
(0.604801 0.129462 0)
(0.325177 0.0679461 -1.37048e-19)
(0.113224 0.0239007 2.70521e-20)
(0.00321783 0.00108681 -1.58597e-20)
(-0.0116704 -0.0023076 -1.85489e-20)
(0.25873 0.0657564 -5.09433e-20)
(1.13751 0.282862 0)
(1.33056 0.341117 8.16415e-20)
(1.37225 0.362065 3.94914e-20)
(1.33933 0.368369 5.25958e-20)
(1.27909 0.36676 0)
(1.21839 0.362629 4.57273e-20)
(1.15801 0.35533 8.52287e-20)
(1.09797 0.343243 7.36937e-20)
(1.03961 0.324985 1.33403e-19)
(0.992608 0.303068 0)
(0.963641 0.28306 -1.64713e-19)
(0.948729 0.266484 -9.88905e-20)
(0.922389 0.247794 -5.83943e-20)
(0.812032 0.210017 3.56211e-19)
(0.579602 0.144233 4.22657e-20)
(0.313013 0.0764027 1.98443e-19)
(0.10997 0.0265419 -9.39484e-19)
(0.00126046 0.00010541 5.55536e-19)
(-0.0127468 -0.00318088 -6.69271e-19)
(0.251361 0.0766625 -3.28964e-20)
(1.13942 0.339274 9.48532e-21)
(1.33556 0.405901 -9.63265e-21)
(1.37527 0.428014 -4.26412e-20)
(1.33926 0.430738 -4.59693e-20)
(1.27661 0.424771 1.80282e-21)
(1.21306 0.416275 -4.94906e-20)
(1.14941 0.404625 8.84502e-20)
(1.0858 0.388143 -1.58571e-19)
(1.0237 0.3654 0)
(0.973403 0.33945 -7.4815e-20)
(0.942013 0.316401 -1.60922e-21)
(0.924805 0.297416 -1.08099e-19)
(0.895206 0.275717 0)
(0.785389 0.233052 -7.71549e-20)
(0.563031 0.161037 -1.82896e-19)
(0.310298 0.0871499 4.86501e-19)
(0.113915 0.0310509 -4.7955e-19)
(0.0043687 0.000462649 6.80782e-19)
(-0.012486 -0.00373813 -7.07353e-19)
(0.245128 0.0867281 -4.14692e-22)
(1.13549 0.393006 -5.72852e-21)
(1.335 0.468689 -3.07124e-20)
(1.37314 0.492258 1.8265e-20)
(1.33487 0.491805 -2.33812e-20)
(1.27039 0.48177 0)
(1.20456 0.469161 -4.67734e-20)
(1.13818 0.453363 -9.28406e-20)
(1.07147 0.432646 -8.26498e-20)
(1.006 0.405521 0)
(0.952656 0.37561 -7.7858e-20)
(0.918938 0.349589 -9.5889e-20)
(0.899559 0.328233 1.17249e-19)
(0.867663 0.303643 -7.0941e-20)
(0.760771 0.256557 -3.37146e-19)
(0.550102 0.179301 1.99875e-19)
(0.311166 0.0994795 5.91911e-20)
(0.121204 0.0373014 0)
(0.0105638 0.00228817 -6.58693e-19)
(-0.0111961 -0.00389272 -2.41675e-20)
(0.240142 0.0962651 -1.47104e-21)
(1.12806 0.443875 3.35418e-21)
(1.3304 0.529015 1.51018e-20)
(1.36712 0.554103 6.36951e-20)
(1.3271 0.550899 -8.84871e-20)
(1.26124 0.537164 9.80735e-20)
(1.19355 0.520746 1.00735e-19)
(1.12485 0.50107 -1.48471e-19)
(1.05541 0.47635 5.04534e-20)
(0.986877 0.445022 -3.28327e-19)
(0.930706 0.411298 -8.77599e-20)
(0.894774 0.38236 0)
(0.873345 0.358662 1.27204e-19)
(0.839735 0.331333 1.52224e-19)
(0.736543 0.28021 1.81799e-19)
(0.537663 0.19837 -2.17388e-19)
(0.312482 0.112727 -6.42895e-20)
(0.128984 0.0449448 7.55263e-20)
(0.0179324 0.00529836 0)
(-0.00933258 -0.00368939 -5.25135e-20)
(0.236321 0.105437 -6.95946e-21)
(1.11875 0.491988 -2.84342e-21)
(1.32302 0.586737 -1.45003e-20)
(1.35822 0.613214 4.01517e-20)
(1.31678 0.607619 -4.11928e-20)
(1.24985 0.590548 -4.08614e-21)
(1.18064 0.570677 -1.09905e-19)
(1.10995 0.547441 -5.36757e-20)
(1.03807 0.518984 -1.43595e-19)
(0.966723 0.483687 3.17251e-22)
(0.907909 0.44627 -2.75545e-19)
(0.869893 0.414431 2.30917e-19)
(0.846605 0.38845 -1.39733e-19)
(0.81156 0.358488 1.67698e-19)
(0.711764 0.303522 0)
(0.523982 0.217499 -1.18239e-19)
(0.311469 0.126299 1.65976e-22)
(0.135398 0.0533466 -3.29834e-19)
(0.0250626 0.0090766 -4.84167e-20)
(-0.00722746 -0.00320342 0)
(0.233533 0.114392 0)
(1.10851 0.53757 4.10424e-22)
(1.31372 0.642084 -1.95433e-20)
(1.34725 0.669446 -3.82069e-20)
(1.30459 0.66175 -5.07007e-20)
(1.23682 0.641701 0)
(1.16637 0.61873 -5.08888e-20)
(1.09394 0.592263 -1.05234e-21)
(1.01984 0.560378 3.07895e-19)
(0.945865 0.52136 -4.52817e-20)
(0.884515 0.480348 -1.98883e-19)
(0.84455 0.445691 1.20337e-19)
(0.81957 0.417492 -2.2331e-21)
(0.783168 0.384831 1.78591e-19)
(0.685921 0.326092 1.09622e-19)
(0.508508 0.235836 -2.55377e-19)
(0.307344 0.139524 3.02173e-19)
(0.13895 0.0616453 8.94836e-20)
(0.0306268 0.0129678 3.68766e-19)
(-0.00530056 -0.00258255 -9.849e-19)
(0.231719 0.123264 -9.38446e-21)
(1.09803 0.580808 8.18881e-21)
(1.30319 0.694475 -1.75884e-21)
(1.33481 0.722764 3.27654e-20)
(1.29108 0.713192 0)
(1.22266 0.690495 -4.71801e-20)
(1.15116 0.664772 1.70256e-19)
(1.07721 0.635408 1.18308e-19)
(1.00107 0.600414 0)
(0.92457 0.557938 -6.50871e-19)
(0.860756 0.51347 5.37994e-19)
(0.818941 0.476101 0)
(0.792376 0.445642 1.63328e-19)
(0.754644 0.410103 -2.23748e-21)
(0.659407 0.347287 -3.513e-19)
(0.490886 0.252533 1.37343e-19)
(0.300097 0.151519 0)
(0.139001 0.069012 4.82725e-19)
(0.0338839 0.0163469 0)
(-0.00380732 -0.00201032 -4.66271e-19)
(0.230713 0.132134 1.33277e-20)
(1.08775 0.621895 1.66006e-20)
(1.29182 0.744011 -8.33759e-23)
(1.32139 0.773172 0)
(1.27672 0.761926 -4.5774e-20)
(1.20779 0.736892 0)
(1.13542 0.708733 -1.69787e-19)
(1.06009 0.676802 -5.57469e-20)
(0.982044 0.639029 5.47456e-20)
(0.903096 0.593374 -3.22033e-19)
(0.836829 0.545646 5.57047e-20)
(0.793199 0.505585 0)
(0.765132 0.472655 -3.49041e-19)
(0.72604 0.433957 2.18943e-21)
(0.632116 0.366618 0)
(0.471156 0.26711 1.29094e-21)
(0.28973 0.161425 4.41637e-19)
(0.135785 0.0746164 -4.16857e-19)
(0.0346192 0.0186636 1.22947e-19)
(-0.00290126 -0.00162761 0)
(0.230198 0.140884 0)
(1.07794 0.660921 2.38213e-20)
(1.27991 0.790845 9.32807e-21)
(1.30741 0.820721 -2.51657e-21)
(1.26188 0.807983 -1.72776e-20)
(1.19254 0.780891 -1.06771e-19)
(1.11943 0.750596 6.33506e-20)
(1.04286 0.716414 -6.52046e-20)
(0.963027 0.676185 2.43586e-19)
(0.881656 0.627664 -5.15338e-19)
(0.812897 0.576876 -3.99683e-21)
(0.767417 0.534032 -1.53369e-19)
(0.737851 0.498369 5.66237e-19)
(0.697339 0.456167 -2.59335e-21)
(0.604256 0.383817 -2.72627e-19)
(0.449574 0.27917 -4.84776e-19)
(0.276629 0.168994 0)
(0.12983 0.0781998 0)
(0.0334026 0.0197379 1.32663e-19)
(-0.00250319 -0.00149668 -7.78165e-20)
(0.230357 0.149635 2.31655e-20)
(1.06868 0.697765 -5.81791e-20)
(1.26774 0.835065 -1.01535e-20)
(1.29317 0.865488 0)
(1.24683 0.851422 -1.51725e-21)
(1.17719 0.822521 -1.00731e-19)
(1.10346 0.790368 1.55075e-19)
(1.02578 0.754235 2.59048e-19)
(0.944232 0.711878 3.17584e-19)
(0.86045 0.660825 -4.21818e-19)
(0.789101 0.607166 -4.62984e-19)
(0.74164 0.56141 4.10335e-19)
(0.710545 0.522785 0)
(0.668482 0.476566 -1.24044e-19)
(0.575733 0.398605 -2.9458e-19)
(0.426111 0.288402 -3.48292e-19)
(0.261173 0.173762 -4.11333e-19)
(0.121442 0.0795752 1.21484e-19)
(0.03061 0.0196588 -7.13432e-20)
(-0.00248986 -0.00158147 2.92799e-22)
(0.230631 0.158328 0)
(1.06012 0.732894 0)
(1.25555 0.876776 2.49658e-21)
(1.27889 0.907608 0)
(1.23182 0.892334 4.51752e-20)
(1.16196 0.861843 7.09233e-20)
(1.08771 0.828078 0)
(1.00902 0.790278 3.11902e-20)
(0.925847 0.74611 5.316e-19)
(0.83966 0.692881 -9.70013e-19)
(0.765562 0.636549 0)
(0.715914 0.587815 -2.6421e-19)
(0.683129 0.545971 -3.05322e-21)
(0.63933 0.495006 -2.37443e-21)
(0.546627 0.410678 3.15195e-19)
(0.40135 0.294553 -1.30687e-22)
(0.243891 0.175655 -8.85647e-19)
(0.111183 0.0787908 2.61226e-19)
(0.0265867 0.0185075 7.71735e-20)
(-0.00270696 -0.00180082 0)
(0.23102 0.166879 -1.03839e-19)
(1.052 0.766368 -4.59149e-20)
(1.24343 0.916061 -4.76247e-20)
(1.26473 0.9472 7.83489e-21)
(1.21703 0.930794 6.51429e-20)
(1.14701 0.898921 0)
(1.07234 0.863772 9.57538e-20)
(0.992733 0.824569 -6.92383e-20)
(0.908025 0.778901 3.90291e-21)
(0.819443 0.723865 7.13296e-20)
(0.742401 0.665097 6.00495e-19)
(0.69027 0.61344 -9.28071e-20)
(0.655491 0.568017 -3.49086e-19)
(0.609714 0.511304 -1.44367e-19)
(0.516929 0.419698 1.70935e-19)
(0.375861 0.297398 5.45778e-23)
(0.225325 0.174578 2.3837e-19)
(0.0998604 0.0759622 -5.61749e-19)
(0.0220279 0.0165031 6.63875e-19)
(-0.00305346 -0.00212466 9.68132e-20)
(0.231319 0.175168 4.1076e-20)
(1.04433 0.798284 -2.69813e-20)
(1.23151 0.953019 6.22852e-21)
(1.25082 0.984398 1.5883e-20)
(1.20257 0.966916 -7.165e-21)
(1.13247 0.933827 -1.26563e-19)
(1.05747 0.897501 2.87035e-20)
(0.977051 0.857129 -2.89662e-19)
(0.890896 0.810255 -5.88716e-19)
(0.799929 0.753781 -5.79743e-19)
(0.719757 0.692913 0)
(0.664747 0.638497 -4.0707e-19)
(0.627505 0.589013 5.02964e-19)
(0.579366 0.525334 0)
(0.486551 0.42534 -3.66125e-19)
(0.350161 0.296552 2.1759e-19)
(0.206738 0.17038 -2.5616e-19)
(0.0887282 0.0714204 -3.02051e-19)
(0.017627 0.0140299 -5.34422e-19)
(-0.00341849 -0.00248629 -4.16677e-19)
(0.231966 0.18333 -4.80582e-20)
(1.03695 0.828628 2.89051e-20)
(1.21984 0.987724 6.22827e-20)
(1.23725 1.01927 3.00507e-20)
(1.18855 1.00079 1.94556e-20)
(1.11843 0.966649 -7.12649e-20)
(1.04318 0.929317 9.52607e-20)
(0.962056 0.888002 -2.9923e-19)
(0.874546 0.840197 -3.49476e-19)
(0.781239 0.782647 6.08295e-19)
(0.697762 0.720103 1.32092e-18)
(0.639416 0.663168 0)
(0.599068 0.609096 0)
(0.547948 0.537142 -1.66151e-19)
(0.455145 0.427249 0)
(0.324417 0.29118 4.67476e-19)
(0.189416 0.162264 5.50415e-19)
(0.0797582 0.0651403 0)
(0.0146044 0.0115042 0)
(-0.00366265 -0.00280413 4.47439e-19)
(0.232279 0.191064 5.64607e-20)
(1.0299 0.857392 4.50739e-20)
(1.2085 1.0203 4.6105e-20)
(1.22409 1.05194 -3.69246e-20)
(1.17504 1.03253 1.35956e-20)
(1.10496 0.997464 7.69385e-20)
(1.02955 0.959282 -1.31721e-19)
(0.947814 0.917216 -4.60876e-22)
(0.859056 0.868733 -5.07283e-21)
(0.763466 0.810462 -4.72815e-21)
(0.676562 0.746745 6.8079e-19)
(0.614391 0.687578 0)
(0.570153 0.628497 5.09266e-19)
(0.515088 0.546976 3.54728e-19)
(0.421974 0.425265 8.5296e-19)
(0.298123 0.280077 2.51675e-19)
(0.174691 0.147685 -2.9602e-19)
(0.0770653 0.0542428 -1.73874e-19)
(0.0187815 0.0078373 0)
(-0.00186212 -0.00225811 4.80618e-19)
(0.232908 0.198813 -1.31026e-19)
(1.02312 0.884678 0)
(1.19746 1.05079 5.85027e-20)
(1.21137 1.08248 -3.43376e-20)
(1.16208 1.06223 -3.38086e-21)
(1.09209 1.02636 -8.83329e-20)
(1.01662 0.987454 2.60202e-19)
(0.934361 0.944807 -2.40186e-20)
(0.844469 0.895874 0)
(0.74669 0.837208 -6.73791e-19)
(0.656298 0.772868 -1.48258e-18)
(0.589831 0.711825 6.02686e-20)
(0.540847 0.647529 7.02917e-19)
(0.480523 0.555303 0)
(0.385913 0.419851 5.7536e-19)
(0.269021 0.262353 0)
(0.160675 0.121069 0)
(0.0851419 0.0249658 -1.87815e-19)
(0.0510343 -0.0076254 0)
(0.0277374 0.0110859 1.28746e-19)
(0.233174 0.205975 -1.49586e-19)
(1.01658 0.910808 0)
(1.18673 1.07942 1.01001e-19)
(1.19904 1.11114 0)
(1.14964 1.09016 -2.83272e-21)
(1.07977 1.05362 0)
(1.00432 1.01415 1.34722e-20)
(0.9216 0.971112 4.14993e-20)
(0.830663 0.92198 4.39436e-20)
(0.730746 0.863272 -7.40586e-19)
(0.636784 0.7989 4.46956e-20)
(0.565505 0.736507 4.84524e-19)
(0.510759 0.667035 6.85918e-19)
(0.443372 0.562751 9.22328e-20)
(0.345056 0.412509 4.50745e-19)
(0.232258 0.238953 0)
(0.135301 0.0783366 6.22747e-19)
(0.0725977 -0.020857 -3.63517e-19)
(0.0426977 0.0440199 4.23178e-19)
(-0.0690512 0.436734 -4.99248e-19)
(0.233431 0.212949 1.25722e-19)
(1.01002 0.935562 1.88792e-19)
(1.17622 1.10649 0)
(1.18697 1.13836 4.98204e-21)
(1.13752 1.11688 1.77985e-20)
(1.06772 1.07992 1.19984e-19)
(0.992336 1.04015 9.25854e-20)
(0.909119 0.997064 0)
(0.8171 0.948133 2.93761e-19)
(0.714961 0.889959 -3.89418e-20)
(0.617104 0.826316 0)
(0.540166 0.763298 0)
(0.477959 0.688573 6.14869e-19)
(0.401305 0.569882 -2.84824e-19)
(0.29623 0.405233 -4.56701e-19)
(0.182937 0.213441 0)
(0.0788805 0.0851456 3.13555e-19)
(0.00369747 0.438715 -3.62545e-19)
(0.0332863 1.89083 -1.9939e-19)
(0.0625726 2.81195 -2.54433e-19)
(0.233514 0.219102 -9.66738e-20)
(1.00364 0.959127 -2.46381e-19)
(1.16594 1.13199 6.23685e-20)
(1.17515 1.16401 4.33289e-20)
(1.12573 1.14218 0)
(1.05604 1.10499 7.23489e-20)
(0.980868 1.06516 1.29517e-19)
(0.897109 1.02223 -2.03621e-20)
(0.804051 0.97382 4.3801e-20)
(0.699718 0.916665 7.08353e-19)
(0.597857 0.854451 7.52683e-19)
(0.51474 0.791805 5.44554e-19)
(0.443278 0.712221 6.19031e-19)
(0.355925 0.575584 -6.69702e-19)
(0.245025 0.401841 -6.89896e-19)
(0.123034 0.255072 0)
(0.0433747 0.82787 0)
(0.100802 2.55072 1.7387e-19)
(0.101956 3.20169 0)
(0.105185 3.38834 4.15982e-19)
(0.236144 0.22476 0)
(0.998026 0.981706 0)
(1.15565 1.15576 0)
(1.16336 1.18793 1.45526e-20)
(1.11395 1.16579 1.91726e-20)
(1.0445 1.12868 3.95873e-20)
(0.969807 1.08907 8.4462e-20)
(0.885532 1.04652 -2.00273e-20)
(0.791485 0.998909 3.70322e-19)
(0.685053 0.94326 -9.10667e-21)
(0.5792 0.883197 1.49091e-18)
(0.489533 0.8219 -6.2752e-20)
(0.406878 0.738962 7.51963e-20)
(0.309931 0.577552 9.69113e-20)
(0.181933 0.414506 -5.1366e-21)
(0.099351 0.960024 1.83778e-21)
(0.139814 2.72141 -9.16697e-19)
(0.147939 3.29256 -3.44317e-19)
(0.136969 3.42579 1.79174e-19)
(0.124472 3.44804 -2.00075e-19)
(0.154697 0.18188 5.89778e-20)
(0.98712 1.00606 0)
(1.14502 1.178 -1.31826e-19)
(1.15213 1.21062 -1.26608e-19)
(1.10304 1.18855 6.93137e-20)
(1.03402 1.1517 -3.60158e-20)
(0.959108 1.11195 -8.87263e-20)
(0.874497 1.07006 2.29362e-19)
(0.779573 1.02357 -3.05125e-19)
(0.671256 0.969923 0)
(0.561544 0.91275 7.34879e-19)
(0.465109 0.853509 -4.4602e-19)
(0.369968 0.771332 0)
(0.257188 0.577091 9.06241e-20)
(0.144518 0.74539 2.16771e-19)
(0.155561 2.49338 -2.52184e-19)
(0.21255 3.32246 2.83235e-19)
(0.192622 3.43849 1.53175e-19)
(0.160298 3.46021 1.72212e-19)
(0.138566 3.47061 2.75945e-19)
(0.279177 0.262999 -1.06122e-19)
(0.971952 1.01596 0)
(1.12701 1.20344 1.48386e-19)
(1.13745 1.24107 1.47678e-19)
(1.08579 1.22159 -9.17032e-20)
(1.01602 1.18513 1.18367e-20)
(0.940184 1.14701 9.19036e-20)
(0.85507 1.10636 1.78874e-20)
(0.75886 1.06206 2.94893e-19)
(0.647849 1.01239 6.19763e-19)
(0.532981 0.96169 4.17932e-20)
(0.426108 0.907971 3.98503e-19)
(0.302483 0.810004 7.0885e-20)
(0.213438 0.923321 -8.94969e-20)
(0.229895 2.34156 -2.03098e-19)
(0.291484 3.32464 1.96393e-19)
(0.274449 3.46733 -2.17933e-19)
(0.238948 3.48943 -1.25895e-19)
(0.201787 3.5173 -1.08485e-19)
(0.150225 3.51152 -1.26259e-20)
(0.267085 0.259908 0)
(0.969662 1.03866 4.63072e-20)
(1.11876 1.22695 -3.16797e-20)
(1.12691 1.26473 -1.88462e-20)
(1.07506 1.24479 -7.00919e-20)
(1.00523 1.20856 -5.59074e-21)
(0.92909 1.17059 -5.10232e-20)
(0.843786 1.13075 1.62559e-20)
(0.747071 1.08794 -3.09415e-19)
(0.634823 1.04117 -1.3805e-20)
(0.517223 0.995311 -1.33958e-18)
(0.405433 0.946266 5.68667e-20)
(0.284843 0.874861 -6.70771e-20)
(0.255614 1.47575 -8.31857e-20)
(0.331293 3.09752 1.8119e-20)
(0.350793 3.46474 3.39133e-22)
(0.310325 3.52139 3.23731e-19)
(0.27287 3.54831 1.60591e-19)
(0.224094 3.57202 -4.46172e-20)
(0.165 3.5682 -6.1644e-20)
(0.250901 0.258412 1.20301e-19)
(0.965796 1.06404 3.19227e-19)
(1.1101 1.25255 -9.12231e-20)
(1.11579 1.28979 -7.09625e-20)
(1.06369 1.26934 0)
(0.994022 1.23316 2.532e-20)
(0.917868 1.19545 -5.87853e-20)
(0.832653 1.15638 1.45083e-20)
(0.735749 1.11516 -3.43602e-20)
(0.622785 1.07154 -5.68315e-19)
(0.503283 1.03087 -6.21833e-19)
(0.388178 0.985915 -4.68067e-19)
(0.286993 1.00246 -5.10654e-19)
(0.325536 2.19379 5.2578e-19)
(0.418696 3.3735 4.43809e-19)
(0.395499 3.52248 0)
(0.349788 3.56797 0)
(0.311613 3.60925 -3.56294e-20)
(0.260526 3.66982 0)
(0.177504 3.64606 -4.39292e-20)
(0.240241 0.260342 -1.83504e-19)
(0.959986 1.09053 -2.75216e-19)
(1.10001 1.27934 0)
(1.1033 1.31558 5.96778e-21)
(1.05106 1.29449 -8.86763e-20)
(0.981685 1.25825 6.15778e-20)
(0.905856 1.22082 -2.89306e-20)
(0.820932 1.18245 9.3621e-21)
(0.724078 1.14274 -2.24605e-19)
(0.610808 1.10225 2.88854e-20)
(0.49033 1.06691 0)
(0.370404 1.0273 0)
(0.308693 1.2564 -4.69102e-19)
(0.409736 2.87431 1.91354e-19)
(0.491047 3.48168 2.47828e-19)
(0.442564 3.55526 0)
(0.401762 3.61959 -2.39293e-20)