/*--------------------------------*- C++ -*----------------------------------*\
  =========                 |
  \\      /  F ield         | OpenFOAM: The Open Source CFD Toolbox
   \\    /   O peration     | Website:  https://openfoam.org
    \\  /    A nd           | Version:  10
     \\/     M anipulation  |
\*---------------------------------------------------------------------------*/
FoamFile
{
    format      ascii;
    class       volScalarField;
    location    "3";
    object      p;
}
// * * * * * * * * * * * * * * * * * * * * * * * * * * * * * * * * * * * * * //

dimensions      [1 -1 -2 0 0 0 0];

internalField   nonuniform List<scalar> 
16128
(
1
1
1
1
1
1
1
1
1
1
1
1
1
1
1
1
1
1
1
1
1
1
1
1
4.09412
10.0669
10.5235
10.6109
10.7357
10.8467
10.9537
11.0543
11.149
11.2385
11.3232
11.4039
11.481
11.553
11.6194
11.6826
11.7445
11.801
11.8479
11.8855
11.9197
11.9465
11.9643
11.9798
1
1
1
1
1
1
1
1
1
1
1
1
1
1
1
1
1
1
1
1
1
1
1
1
4.02027
10.0162
10.5208
10.6092
10.7334
10.8434
10.9495
11.0493
11.1436
11.2328
11.3172
11.3975
11.474
11.5456
11.6119
11.6746
11.7349
11.7889
11.8345
11.8726
11.9076
11.9338
11.9492
11.9621
1
1
1
1
1
1
1
1
1
1
1
1
1
1
1
1
1
1
1
1
1
1
1
1
3.85495
9.95246
10.5085
10.5981
10.7222
10.832
10.9377
11.0373
11.1316
11.221
11.3056
11.3858
11.462
11.5337
11.6003
11.662
11.7194
11.7701
11.8146
11.8534
11.8879
11.9116
11.9217
11.9356
1
1
1
1
1
1
1
1
1
1
1
1
1
1
1
1
1
1
1
1
1
1
1
1
3.61873
9.85072
10.4964
10.586
10.7073
10.8153
10.9198
11.0186
11.1127
11.2021
11.2867
11.3666
11.4427
11.5147
11.5812
11.6414
11.6958
11.744
11.7881
11.8268
11.8586
11.8791
11.8805
11.9022
1
1
1
1
1
1
1
1
1
1
1
1
1
1
1
1
1
1
1
1
1
1
1
1
3.32179
9.69932
10.4825
10.5715
10.6896
10.796
10.8994
10.9974
11.0909
11.1799
11.2638
11.3428
11.4181
11.4897
11.5553
11.6135
11.6654
11.7119
11.7549
11.7913
11.818
11.8352
11.8376
11.861
1
1
1
1
1
1
1
1
1
1
1
1
1
1
1
1
1
1
1
1
1
1
1
1
2.97247
9.47658
10.4638
10.5497
10.6647
10.7693
10.8714
10.9681
11.0606
11.1483
11.2307
11.3081
11.3817
11.4519
11.5162
11.5732
11.6247
11.6713
11.7132
11.7462
11.7681
11.7829
11.7889
11.816
1
1
1
1
1
1
1
1
1
1
1
1
1
1
1
1
1
1
1
1
1
1
1
1
2.58178
9.17081
10.4446
10.5244
10.6382
10.7391
10.8379
10.932
11.0222
11.1079
11.188
11.2635
11.3355
11.4045
11.4676
11.5237
11.5745
11.6201
11.66
11.6896
11.7074
11.7177
11.7139
11.7553
1
1
1
1
1
1
1
1
1
1
1
1
1
1
1
1
1
1
1
1
1
1
1
1
2.16967
8.77311
10.4429
10.4992
10.6113
10.709
10.8058
10.8969
10.9837
11.0667
11.1443
11.2171
11.2859
11.3515
11.4119
11.4657
11.5141
11.5568
11.5936
11.6218
11.6407
11.6539
11.6249
11.6741
1
1
1
1
1
1
1
1
1
1
1
1
1
1
1
1
1
1
1
1
1
1
1
1
1.74534
8.24513
10.4492
10.4751
10.5804
10.6707
10.7638
10.8526
10.9376
11.0188
11.0944
11.1647
11.2298
11.291
11.3473
11.3973
11.4414
11.4792
11.5117
11.5374
11.5537
11.5644
11.522
11.5848
1
1
1
1
1
1
1
1
1
1
1
1
1
1
1
1
1
1
1
1
1
1
1
1
1.35134
7.64043
10.4685
10.4321
10.5308
10.6162
10.7091
10.7976
10.8806
10.9598
11.034
11.1022
11.164
11.2205
11.2724
11.3178
11.357
11.3898
11.4177
11.44
11.4526
11.4573
11.4021
11.4674
1
1
1
1
1
1
1
1
1
1
1
1
1
1
1
1
1
1
1
1
1
1
1
1
1.03665
6.91135
10.3622
10.3742
10.4669
10.5521
10.6408
10.7273
10.8118
10.8907
10.9628
11.0286
11.0873
11.1389
11.1852
11.2249
11.2576
11.2836
11.3029
11.3175
11.3224
11.32
11.2567
11.33
1
1
1
1
1
1
1
1
1
1
1
1
1
1
1
1
1
1
1
1
1
1
1
1
1.00041
5.97679
10.1636
10.2877
10.3923
10.4906
10.581
10.6643
10.7372
10.8095
10.8797
10.943
10.9983
11.0448
11.0848
11.1177
11.1425
11.1609
11.1717
11.1787
11.172
11.1559
11.0799
11.1282
1
1
1
1
1
1
1
1
1
1
1
1
1
1
1
1
1
1
1
1
1
1
1
1
1
4.98231
9.91816
10.2051
10.3106
10.4134
10.5021
10.5835
10.6586
10.7256
10.7852
10.8416
10.8923
10.9339
10.967
10.9924
11.008
11.0173
11.0145
11.0017
10.9666
10.9275
10.8332
10.8934
1
1
1
1
1
1
1
1
1
1
1
1
1
1
1
1
1
1
1
1
1
1
1
1
1
3.93793
9.54873
10.1427
10.2649
10.3644
10.4452
10.5148
10.5747
10.6286
10.6799
10.7282
10.7711
10.8063
10.8327
10.8498
10.8529
10.8489
10.8281
10.7971
10.7385
10.673
10.5424
10.5247
1
1
1
1
1
1
1
1
1
1
1
1
1
1
1
1
1
1
1
1
1
1
1
1
1
2.90218
8.99508
10.1011
10.205
10.305
10.3863
10.4501
10.5011
10.5441
10.5809
10.6132
10.6431
10.6679
10.6838
10.6877
10.6759
10.6545
10.6107
10.5481
10.4333
10.2762
10.0616
10.0128
1
1
1
1
1
1
1
1
1
1
1
1
1
1
1
1
1
1
1
1
1
1
1
1
1
1.86315
8.2049
10.1913
10.1835
10.2668
10.3292
10.3761
10.4173
10.4538
10.4836
10.5048
10.5189
10.5279
10.5302
10.5155
10.485
10.437
10.3577
10.2479
10.0752
9.87664
9.56775
9.5193
1
1
1
1
1
1
1
1
1
1
1
1
1
1
1
1
1
1
1
1
1
1
1
1
1
1.09617
7.15742
10.2525
10.1623
10.1807
10.2393
10.2849
10.3245
10.3558
10.3775
10.3892
10.3897
10.3835
10.3656
10.3334
10.2786
10.2007
10.0825
9.9289
9.67179
9.30079
8.38403
6.35417
1
1
1
1
1
1
1
1
1
1
1
1
1
1
1
1
1
1
1
1
1
1
1
1
1
1.00082
5.77657
9.85257
9.94979
10.0423
10.1166
10.1723
10.2172
10.249
10.2664
10.2712
10.2601
10.2381
10.1998
10.1492
10.0667
9.95801
9.79469
9.57374
9.21474
8.59603
7.61781
5.37501
1
1
1
1
1
1
1
1
1
1
1
1
1
1
1
1
1
1
1
1
1
1
1
1
1
0.999989
4.27108
9.48183
9.9202
10.0071
10.0536
10.084
10.1162
10.1402
10.1511
10.1473
10.1257
10.0885
10.0291
9.95702
9.84832
9.7082
9.50157
9.21616
8.78639
8.11716
7.00212
5.07594
1
1
1
1
1
1
1
1
1
1
1
1
1
1
1
1
1
1
1
1
1
1
1
1
1
0.999997
2.75849
8.74878
9.87986
9.9358
9.97009
10.001
10.0252
10.0406
10.0397
10.0235
9.98988
9.93841
9.86018
9.76546
9.63338
9.46229
9.22021
8.88886
8.40283
7.7315
6.58269
5.09108
1
1
1
1
1
1
1
1
1
1
1
1
1
1
1
1
1
1
1
1
1
1
1
1
1
1
1.49299
7.84438
10.023
9.8796
9.88574
9.91112
9.92347
9.9274
9.91585
9.89074
9.84854
9.78628
9.69299
9.57764
9.42327
9.22464
8.95623
8.5985
8.09648
7.41833
6.37541
5.18716
1
1
1
1
1
1
1
1
1
1
1
1
1
1
1
1
1
1
1
1
1
1
1
1
1
1
1.02776
6.38864
9.68426
9.67566
9.73642
9.78778
9.80522
9.8067
9.78893
9.75564
9.70327
9.62963
9.52435
9.39297
9.21996
9.00138
8.71772
8.34442
7.85089
7.18789
6.2876
5.3198
1
1
1
1
1
1
1
1
1
1
1
1
1
1
1
1
1
1
1
1
1
1
1
1
1
1
0.999963
4.48174
9.19435
9.61322
9.686
9.71518
9.71434
9.70152
9.67284
9.63041
9.56657
9.48128
9.36612
9.22134
9.03325
8.79945
8.50602
8.12811
7.65354
7.02948
6.25646
5.44683
1
1
1
1
1
1
1
1
1
1
1
1
1
1
1
1
1
1
1
1
1
1
1
1
1
1
0.999987
2.57888
8.47679
9.62884
9.61796
9.63134
9.62454
9.59821
9.55718
9.50534
9.43096
9.33498
9.20908
9.05294
8.85545
8.61332
8.31701
7.94318
7.49013
6.91814
6.25241
5.55171
1
1
1
1
1
1
1
1
1
1
1
1
1
1
1
1
1
1
1
1
1
1
1
1
1
1
0.999998
1.22568
7.25377
9.71871
9.56994
9.52164
9.51438
9.48671
9.44014
9.38145
9.29901
9.1958
9.06181
8.89823
8.6958
8.45036
8.15644
7.78878
7.35348
6.83511
6.25808
5.63714
1
1
1
1
1
1
1
1
1
1
1
1
1
1
1
1
1
1
1
1
1
1
1
1
1
1
1
1.00475
5.41743
9.17106
9.35165
9.41787
9.41221
9.37582
9.32297
9.25845
9.16981
9.06013
8.92259
8.754
8.54947
8.30158
8.01472
7.65613
7.2416
6.76913
6.26494
5.70557
1
1
1
1
1
1
1
1
1
1
1
1
1
1
1
1
1
1
1
1
1
1
1
1
1
1
1
0.999946
3.10524
8.55447
9.35223
9.34183
9.32631
9.28991
9.22868
9.15155
9.05306
8.93451
8.79217
8.62004
8.41656
8.17425
7.88849
7.54527
7.15546
6.72674
6.2711
5.76726
1
1
1
1
1
1
1
1
1
1
1
1
1
1
1
1
1
1
1
1
1
1
1
1
1
1
1
0.999987
1.33395
7.45235
9.48444
9.29553
9.22535
9.18457
9.11576
9.03503
8.93436
8.813
8.66885
8.49611
8.29339
8.05855
7.7749
7.45053
7.08569
6.69546
6.27073
5.82081
1
1
1
1
1
1
1
1
1
1
1
1
1
1
1
1
1
1
1
1
1
1
1
1
1
1
1
0.999998
1.0106
5.517
8.94764
9.0638
9.11564
9.07883
9.0073
8.92285
8.82156
8.7002
8.55553
8.38325
8.18453
7.95251
7.67812
7.37207
7.03322
6.67488
6.27885
5.87403
1
1
1
1
1
1
1
1
1
1
1
1
1
1
1
1
1
1
1
1
1
1
1
1
1
1
1
1
0.999913
2.96779
8.29557
9.06076
9.06495
9.0072
8.92674
8.83536
8.72747
8.60178
8.45405
8.27803
8.0863
7.85404
7.59154
7.30097
6.98638
6.65256
6.28628
5.91691
1
1
1
1
1
1
1
1
1
1
1
1
1
1
1
1
1
1
1
1
1
1
1
1
1
1
1
1
0.999978
1.28623
6.96064
9.12671
8.98894
8.91154
8.82735
8.73371
8.62623
8.50113
8.3556
8.18505
7.9922
7.76971
7.52021
7.24377
6.94984
6.63449
6.29775
5.95494
1
1
1
1
1
1
1
1
1
1
1
1
1
1
1
1
1
1
1
1
1
1
1
1
1
1
1
1
0.999996
1.00691
4.64482
8.62091
8.81391
8.79446
8.7334
8.64944
8.54242
8.4142
8.26712
8.09814
7.90586
7.69206
7.45429
7.1928
6.91576
6.61656
6.30416
5.98103
1
1
1
1
1
1
1
1
1
1
1
1
1
1
1
1
1
1
1
1
1
1
1
1
1
1
1
1
1
0.999962
2.02408
7.86645
8.92537
8.76592
8.66679
8.57411
8.46434
8.33437
8.18817
8.02135
7.83415
7.62717
7.3987
7.15075
6.88683
6.60307
6.30987
6.00604
1
1
1
1
1
1
1
1
1
1
1
1
1
1
1
1
1
1
1
1
1
1
1
1
1
1
1
1
1
0.999991
1.08397
6.00562
8.67761
8.58606
8.54483
8.46745
8.36731
8.24562
8.1053
7.94354
7.763
7.56433
7.34602
7.11072
6.8592
6.5894
6.31233
6.02871
1
1
1
1
1
1
1
1
1
1
1
1
1
1
1
1
1
1
1
1
1
1
1
1
1
1
1
1
1
0.999998
1.00037
3.10698
7.99381
8.49997
8.48819
8.42154
8.32096
8.19536
8.05153
7.88869
7.70951
7.51448
7.30194
7.07458
6.83361
6.57676
6.31491
6.05016
1
1
1
1
1
1
1
1
1
1
1
1
1
1
1
1
1
1
1
1
1
1
1
1
1
1
1
1
1
1
0.999998
1.29678
6.51385
8.59854
8.47393
8.37526
8.25802
8.12661
7.98391
7.82635
7.65332
7.46497
7.25959
7.03983
6.8105
6.56639
6.31779
6.0691
1
1
1
1
1
1
1
1
1
1
1
1
1
1
1
1
1
1
1
1
1
1
1
1
1
1
1
1
1
1
1
1.00695
3.81403
8.0245
8.32251
8.26885
8.17791
8.06423
7.93144
7.77886
7.60854
7.4237
7.22326
7.0104
6.79151
6.55853
6.32021
6.0848
1
1
1
1
1
1
1
1
1
1
1
1
1
1
1
1
1
1
1
1
1
1
1
1
1
1
1
1
1
1
1
0.999997
1.5017
6.7447
8.4317
8.27198
8.14904
8.02482
7.88647
7.73259
7.56419
7.38288
7.18857
6.98348
6.77395
6.55307
6.32454
6.09985
1
1
1
1
1
1
1
1
1
1
1
1
1
1
1
1
1
1
1
1
1
1
1
1
1
1
1
1
1
1
1
0.999999
1.02011
4.20175
7.95858
8.13115
8.058
7.95444
7.82617
7.67985
7.51775
7.34216
7.15641
6.96058
6.75974
6.55049
6.33204
6.11384
1
1
1
1
1
1
1
1
1
1
1
1
1
1
1
1
1
1
1
1
1
1
1
1
1
1
1
1
1
1
1
1
1.00004
1.64247
6.73816
8.21796
8.05728
7.93265
7.79701
7.6467
7.48402
7.31162
7.13271
6.94495
6.75101
6.55052
6.34165
6.12893
1
1
1
1
1
1
1
1
1
1
1
1
1
1
1
1
1
1
1
1
1
1
1
1
1
1
1
1
1
1
1
1
1
1.03203
4.24778
7.79969
7.94555
7.86293
7.741
7.59704
7.44171
7.27792
7.10758
6.92878
6.74247
6.54932
6.34906
6.14444
1
1
1
1
1
1
1
1
1
1
1
1
1
1
1
1
1
1
1
1
1
1
1
1
1
1
1
1
1
1
1
1
1
1.00013
1.67038
6.51789
7.98873
7.85136
7.71656
7.5716
7.42121
7.26386
7.09764
6.92225
6.73946
6.55061
6.35646
6.1591
1
1
1
1
1
1
1
1
1
1
1
1
1
1
1
1
1
1
1
1
1
1
1
1
1
1
1
1
1
1
1
1
1
1
1.03429
3.92598
7.57576
7.77391
7.66176
7.53416
7.39354
7.24173
7.07888
6.90717
6.72897
6.54687
6.36071
6.1699
1
1
1
1
1
1
1
1
1
1
1
1
1
1
1
1
1
1
1
1
1
1
1
1
1
1
1
1
1
1
1
1
1
1
1.00019
1.55801
6.12843
7.78124
7.65828
7.53579
7.38817
7.23058
7.06686
6.8987
6.72583
6.54976
6.37057
6.18568
1
1
1
1
1
1
1
1
1
1
1
1
1
1
1
1
1
1
1
1
1
1
1
1
1
1
1
1
1
1
1
1
1
1
1
1.02409
3.25316
7.23613
7.6326
7.49862
7.35129
7.19919
7.04356
6.88469
6.72074
6.55034
6.37617
6.19932
1
1
1
1
1
1
1
1
1
1
1
1
1
1
1
1
1
1
1
1
1
1
1
1
1
1
1
1
1
1
1
1
1
1
1
1.00015
1.34476
5.56926
7.66951
7.4838
7.33433
7.18883
7.04072
6.88721
6.728
6.56079
6.38857
6.21673
1
1
1
1
1
1
1
1
1
1
1
1
1
1
1
1
1
1
1
1
1
1
1
1
1
1
1
1
1
1
1
1
1
1
1
1
1.0098
2.57329
6.80417
7.42393
7.3008
7.17013
7.02756
6.87673
6.7206
6.55991
6.39357
6.22485
1
1
1
1
1
1
1
1
1
1
1
1
1
1
1
1
1
1
1
1
1
1
1
1
1
1
1
1
1
1
1
1
1
1
1
1
1.00005
1.17061
4.65862
7.37366
7.3157
7.18737
7.04094
6.88999
6.73375
6.57531
6.41377
6.24797
1
1
1
1
1
1
1
1
1
1
1
1
1
1
1
1
1
1
1
1
1
1
1
1
1
1
1
1
1
1
1
1
1
1
1
1
1
1.00291
1.92711
6.16164
7.29195
7.15892
7.02209
6.8761
6.7259
6.57291
6.41836
6.26059
1
1
1
1
1
1
1
1
1
1
1
1
1
1
1
1
1
1
1
1
1
1
1
1
1
1
1
1
1
1
1
1
1
1
1
1
1
1.00001
1.06289
3.45188
6.84879
7.15333
7.02933
6.88798
6.74121
6.59031
6.43709
6.28238
1
1
1
1
1
1
1
1
1
1
1
1
1
1
1
1
1
1
1
1
1
1
1
1
1
1
1
1
1
1
1
1
1
1
1
1
1
1
1.00072
1.40628
5.14649
7.15674
7.04284
6.89828
6.7511
6.60187
6.45115
6.29884
1
1
1
1
1
1
1
1
1
1
1
1
1
1
1
1
1
1
1
1
1
1
1
1
1
1
1
1
1
1
1
1
1
1
1
1
1
1
1
1.01397
2.32525
6.22626
7.00565
6.8851
6.74274
6.59959
6.45555
6.31079
1
1
1
1
1
1
1
1
1
1
1
1
1
1
1
1
1
1
1
1
1
1
1
1
1
1
1
1
1
1
1
1
1
1
1
1
1
1
1
1.0001
1.12427
3.78224
6.67952
6.89477
6.77025
6.62833
6.48686
6.34429
1
1
1
1
1
1
1
1
1
1
1
1
1
1
1
1
1
1
1
1
1
1
1
1
1
1
1
1
1
1
1
1
1
1
1
1
1
1
1
1
1.00212
1.53385
5.10914
6.85708
6.78963
6.64767
6.50887
6.36701
1
1
1
1
1
1
1
1
1
1
1
1
1
1
1
1
1
1
1
1
1
1
1
1
1
1
1
1
1
1
1
1
1
1
1
1
1
1
1
1
1.00001
1.02342
2.36805
5.97856
6.76162
6.65927
6.51784
6.37864
1
1
1
1
1
1
1
1
1
1
1
1
1
1
1
1
1
1
1
1
1
1
1
1
1
1
1
1
1
1
1
1
1
1
1
1
1
1
1
1
1
1.00022
1.13375
3.546
6.39505
6.68429
6.54912
6.40357
1
1
1
1
1
1
1
1
1
1
1
1
1
1
1
1
1
1
1
1
1
1
1
1
1
1
1
1
1
1
1
1
1
1
1
1
1
1
1
1
1
1
1.00252
1.45512
4.69994
6.55041
6.57527
6.43792
1
1
1
1
1
1
1
1
1
1
1
1
1
1
1
1
1
1
1
1
1
1
1
1
1
1
1
1
1
1
1
1
1
1
1
1
1
1
1
1
1
1
1.00001
1.01836
2.08347
5.48607
6.53654
6.46148
1
1
1
1
1
1
1
1
1
1
1
1
1
1
1
1
1
1
1
1
1
1
1
1
1
1
1
1
1
1
1
1
1
1
1
1
1
1
1
1
1
1
1
1.00017
1.08732
2.94642
5.99284
6.46989
1
1
1
1
1
1
1
1
1
1
1
1
1
1
1
1
1
1
1
1
1
1
1
1
1
1
1
1
1
1
1
1
1
1
1
1
1
1
1
1
1
1
1
1
1.00144
1.27268
3.92738
6.19068
1
1
1
1
1
1
1
1
1
1
1
1
1
1
1
1
1
1
1
1
1
1
1
1
1
1
1
1
1
1
1
1
1
1
1
1
1
1
1
1
1
1
1
1
1.00001
1.00812
1.64164
4.74369
1
1
1
1
1
1
1
1
1
1
1
1
1
1
1
1
1
1
1
1
1
1
1
1
1
1
1
1
1
1
1
1
1
1
1
1
1
1
1
1
1
1
1
1
1
1.00006
1.03467
2.20304
1
1
1
1
1
1
1
1
1
1
1
1
1
1
1
1
1
1
1
1
1
1
1
1
1
1
1
1
1
1
1
1
1
1
1
1
1
1
1
1
1
1
1
1
1
1
1.00042
1.10942
1
1
1
1
1
1
1
1
1
1
1
1
1
1
1
1
1
1
1
1
1
1
1
1
1
1
1
1
1
1
1
1
1
1
1
1
1
1
1
1
1
1
1
1
1
1
1
1.00212
1
1
1
1
1
1
1
1
1
1
1
1
1
1
1
1
1
1
1
1
1
1
1
1
1
1
1
1
1
1
1
1
1
1
1
1
1
1
1
1
1
1
1
1
1
1
1
1.00001
1
1
1
1
1
1
1
1
1
1
1
1
1
1
1
1
1
1
1
1
1
1
1
1
1
1
1
1
1
1
1
1
1
1
1
1
1
1
1
1
1
1
1
1
1
1
1
1
1
1
1
1
1
1
1
1
1
1
1
1
1
1
1
1
1
1
1
1
1
1
1
1
1
1
1
1
1
1
1
1
1
1
1
1
1
1
1
1
1
1
1
1
1
1
1
1
1
1
1
1
1
1
1
1
1
1
1
1
1
1
1
1
1
1
1
1
1
1
1
1
1
1
1
1
1
1
1
1
1
1
1
1
1
1
1
1
1
1
1
1
1
1
1
1
1
1
1
1
1
1
1
1
1
1
1
1
1
1
1
1
1
1
1
1
1
1
1
1
1
1
1
1
1
1
1
1
1
1
1
1
1
1
1
1
1
1
1
1
1
1
1
1
1
1
1
1
1
1
1
1
1
1
1
1
1
1
1
1
1
1
1
1
1
1
1
1
1
1
1
1
1
1
1
1
1
1
1
1
1
1
1
1
1
1
1
1
1
1
1
1
1
1
1
1
1
1
1
1
1
1
1
1
1
1
1
1
1
1
1
1
1
1
1
1
1
1
1
1
1
1
1
1
1
1
1
1
1
1
1
1
1
1
1
1
1
1
1
1
1
1
1
1
1
1
1
1
1
1
1
1
1
1
1
1
1
1
1
1
1
1
1
1
1
1
1
1
1
1
1
1
1
1
1
1
1
1
1
1
1
1
1
1
1
1
1
1
1
1
1
1
1
1
1
1
1
1
1
1
1
1
1
1
1
1
1
1
1
1
1
1
1
1
1
1
1
1
1
1
1
1
1
1
1
1
1
1
1
1
1
1
1
1
1
1
1
1
1
1
1
1
1
1
1
1
1
1
1
1
1
1
1
1
1
1
1
1
1
1
1
1
1
1
1
1
1
1
1
1
1
1
1
1
1
1
1
1
1
1
1
1
1
1
1
1
1
1
1
1
1
1
1
1
1
1
1
1
1
1
1
1
1
1
1
1
1
1
1
1
1
1
1
1
1
1
1
1
1
1
1
1
1
1
1
1
1
1
1
1
1
1
1
1
1
1
1
1
1
1
1
1
1
1
1
1
1
1
1
1
1
1
1
1
1
1
1
1
1
1
1
1
1
1
1
1
1
1
1
1
1
1
1
1
1
1
1
1
1
1
1
1
1
1
1
1
1
1
1
1
1
1
1
1
1
1
1
1
1
1
1
1
1
1
1
1
1
1
1
1
1
1
1
1
1
1
1
1
1
1
1
1
1
1
1
1
1
1
1
1
1
1
1
1
1
1
1
1
1
1
1
1
1
1
1
1
1
1
1
1
1
1
1
1
1
1
1
1
1
1
1
1
1
1
1
1
1
1
1
1
1
1
1
1
1
1
1
1
1
1
1
1
1
1
1
1
1
1
1
1
1
1
1
1
1
1
1
1
1
1
1
1
1
1
1
1
1
1
1
1
1
1
1
1
1
1
1
1
1
1
1
1
1
1
1
1
1
1
1
1
1
1
1
1
1
1
1
1
1
1
1
1
1
1
1
1
1
1
1
1
1
1
1
1
1
1
1
1
1
1
1
1
1
1
1
1
1
1
1
1
1
1
1.21857
0.224717
0.0210917
0.0181411
0.0416649
0.0784937
0.109405
0.15213
0.210675
0.278935
0.344727
0.40639
0.480578
0.582136
0.672948
0.717604
0.746951
0.792661
0.854801
0.933194
0.996056
1.01903
1.03345
1.04129
1.02036
1.00856
1.04127
1.11035
1.15964
1.18289
1.1893
1.15675
1.13962
1.15762
1.21792
1.25743
1.27489
1.26612
1.2123
1.19999
1.21307
1.27228
1.31413
1.3285
1.33177
1.30311
1.29124
1.29313
1.30877
1.31839
1.32131
1.31776
1.30879
1.30564
1.31
1.32608
1.33495
1.34129
1.34473
1.34119
1.34139
1.34309
1.34528
1.34432
1.33666
2.45934
4.79313
5.46273
5.6636
5.75153
5.8175
5.86199
5.91669
5.96539
5.99209
5.99618
5.99145
5.98348
5.96975
5.94613
5.90874
5.86168
5.82084
5.79652
5.78383
5.76671
5.72974
5.66875
5.59675
5.53133
5.48102
5.44245
5.4076
5.37204
5.33698
5.30544
5.27701
5.24598
5.2041
5.14558
5.07613
5.00847
4.95539
4.92363
4.90993
4.90204
4.88436
4.84038
4.77498
4.70087
4.62715
4.56015
4.50419
4.46789
4.45182
4.44494
4.43003
4.40025
4.35905
4.31131
4.26062
4.21265
4.17198
4.14026
4.11597
4.09044
4.05658
4.01707
3.97634
3.93329
3.88846
3.84618
3.81174
3.7864
3.76353
3.73412
3.69975
3.65726
3.59835
3.53632
3.4916
3.46289
3.44314
3.4265
3.40826
3.38669
3.35065
3.29982
3.25417
3.21882
3.19102
3.17271
3.15888
3.14016
3.11792
3.09404
3.06975
3.04722
3.03099
3.02561
3.02452
3.01534
2.99506
2.94671
2.8786
2.82009
2.78027
2.75212
2.73556
2.73753
2.74181
2.7351
2.72075
2.70047
2.66763
2.6309
2.60122
2.58025
2.56489
2.55341
2.53722
2.50203
2.45072
2.39958
2.35776
2.33002
2.31021
2.29841
2.30175
2.31321
2.33075
2.33404
2.13231
1.03607
0.465621
0.205893
0.205428
0.215321
0.183516
0.140801
0.145273
0.179953
0.229337
0.269804
0.298048
0.347081
0.443171
0.527544
0.586124
0.639478
0.694848
0.755881
0.822541
0.884429
0.932144
0.980798
1.01661
1.03449
1.05553
1.07206
1.08024
1.09477
1.1166
1.13324
1.16457
1.20884
1.23164
1.23434
1.2206
1.20397
1.20751
1.23148
1.27639
1.30456
1.30898
1.30568
1.28553
1.27275
1.27563
1.29358
1.32355
1.33704
1.33613
1.32578
1.31468
1.31783
1.33094
1.34254
1.34711
1.34655
1.33807
1.32663
1.31965
1.31707
1.31878
1.3251
1.3291
1.7173
4.28309
5.76141
5.83691
5.80415
5.8394
5.85094
5.90168
5.95824
5.99746
6.00188
5.98258
5.9601
5.94216
5.92809
5.91315
5.88626
5.84821
5.80715
5.76623
5.72534
5.68371
5.64027
5.59233
5.54145
5.49382
5.45231
5.41606
5.38181
5.34554
5.30589
5.26353
5.22006
5.17589
5.13038
5.08448
5.04016
4.99987
4.96191
4.92241
4.87895
4.83342
4.78985
4.74337
4.68841
4.63258
4.57997
4.53496
4.50159
4.47988
4.4603
4.42911
4.3887
4.34414
4.29831
4.25616
4.22255
4.19348
4.1612
4.12754
4.09125
4.04659
3.99835
3.95535
3.91595
3.88033
3.84937
3.82442
3.7999
3.77082
3.7339
3.68685
3.6357
3.58715
3.54354
3.50736
3.47854
3.45468
3.43332
3.41099
3.37954
3.33283
3.28587
3.2513
3.22759
3.20819
3.18686
3.16247
3.13799
3.11372
3.08972
3.06952
3.05737
3.05173
3.04044
3.02276
2.99313
2.94937
2.90409
2.86564
2.82762
2.79123
2.76959
2.75929
2.75228
2.74068
2.72368
2.7005
2.67202
2.6463
2.62856
2.6154
2.59958
2.5749
2.54245
2.50877
2.47725
2.4487
2.41752
2.37677
2.33737
2.31467
2.30651
2.30743
2.32122
2.34055
2.33655
2.83274
1.79943
1.15019
0.657404
0.515917
0.453868
0.402964
0.355765
0.32788
0.299942
0.281958
0.285738
0.296209
0.314441
0.355405
0.402759
0.442174
0.487075
0.545293
0.607685
0.665068
0.748101
0.816659
0.885931
0.967797
1.01849
1.06524
1.0807
1.08223
1.09552
1.12718
1.16771
1.19685
1.20745
1.20956
1.20506
1.20515
1.2281
1.27029
1.29308
1.29682
1.28548
1.26669
1.25597
1.2585
1.28684
1.31503
1.32375
1.32235
1.31583
1.31229
1.31808
1.34085
1.357
1.35836
1.34635
1.32349
1.311
1.30609
1.31034
1.32479
1.3372
1.34402
1.34847
1.34841
1.41592
3.2999
6.40451
6.47044
6.07026
5.92109
5.87046
5.8977
5.94635
5.99369
6.00687
5.98198
5.95079
5.91979
5.89812
5.89339
5.89115
5.86767
5.82172
5.76401
5.70452
5.64872
5.60266
5.56477
5.52755
5.48854
5.45356
5.426
5.39805
5.35739
5.30065
5.23866
5.1801
5.13283
5.10645
5.09619
5.07993
5.0419
4.98566
4.9173
4.85051
4.79524
4.74709
4.70786
4.675
4.64166
4.61036
4.58332
4.54984
4.50524
4.45374
4.40021
4.35442
4.31672
4.28854
4.27563
4.2634
4.23551
4.19518
4.1347
4.06206
4.00282
3.96133
3.92982
3.90406
3.88452
3.86621
3.84197
3.81054
3.76529
3.70606
3.6479
3.60421
3.57332
3.54976
3.53072
3.506
3.47367
3.43585
3.39387
3.34771
3.30823
3.28342
3.26593
3.25034
3.22971
3.20013
3.15787
3.12729
3.11099
3.09876
3.09447
3.08843
3.0721
3.04236
2.99275
2.93899
2.90142
2.87603
2.85611
2.84076
2.83393
2.82669
2.80833
2.78008
2.74493
2.7129
2.6879
2.66909
2.65397
2.64021
2.62433
2.60111
2.5629
2.51692
2.4792
2.45126
2.42861
2.40864
2.39415
2.38708
2.38186
2.37014
2.3617
2.35449
2.34449
2.31513
3.42184
2.45681
1.80404
1.32075
1.01194
0.799496
0.662546
0.606561
0.585408
0.538446
0.454902
0.393229
0.380011
0.382403
0.398159
0.426322
0.447269
0.441664
0.435627
0.436494
0.450214
0.508003
0.605072
0.710742
0.840267
0.933003
0.985319
1.01424
1.03097
1.05848
1.0972
1.14578
1.1688
1.17061
1.17587
1.18734
1.20638
1.24286
1.27167
1.27736
1.27439
1.2541
1.24265
1.24581
1.27208
1.30857
1.31643
1.3119
1.29704
1.28823
1.29492
1.32005
1.34484
1.34703
1.33974
1.31645
1.30187
1.30081
1.3081
1.33079
1.34881
1.35273
1.35019
1.33968
1.33312
1.34501
2.44772
6.59824
7.25929
6.46016
6.02866
5.87044
5.88016
5.92896
5.97755
5.98366
5.94111
5.9076
5.8827
5.86657
5.87407
5.88543
5.86942
5.82226
5.75299
5.66688
5.5968
5.5497
5.52566
5.51592
5.49811
5.47246
5.43785
5.38924
5.33105
5.26306
5.19503
5.14181
5.10782
5.10639
5.1189
5.10141
5.05397
4.99431
4.91607
4.83108
4.76807
4.72308
4.68514
4.65846
4.64318
4.62936
4.60241
4.56244
4.50987
4.44157
4.38557
4.35003
4.3237
4.31221
4.30702
4.27861
4.23691
4.18324
4.10932
4.03049
3.97899
3.94745
3.9229
3.90441
3.8896
3.86777
3.83819
3.79259
3.73151
3.67291
3.63061
3.60431
3.58626
3.57709
3.56235
3.53437
3.49431
3.43385
3.37409
3.33747
3.31422
3.29737
3.28362
3.26577
3.24309
3.21213
3.16717
3.13304
3.11832
3.10954
3.10618
3.09145
3.06364
3.01756
2.95639
2.90705
2.87748
2.85961
2.84867
2.85399
2.8649
2.85405
2.83184
2.7896
2.73602
2.69558
2.66985
2.65245
2.64048
2.63287
2.61546
2.58552
2.54552
2.50511
2.47242
2.44659
2.42899
2.42085
2.43163
2.44346
2.43549
2.4159
2.38378
2.34236
2.30809
2.26875
3.90974
3.07256
2.39354
1.83098
1.53897
1.31142
1.04489
0.829358
0.806958
0.759346
0.667013
0.598584
0.55151
0.522351
0.518071
0.527306
0.519548
0.496283
0.483344
0.472589
0.465412
0.465097
0.476116
0.507972
0.579431
0.675178
0.749733
0.827169
0.896387
0.959394
1.03229
1.10124
1.14061
1.14685
1.14909
1.16566
1.18418
1.21651
1.2431
1.24839
1.24755
1.24739
1.25397
1.27047
1.29655
1.30617
1.30705
1.29594
1.27927
1.27908
1.28971
1.31397
1.32659
1.32648
1.31855
1.30836
1.30749
1.31476
1.33434
1.35079
1.35235
1.34756
1.33572
1.32057
1.33845
1.51741
2.20632
5.63203
7.4431
6.84395
6.2848
5.93
5.87364
5.88862
5.92915
5.93442
5.89617
5.86826
5.86571
5.87439
5.88988
5.8844
5.85239
5.80831
5.74287
5.66167
5.60121
5.57119
5.56721
5.56177
5.52658
5.47475
5.409
5.34471
5.29086
5.24518
5.20586
5.17664
5.16125
5.15471
5.1338
5.09151
5.03897
4.97646
4.90387
4.82536
4.75846
4.71424
4.6815
4.66156
4.65461
4.64076
4.60885
4.56888
4.51375
4.44971
4.40297
4.37125
4.34667
4.32567
4.29271
4.2517
4.20431
4.14756
4.08442
4.02987
3.98962
3.95959
3.93589
3.91449
3.89001
3.85698
3.81076
3.75626
3.70194
3.66001
3.63641
3.62019
3.61365
3.60716
3.58431
3.55227
3.49864
3.42437
3.36338
3.32998
3.30966
3.29616
3.29003
3.2727
3.25156
3.22532
3.19144
3.15901
3.13959
3.12371
3.10389
3.07492
3.0352
2.9817
2.92851
2.89053
2.87233
2.86355
2.87204
2.898
2.89104
2.86948
2.83421
2.77777
2.72217
2.68758
2.66757
2.65258
2.63781
2.61715
2.58936
2.55335
2.51616
2.48718
2.46903
2.45903
2.45564
2.46858
2.483
2.47556
2.45764
2.42769
2.38497
2.33532
2.28243
2.22814
4.27941
3.54222
2.92599
2.34884
1.94868
1.70126
1.43986
1.20329
1.07317
0.956821
0.83941
0.793557
0.761341
0.713819
0.647154
0.630016
0.630802
0.608658
0.578849
0.564071
0.547221
0.522482
0.513696
0.520383
0.531679
0.546442
0.56235
0.592461
0.649096
0.722463
0.818133
0.915872
1.01953
1.09388
1.11173
1.13898
1.15709
1.17246
1.19159
1.2112
1.22567
1.24425
1.26331
1.27978
1.29089
1.29501
1.29658
1.2911
1.28605
1.28521
1.2904
1.30346
1.30676
1.30796
1.30673
1.30699
1.3098
1.31744
1.33148
1.34098
1.34107
1.3346
1.32052
1.33592
1.52257
2.23931
2.75183
3.90967
6.38408
6.87055
6.46636
6.10765
5.89303
5.83337
5.84877
5.87945
5.88789
5.886
5.89076
5.8698
5.83413
5.79895
5.77058
5.74526
5.71627
5.68188
5.64944
5.62077
5.58764
5.54601
5.49271
5.42725
5.36418
5.31849
5.2849
5.26899
5.26469
5.24609
5.20229
5.14205
5.08166
5.03047
4.98193
4.93373
4.88837
4.83935
4.784
4.73536
4.70347
4.68502
4.6675
4.63508
4.59448
4.54516
4.49098
4.44785
4.4134
4.37951
4.34341
4.30325
4.26035
4.21666
4.17105
4.12112
4.08043
4.05035
4.01992
3.98681
3.95052
3.91055
3.86536
3.8182
3.77011
3.7243
3.68717
3.66603
3.65125
3.64486
3.6394
3.62031
3.59419
3.5541
3.48929
3.41486
3.36464
3.33663
3.31515
3.29752
3.28
3.2667
3.25506
3.23861
3.21346
3.18187
3.15015
3.11791
3.08406
3.04669
3.00309
2.95908
2.91946
2.89905
2.88818
2.88673
2.89316
2.88424
2.86906
2.8466
2.80851
2.75991
2.72199
2.69911
2.67844
2.65525
2.6283
2.59869
2.5678
2.53704
2.50528
2.48456
2.47554
2.47411
2.4893
2.50493
2.49685
2.47828
2.4533
2.42045
2.37643
2.32372
2.27156
2.21737
4.57883
3.91522
3.32721
2.78168
2.37118
2.04756
1.75759
1.5412
1.38116
1.22316
1.0536
0.966614
0.947246
0.919884
0.838282
0.770343
0.751691
0.728032
0.683372
0.66375
0.654276
0.631101
0.603477
0.597655
0.592167
0.57676
0.56836
0.561848
0.563884
0.574498
0.601544
0.653356
0.739456
0.851169
0.944523
1.02807
1.09658
1.11813
1.14044
1.16557
1.19421
1.23157
1.25509
1.26312
1.26848
1.27273
1.27667
1.28095
1.28824
1.29632
1.30169
1.29912
1.29357
1.29424
1.29722
1.29979
1.30297
1.30901
1.31842
1.3238
1.32403
1.32506
1.34644
1.55983
2.18949
3.03343
3.21466
3.32437
4.34648
6.09248
6.43983
6.2296
5.98899
5.85285
5.82334
5.84976
5.88749
5.89918
5.8784
5.84075
5.7917
5.74864
5.72465
5.71556
5.71734
5.70936
5.67759
5.63147
5.56714
5.50654
5.4556
5.40997
5.37191
5.34588
5.33245
5.3235
5.29643
5.25393
5.19779
5.11713
5.03801
4.98377
4.94283
4.91186
4.89346
4.87197
4.83947
4.79515
4.73808
4.68315
4.63618
4.58922
4.53955
4.49259
4.46109
4.43241
4.40376
4.37166
4.334
4.28838
4.23695
4.18632
4.1422
4.11215
4.08911
4.06413
4.03468
3.99979
3.9562
3.90374
3.84827
3.79269
3.74165
3.7067
3.68808
3.67802
3.67751
3.67252
3.65289
3.62621
3.58672
3.53092
3.46727
3.4158
3.38528
3.35882
3.33056
3.30091
3.27656
3.25975
3.24286
3.22273
3.20102
3.17449
3.14301
3.10679
3.06425
3.01859
2.97855
2.94775
2.9339
2.92873
2.93242
2.92721
2.9089
2.87992
2.83992
2.79907
2.76395
2.73981
2.72353
2.70665
2.68544
2.65625
2.62207
2.5889
2.55703
2.52864
2.5125
2.50393
2.50266
2.5107
2.51115
2.49633
2.47465
2.45015
2.423
2.39327
2.36072
2.32533
2.28013
2.22024
4.81117
4.20916
3.64091
3.13527
2.74412
2.39419
2.06571
1.82111
1.65451
1.51549
1.3463
1.15962
1.10688
1.0964
1.05073
0.968609
0.90268
0.846815
0.770892
0.743792
0.747715
0.741891
0.714569
0.690145
0.683878
0.668284
0.635901
0.600516
0.592224
0.595052
0.602408
0.606495
0.617277
0.644563
0.688533
0.740466
0.819898
0.914648
0.991803
1.0724
1.14669
1.20694
1.22421
1.22593
1.22863
1.2345
1.24076
1.25584
1.28093
1.30075
1.30723
1.30758
1.30128
1.29224
1.29103
1.2926
1.29517
1.29733
1.29988
1.30744
1.31592
1.34552
1.56002
2.268
2.97361
3.28626
3.31491
3.30574
3.39102
4.3272
5.66524
6.19357
6.03317
5.91575
5.84175
5.84514
5.86133
5.85834
5.83654
5.80797
5.77335
5.73404
5.71544
5.71398
5.7137
5.68984
5.65217
5.60678
5.54764
5.49472
5.45674
5.42931
5.40948
5.38552
5.35241
5.3121
5.26781
5.2189
5.16706
5.10491
5.03052
4.97413
4.94118
4.92322
4.91357
4.89193
4.85762
4.81394
4.75232
4.67243
4.60039
4.54527
4.49615
4.45557
4.42662
4.40569
4.38959
4.36168
4.32839
4.2851
4.23011
4.17618
4.13374
4.0993
4.07203
4.04877
4.02306
3.99074
3.94943
3.89857
3.84131
3.78379
3.73857
3.71326
3.70121
3.70395
3.70069
3.67873
3.65038
3.61019
3.55607
3.49507
3.44821
3.4235
3.40331
3.38093
3.35378
3.32149
3.28387
3.24183
3.21112
3.19109
3.17309
3.1539
3.13067
3.09922
3.05701
3.00936
2.97283
2.95802
2.95508
2.9663
2.9635
2.94429
2.91058
2.85678
2.79739
2.75904
2.73845
2.72742
2.72022
2.70598
2.68458
2.65479
2.61965
2.58592
2.56114
2.5471
2.54143
2.54191
2.53967
2.52859
2.50462
2.47066
2.43787
2.40936
2.38435
2.36182
2.34101
2.31893
2.28936
2.2471
5.00146
4.45901
3.92018
3.45425
3.05606
2.69025
2.39112
2.13609
1.88747
1.74358
1.63017
1.48103
1.30382
1.21792
1.19426
1.1392
1.06696
1.00066
0.911461
0.854935
0.848062
0.84777
0.831554
0.800035
0.768259
0.741977
0.713664
0.677977
0.663081
0.661773
0.659797
0.652952
0.644723
0.64159
0.631824
0.629808
0.640417
0.673586
0.732058
0.831548
0.954086
1.08023
1.17429
1.20054
1.20855
1.19986
1.19705
1.21398
1.25797
1.29236
1.30052
1.30208
1.30102
1.29278
1.2837
1.28292
1.28524
1.28869
1.29592
1.30591
1.33975
1.56264
2.2794
3.01391
3.23384
3.26863
3.29342
3.30144
3.30507
3.40692
4.14098
5.4159
5.86609
5.91939
5.85078
5.84369
5.82554
5.80671
5.78977
5.78059
5.76763
5.74983
5.73212
5.70845
5.67891
5.64358
5.60703
5.57242
5.54017
5.50975
5.48372
5.4552
5.41852
5.37601
5.32686
5.27706
5.23282
5.19353
5.15679
5.11684
5.06592
5.00616
4.96092
4.92848
4.89732
4.86387
4.8286
4.78791
4.73815
4.67057
4.59242
4.52475
4.47315
4.43721
4.41155
4.39819
4.38561
4.36041
4.32651
4.28234
4.22968
4.1787
4.13196
4.0882
4.04574
4.01291
3.98702
3.96032
3.92986
3.89202
3.84993
3.8141
3.78098
3.74592
3.71696
3.69299
3.671
3.64812
3.61775
3.57356
3.52021
3.47496
3.45016
3.43383
3.42064
3.40119
3.3754
3.33844
3.28446
3.22663
3.18358
3.15904
3.14142
3.12525
3.10725
3.08473
3.05301
3.02312
3.00648
2.9983
2.99494
2.98549
2.96359
2.93127
2.88591
2.8284
2.78013
2.748
2.72882
2.71338
2.69766
2.68107
2.66235
2.64076
2.61926
2.60357
2.59438
2.59171
2.58742
2.57512
2.55382
2.51951
2.47518
2.42873
2.3963
2.375
2.3571
2.33994
2.32215
2.30303
2.28837
2.27332
5.1531
4.65174
4.1519
3.73296
3.34892
2.95354
2.66026
2.4385
2.20011
1.95584
1.82431
1.72355
1.57189
1.41704
1.32665
1.26266
1.19733
1.1378
1.06417
0.985082
0.954655
0.94731
0.936372
0.913211
0.875922
0.818186
0.775357
0.754241
0.73879
0.732044
0.72952
0.721133
0.704419
0.685947
0.666793
0.647995
0.645657
0.647939
0.654298
0.673932
0.718746
0.788989
0.878996
0.95968
1.04084
1.11218
1.13821
1.17531
1.21836
1.25976
1.27986
1.28577
1.28635
1.27874
1.2629
1.26205
1.26771
1.27958
1.30432
1.35355
1.59601
2.27307
3.05345
3.20003
3.22282
3.23469
3.2754
3.31071
3.3085
3.28759
3.36022
3.96255
5.05976
5.65082
5.80407
5.83681
5.79743
5.75649
5.73736
5.74121
5.75034
5.7662
5.75614
5.71128
5.64329
5.58821
5.55388
5.53554
5.53454
5.52857
5.50054
5.45417
5.39531
5.33648
5.28463
5.24201
5.20648
5.17948
5.15993
5.13332
5.09638
5.04336
4.97591
4.91484
4.86632
4.82535
4.78752
4.75065
4.7066
4.65204
4.59555
4.54647
4.50493
4.46715
4.43175
4.39677
4.35918
4.32144
4.28448
4.2484
4.21309
4.1759
4.13369
4.08531
4.03628
3.99363
3.9605
3.93282
3.90632
3.88183
3.86244
3.84586
3.82047
3.7835
3.73425
3.68452
3.64356
3.60951
3.5737
3.53477
3.49777
3.47485
3.46032
3.45038
3.43388
3.41183
3.38276
3.3379
3.2782
3.21873
3.17562
3.14452
3.12059
3.10167
3.08582
3.07232
3.06509
3.06458
3.05863
3.04249
3.0138
2.97183
2.93108
2.89067
2.85009
2.81389
2.78128
2.75316
2.7254
2.69748
2.67512
2.65756
2.64337
2.63224
2.62734
2.6336
2.63846
2.63127
2.61495