/*--------------------------------*- C++ -*----------------------------------*\
  =========                 |
  \\      /  F ield         | OpenFOAM: The Open Source CFD Toolbox
   \\    /   O peration     | Website:  https://openfoam.org
    \\  /    A nd           | Version:  10
     \\/     M anipulation  |
\*---------------------------------------------------------------------------*/
FoamFile
{
    format      ascii;
    class       volScalarField;
    location    "3";
    object      T;
}
// * * * * * * * * * * * * * * * * * * * * * * * * * * * * * * * * * * * * * //

dimensions      [0 0 0 1 0 0 0];

internalField   nonuniform List<scalar> 
16128
(
1
1
1
1
1
1
1
1
1
1
1
1
1
1
1
1
1
1
1
1
1
1
1
1
1.9348
2.67192
2.69946
2.70456
2.71397
2.72465
2.73688
2.74926
2.75975
2.76671
2.77027
2.77223
2.77466
2.77913
2.78593
2.79328
2.79888
2.80166
2.80262
2.80338
2.8055
2.80905
2.81254
2.81466
1
1
1
1
1
1
1
1
1
1
1
1
1
1
1
1
1
1
1
1
1
1
1
1
1.923
2.66852
2.69949
2.7045
2.71382
2.72443
2.73661
2.74895
2.75938
2.76627
2.76977
2.7717
2.77412
2.77862
2.78545
2.79278
2.79821
2.80078
2.80165
2.80245
2.80464
2.80819
2.81156
2.81352
1
1
1
1
1
1
1
1
1
1
1
1
1
1
1
1
1
1
1
1
1
1
1
1
1.89297
2.66338
2.69834
2.70323
2.7125
2.72319
2.73551
2.74795
2.75844
2.76534
2.7688
2.7707
2.77315
2.77776
2.7847
2.79196
2.79708
2.79934
2.80016
2.80105
2.80327
2.80673
2.80979
2.81183
1
1
1
1
1
1
1
1
1
1
1
1
1
1
1
1
1
1
1
1
1
1
1
1
1.84798
2.65452
2.69622
2.70073
2.70975
2.72053
2.73311
2.74589
2.75671
2.76378
2.76728
2.76916
2.7716
2.77628
2.78329
2.79047
2.79532
2.79736
2.79818
2.79919
2.8014
2.80465
2.80705
2.80961
1
1
1
1
1
1
1
1
1
1
1
1
1
1
1
1
1
1
1
1
1
1
1
1
1.78739
2.64046
2.69381
2.69728
2.70569
2.71652
2.7295
2.74287
2.75429
2.76179
2.76544
2.76728
2.76961
2.77419
2.78114
2.78824
2.79297
2.79493
2.79579
2.79684
2.7989
2.80186
2.80412
2.80674
1
1
1
1
1
1
1
1
1
1
1
1
1
1
1
1
1
1
1
1
1
1
1
1
1.70785
2.61818
2.69263
2.69357
2.70058
2.71114
2.72444
2.73844
2.75063
2.75878
2.76273
2.76455
2.76669
2.77098
2.77774
2.78485
2.78975
2.79191
2.79286
2.79398
2.79598
2.79859
2.80072
2.80342
1
1
1
1
1
1
1
1
1
1
1
1
1
1
1
1
1
1
1
1
1
1
1
1
1.6103
2.58751
2.69239
2.69086
2.69602
2.70539
2.71835
2.73259
2.74542
2.75437
2.75886
2.76087
2.76289
2.76688
2.77337
2.78053
2.78569
2.78808
2.78914
2.79039
2.79253
2.79465
2.79536
2.79869
1
1
1
1
1
1
1
1
1
1
1
1
1
1
1
1
1
1
1
1
1
1
1
1
1.49083
2.54327
2.69175
2.68875
2.69287
2.70042
2.71211
2.72586
2.73895
2.74875
2.75412
2.75659
2.7586
2.76222
2.76829
2.77534
2.78072
2.78331
2.78447
2.78596
2.78842
2.79061
2.78915
2.79274
1
1
1
1
1
1
1
1
1
1
1
1
1
1
1
1
1
1
1
1
1
1
1
1
1.34166
2.47589
2.68827
2.68571
2.69008
2.69592
2.7055
2.71786
2.73069
2.74129
2.74791
2.75127
2.75353
2.75686
2.76242
2.76921
2.77468
2.7774
2.7786
2.78014
2.78254
2.78454
2.78209
2.78655
1
1
1
1
1
1
1
1
1
1
1
1
1
1
1
1
1
1
1
1
1
1
1
1
1.17396
2.39717
2.68424
2.68103
2.68679
2.69163
2.69919
2.70941
2.72106
2.73194
2.73989
2.74452
2.74737
2.7506
2.75568
2.76209
2.76757
2.77047
2.7717
2.77319
2.7754
2.7771
2.77387
2.77852
1
1
1
1
1
1
1
1
1
1
1
1
1
1
1
1
1
1
1
1
1
1
1
1
1.01782
2.31867
2.67944
2.67888
2.68398
2.68851
2.69426
2.70192
2.71163
2.72185
2.73048
2.73635
2.74003
2.74333
2.74793
2.75383
2.75917
2.76215
2.76319
2.76433
2.76597
2.7674
2.7639
2.76913
1
1
1
1
1
1
1
1
1
1
1
1
1
1
1
1
1
1
1
1
1
1
1
1
1.00017
2.21574
2.67536
2.67813
2.68288
2.68776
2.69242
2.69778
2.7043
2.71242
2.7207
2.72721
2.7316
2.73501
2.73911
2.7444
2.74944
2.75245
2.75339
2.75411
2.75477
2.75565
2.75171
2.75517
1
1
1
1
1
1
1
1
1
1
1
1
1
1
1
1
1
1
1
1
1
1
1
1
1
2.07909
2.66153
2.67751
2.68166
2.68624
2.6901
2.69417
2.69918
2.70517
2.71162
2.71759
2.72214
2.72551
2.72906
2.73362
2.73814
2.74099
2.7414
2.74086
2.73943
2.73913
2.73426
2.7385
1
1
1
1
1
1
1
1
1
1
1
1
1
1
1
1
1
1
1
1
1
1
1
1
1
1.8997
2.62071
2.67047
2.67848
2.68464
2.68881
2.69201
2.69515
2.69897
2.70363
2.7084
2.7123
2.7152
2.7181
2.72172
2.72504
2.72727
2.72694
2.7255
2.72253
2.72047
2.71255
2.71032
1
1
1
1
1
1
1
1
1
1
1
1
1
1
1
1
1
1
1
1
1
1
1
1
1
1.67378
2.54101
2.64906
2.66604
2.67718
2.68408
2.6883
2.69136
2.69427
2.69736
2.7004
2.70301
2.7049
2.70665
2.70861
2.71018
2.7112
2.70992
2.70664
2.6997
2.69069
2.67612
2.67109
1
1
1
1
1
1
1
1
1
1
1
1
1
1
1
1
1
1
1
1
1
1
1
1
1
1.35849
2.41794
2.63245
2.64841
2.66312
2.67275
2.67915
2.68384
2.68761
2.69083
2.6933
2.69473
2.69533
2.69558
2.69515
2.69452
2.6933
2.68976
2.6833
2.672
2.65991
2.64253
2.6477
1
1
1
1
1
1
1
1
1
1
1
1
1
1
1
1
1
1
1
1
1
1
1
1
1
1.03902
2.30617
2.63412
2.63328
2.64028
2.65202
2.66226
2.67051
2.67675
2.68144
2.68462
2.68575
2.68551
2.68414
2.68174
2.67833
2.67414
2.6674
2.65771
2.63988
2.61374
2.54886
2.40568
1
1
1
1
1
1
1
1
1
1
1
1
1
1
1
1
1
1
1
1
1
1
1
1
1
1.00032
2.17173
2.61649
2.61523
2.62052
2.6305
2.64172
2.65225
2.66107
2.66799
2.67304
2.67512
2.67473
2.67247
2.66859
2.66238
2.65486
2.64387
2.62856
2.60219
2.55459
2.47899
2.27675
1
1
1
1
1
1
1
1
1
1
1
1
1
1
1
1
1
1
1
1
1
1
1
1
1
0.999997
1.95635
2.59729
2.61597
2.62018
2.62348
2.62817
2.63533
2.64337
2.65106
2.65769
2.6614
2.66158
2.65926
2.65453
2.64622
2.63546
2.62002
2.59866
2.5655
2.51163
2.41493
2.21216
1
1
1
1
1
1
1
1
1
1
1
1
1
1
1
1
1
1
1
1
1
1
1
1
1
0.999999
1.62727
2.5059
2.6091
2.61558
2.61721
2.61944
2.62307
2.62824
2.63383
2.63986
2.64449
2.64591
2.64394
2.63907
2.62979
2.61647
2.59731
2.57098
2.5316
2.475
2.36761
2.2027
1
1
1
1
1
1
1
1
1
1
1
1
1
1
1
1
1
1
1
1
1
1
1
1
1
1
1.20847
2.36566
2.61097
2.60588
2.60824
2.61126
2.61301
2.61516
2.61765
2.62136
2.62537
2.62755
2.6261
2.62163
2.61222
2.59747
2.57593
2.54636
2.50393
2.44406
2.34246
2.20972
1
1
1
1
1
1
1
1
1
1
1
1
1
1
1
1
1
1
1
1
1
1
1
1
1
1
1.01139
2.23056
2.58799
2.58781
2.59399
2.59984
2.60246
2.60367
2.60383
2.60465
2.60619
2.60738
2.60601
2.60187
2.59281
2.57792
2.55579
2.52456
2.48158
2.42088
2.33102
2.22302
1
1
1
1
1
1
1
1
1
1
1
1
1
1
1
1
1
1
1
1
1
1
1
1
1
1
1.00001
1.97821
2.54949
2.57848
2.58709
2.59194
2.59359
2.59358
2.59251
2.59107
2.58961
2.58833
2.58584
2.58117
2.57219
2.55768
2.53606
2.505
2.46328
2.40493
2.32676
2.23682
1
1
1
1
1
1
1
1
1
1
1
1
1
1
1
1
1
1
1
1
1
1
1
1
1
1
0.999998
1.56448
2.44641
2.56881
2.57614
2.58159
2.58376
2.58319
2.58135
2.57868
2.57501
2.57111
2.56634
2.56009
2.55056
2.53637
2.51585
2.48627
2.44698
2.39336
2.32575
2.24848
1
1
1
1
1
1
1
1
1
1
1
1
1
1
1
1
1
1
1
1
1
1
1
1
1
1
0.999999
1.08964
2.29179
2.5682
2.56305
2.56617
2.57043
2.57076
2.5693
2.56643
2.56172
2.55605
2.54907
2.54082
2.53005
2.51556
2.49591
2.46793
2.43123
2.38341
2.32548
2.25784
1
1
1
1
1
1
1
1
1
1
1
1
1
1
1
1
1
1
1
1
1
1
1
1
1
1
1
1.00191
2.10183
2.52833
2.53911
2.55024
2.55559
2.55664
2.55573
2.5533
2.54851
2.54201
2.53374
2.52372
2.51145
2.49585
2.47654
2.44974
2.41573
2.37332
2.32398
2.26442
1
1
1
1
1
1
1
1
1
1
1
1
1
1
1
1
1
1
1
1
1
1
1
1
1
1
1
0.999986
1.68713
2.446
2.5271
2.53515
2.54079
2.54322
2.54248
2.54008
2.53537
2.52854
2.51966
2.50854
2.4952
2.47887
2.45873
2.43284
2.40123
2.36367
2.32055
2.2687
1
1
1
1
1
1
1
1
1
1
1
1
1
1
1
1
1
1
1
1
1
1
1
1
1
1
1
0.999996
1.13178
2.29398
2.52859
2.52044
2.52319
2.52691
2.52647
2.52478
2.52086
2.51454
2.50583
2.4945
2.4806
2.46398
2.44298
2.41788
2.38808
2.35431
2.315
2.26995
1
1
1
1
1
1
1
1
1
1
1
1
1
1
1
1
1
1
1
1
1
1
1
1
1
1
1
0.999999
1.00423
2.10279
2.48965
2.49539
2.50576
2.50913
2.50921
2.50829
2.50537
2.49996
2.49188
2.48093
2.46733
2.45054
2.42967
2.40541
2.37729
2.34615
2.30974
2.26991
1
1
1
1
1
1
1
1
1
1
1
1
1
1
1
1
1
1
1
1
1
1
1
1
1
1
1
1
0.99998
1.64348
2.40173
2.48304
2.49307
2.49444
2.494
2.49284
2.49005
2.48512
2.47761
2.46699
2.45434
2.43763
2.41762
2.39435
2.36797
2.33866
2.30479
2.26892
1
1
1
1
1
1
1
1
1
1
1
1
1
1
1
1
1
1
1
1
1
1
1
1
1
1
1
1
0.999994
1.11248
2.24159
2.48314
2.47596
2.47723
2.477
2.47586
2.47338
2.46903
2.46235
2.45284
2.44067
2.42519
2.40656
2.38463
2.36009
2.33232
2.30114
2.26789
1
1
1
1
1
1
1
1
1
1
1
1
1
1
1
1
1
1
1
1
1
1
1
1
1
1
1
1
0.999999
1.00275
1.96154
2.43966
2.45172
2.45744
2.45969
2.45939
2.45737
2.45321
2.4469
2.43806
2.4265
2.41229
2.39515
2.37494
2.35225
2.32619
2.2975
2.26626
1
1
1
1
1
1
1
1
1
1
1
1
1
1
1
1
1
1
1
1
1
1
1
1
1
1
1
1
1
0.999992
1.37269
2.31325
2.45207
2.44415
2.44427
2.44381
2.44173
2.43767
2.43172
2.42342
2.41269
2.39951
2.38364
2.36512
2.3441
2.32003
2.29361
2.26462
1
1
1
1
1
1
1
1
1
1
1
1
1
1
1
1
1
1
1
1
1
1
1
1
1
1
1
1
1
0.999998
1.03291
2.13636
2.43111
2.42303
2.4252
2.4251
2.4239
2.42088
2.41572
2.40814
2.3983
2.38619
2.3716
2.35464
2.33517
2.31291
2.28864
2.26227
1
1
1
1
1
1
1
1
1
1
1
1
1
1
1
1
1
1
1
1
1
1
1
1
1
1
1
1
1
1
1.00016
1.65732
2.34471
2.40388
2.41125
2.4112
2.40955
2.40605
2.40085
2.39362
2.38439
2.37307
2.35942
2.34358
2.32555
2.30498
2.28275
2.25895
1
1
1
1
1
1
1
1
1
1
1
1
1
1
1
1
1
1
1
1
1
1
1
1
1
1
1
1
1
1
1
1.11566
2.17615
2.40812
2.40122
2.39867
2.39488
2.39016
2.38475
2.37806
2.36966
2.35931
2.34669
2.33189
2.31539
2.29649
2.27603
2.25442
1
1
1
1
1
1
1
1
1
1
1
1
1
1
1
1
1
1
1
1
1
1
1
1
1
1
1
1
1
1
1
1.00271
1.79529
2.34512
2.38086
2.38016
2.37854
2.37539
2.37052
2.36384
2.35549
2.34559
2.33378
2.3201
2.30496
2.28754
2.26852
2.24873
1
1
1
1
1
1
1
1
1
1
1
1
1
1
1
1
1
1
1
1
1
1
1
1
1
1
1
1
1
1
1
1
1.19107
2.17993
2.38087
2.37173
2.36739
2.363
2.35739
2.35028
2.34177
2.33192
2.32063
2.30785
2.29394
2.27811
2.26051
2.24226
1
1
1
1
1
1
1
1
1
1
1
1
1
1
1
1
1
1
1
1
1
1
1
1
1
1
1
1
1
1
1
1
1.00777
1.85473
2.32785
2.3548
2.3516
2.34792
2.34286
2.3363
2.32811
2.31851
2.30777
2.29576
2.28279
2.26835
2.25216
2.23502
1
1
1
1
1
1
1
1
1
1
1
1
1
1
1
1
1
1
1
1
1
1
1
1
1
1
1
1
1
1
1
1
1.00002
1.2392
2.16342
2.34949
2.34132
2.33711
2.33154
2.32445
2.316
2.30647
2.29608
2.28458
2.27213
2.25857
2.24354
2.22732
1
1
1
1
1
1
1
1
1
1
1
1
1
1
1
1
1
1
1
1
1
1
1
1
1
1
1
1
1
1
1
1
1
1.01236
1.85233
2.29575
2.3272
2.32315
2.31778
2.31108
2.30325
2.29436
2.28459
2.27371
2.26177
2.24878
2.2346
2.21935
1
1
1
1
1
1
1
1
1
1
1
1
1
1
1
1
1
1
1
1
1
1
1
1
1
1
1
1
1
1
1
1
1
1.00005
1.24732
2.1259
2.31617
2.31046
2.30571
2.29959
2.29257
2.2844
2.27495
2.26423
2.25241
2.23962
2.22588
2.21132
1
1
1
1
1
1
1
1
1
1
1
1
1
1
1
1
1
1
1
1
1
1
1
1
1
1
1
1
1
1
1
1
1
1
1.01319
1.78416
2.2528
2.29805
2.2918
2.28641
2.28037
2.27308
2.26427
2.25405
2.24268
2.23042
2.2173
2.20325
1
1
1
1
1
1
1
1
1
1
1
1
1
1
1
1
1
1
1
1
1
1
1
1
1
1
1
1
1
1
1
1
1
1
1.00007
1.20743
2.07149
2.28272
2.27846
2.27542
2.26965
2.26229
2.25375
2.2442
2.23358
2.22203
2.20961
2.19609
1
1
1
1
1
1
1
1
1
1
1
1
1
1
1
1
1
1
1
1
1
1
1
1
1
1
1
1
1
1
1
1
1
1
1
1.00919
1.64319
2.19063
2.26579
2.25947
2.25432
2.24841
2.24136
2.23321
2.22386
2.21319
2.20148
2.18886
1
1
1
1
1
1
1
1
1
1
1
1
1
1
1
1
1
1
1
1
1
1
1
1
1
1
1
1
1
1
1
1
1
1
1
1.00005
1.13036
1.99885
2.25384
2.24348
2.2391
2.23479
2.22946
2.2227
2.21449
2.2047
2.19362
2.1818
1
1
1
1
1
1
1
1
1
1
1
1
1
1
1
1
1
1
1
1
1
1
1
1
1
1
1
1
1
1
1
1
1
1
1
1
1.00366
1.48934
2.12751
2.22744
2.2219
2.21868
2.21463
2.20918
2.20229
2.19399
2.18418
2.17326
1
1
1
1
1
1
1
1
1
1
1
1
1
1
1
1
1
1
1
1
1
1
1
1
1
1
1
1
1
1
1
1
1
1
1
1
1.00002
1.06532
1.87458
2.21231
2.21172
2.20718
2.20205
2.19674
2.19053
2.18333
2.17493
2.16516
1
1
1
1
1
1
1
1
1
1
1
1
1
1
1
1
1
1
1
1
1
1
1
1
1
1
1
1
1
1
1
1
1
1
1
1
1
1.00104
1.31868
2.05334
2.19936
2.19231
2.18729
2.18197
2.17627
2.16997
2.16292
2.15474
1
1
1
1
1
1
1
1
1
1
1
1
1
1
1
1
1
1
1
1
1
1
1
1
1
1
1
1
1
1
1
1
1
1
1
1
1
1
1.02391
1.67013
2.12965
2.18517
2.17767
2.17109
2.1649
2.15853
2.15173
2.14428
1
1
1
1
1
1
1
1
1
1
1
1
1
1
1
1
1
1
1
1
1
1
1
1
1
1
1
1
1
1
1
1
1
1
1
1
1
1
1.00024
1.15157
1.92397
2.17352
2.16787
2.16075
2.15389
2.14711
2.14023
2.13301
1
1
1
1
1
1
1
1
1
1
1
1
1
1
1
1
1
1
1
1
1
1
1
1
1
1
1
1
1
1
1
1
1
1
1
1
1
1
1
1.00514
1.42047
2.04351
2.15523
2.14838
2.14146
2.13492
2.12832
2.12156
1
1
1
1
1
1
1
1
1
1
1
1
1
1
1
1
1
1
1
1
1
1
1
1
1
1
1
1
1
1
1
1
1
1
1
1
1
1
1
1.00003
1.04713
1.71885
2.0994
2.14379
2.13552
2.12763
2.12044
2.11332
1
1
1
1
1
1
1
1
1
1
1
1
1
1
1
1
1
1
1
1
1
1
1
1
1
1
1
1
1
1
1
1
1
1
1
1
1
1
1
1
1.00071
1.19413
1.9012
2.12774
2.12619
2.1192
2.11227
2.10491
1
1
1
1
1
1
1
1
1
1
1
1
1
1
1
1
1
1
1
1
1
1
1
1
1
1
1
1
1
1
1
1
1
1
1
1
1
1
1
1
1
1.00862
1.42467
2.00059
2.11314
2.10828
2.10155
2.09497
1
1
1
1
1
1
1
1
1
1
1
1
1
1
1
1
1
1
1
1
1
1
1
1
1
1
1
1
1
1
1
1
1
1
1
1
1
1
1
1
1
1.00007
1.05035
1.6646
2.05075
2.10271
2.09395
2.08615
1
1
1
1
1
1
1
1
1
1
1
1
1
1
1
1
1
1
1
1
1
1
1
1
1
1
1
1
1
1
1
1
1
1
1
1
1
1
1
1
1
1
1.00084
1.16581
1.83642
2.07235
2.08789
2.07987
1
1
1
1
1
1
1
1
1
1
1
1
1
1
1
1
1
1
1
1
1
1
1
1
1
1
1
1
1
1
1
1
1
1
1
1
1
1
1
1
1
1
1
1.00663
1.35051
1.92548
2.07199
2.06988
1
1
1
1
1
1
1
1
1
1
1
1
1
1
1
1
1
1
1
1
1
1
1
1
1
1
1
1
1
1
1
1
1
1
1
1
1
1
1
1
1
1
1
1.00005
1.03261
1.54208
1.98579
2.06091
1
1
1
1
1
1
1
1
1
1
1
1
1
1
1
1
1
1
1
1
1
1
1
1
1
1
1
1
1
1
1
1
1
1
1
1
1
1
1
1
1
1
1
1
1.00046
1.10104
1.71337
2.01135
1
1
1
1
1
1
1
1
1
1
1
1
1
1
1
1
1
1
1
1
1
1
1
1
1
1
1
1
1
1
1
1
1
1
1
1
1
1
1
1
1
1
1
1
1
1.00283
1.22349
1.82453
1
1
1
1
1
1
1
1
1
1
1
1
1
1
1
1
1
1
1
1
1
1
1
1
1
1
1
1
1
1
1
1
1
1
1
1
1
1
1
1
1
1
1
1
1
1.00002
1.0126
1.3755
1
1
1
1
1
1
1
1
1
1
1
1
1
1
1
1
1
1
1
1
1
1
1
1
1
1
1
1
1
1
1
1
1
1
1
1
1
1
1
1
1
1
1
1
1
1
1.00013
1.04066
1
1
1
1
1
1
1
1
1
1
1
1
1
1
1
1
1
1
1
1
1
1
1
1
1
1
1
1
1
1
1
1
1
1
1
1
1
1
1
1
1
1
1
1
1
1
1
1.00069
1
1
1
1
1
1
1
1
1
1
1
1
1
1
1
1
1
1
1
1
1
1
1
1
1
1
1
1
1
1
1
1
1
1
1
1
1
1
1
1
1
1
1
1
1
1
1
1
1
1
1
1
1
1
1
1
1
1
1
1
1
1
1
1
1
1
1
1
1
1
1
1
1
1
1
1
1
1
1
1
1
1
1
1
1
1
1
1
1
1
1
1
1
1
1
1
1
1
1
1
1
1
1
1
1
1
1
1
1
1
1
1
1
1
1
1
1
1
1
1
1
1
1
1
1
1
1
1
1
1
1
1
1
1
1
1
1
1
1
1
1
1
1
1
1
1
1
1
1
1
1
1
1
1
1
1
1
1
1
1
1
1
1
1
1
1
1
1
1
1
1
1
1
1
1
1
1
1
1
1
1
1
1
1
1
1
1
1
1
1
1
1
1
1
1
1
1
1
1
1
1
1
1
1
1
1
1
1
1
1
1
1
1
1
1
1
1
1
1
1
1
1
1
1
1
1
1
1
1
1
1
1
1
1
1
1
1
1
1
1
1
1
1
1
1
1
1
1
1
1
1
1
1
1
1
1
1
1
1
1
1
1
1
1
1
1
1
1
1
1
1
1
1
1
1
1
1
1
1
1
1
1
1
1
1
1
1
1
1
1
1
1
1
1
1
1
1
1
1
1
1
1
1
1
1
1
1
1
1
1
1
1
1
1
1
1
1
1
1
1
1
1
1
1
1
1
1
1
1
1
1
1
1
1
1
1
1
1
1
1
1
1
1
1
1
1
1
1
1
1
1
1
1
1
1
1
1
1
1
1
1
1
1
1
1
1
1
1
1
1
1
1
1
1
1
1
1
1
1
1
1
1
1
1
1
1
1
1
1
1
1
1
1
1
1
1
1
1
1
1
1
1
1
1
1
1
1
1
1
1
1
1
1
1
1
1
1
1
1
1
1
1
1
1
1
1
1
1
1
1
1
1
1
1
1
1
1
1
1
1
1
1
1
1
1
1
1
1
1
1
1
1
1
1
1
1
1
1
1
1
1
1
1
1
1
1
1
1
1
1
1
1
1
1
1
1
1
1
1
1
1
1
1
1
1
1
1
1
1
1
1
1
1
1
1
1
1
1
1
1
1
1
1
1
1
1
1
1
1
1
1
1
1
1
1
1
1
1
1
1
1
1
1
1
1
1
1
1
1
1
1
1
1
1
1
1
1
1
1
1
1
1
1
1
1
1
1
1
1
1
1
1
1
1
1
1
1
1
1
1
1
1
1
1
1
1
1
1
1
1
1
1
1
1
1
1
1
1
1
1
1
1
1
1
1
1
1
1
1
1
1
1
1
1
1
1
1
1
1
1
1
1
1
1
1
1
1
1
1
1
1
1
1
1
1
1
1
1
1
1
1
1
1
1
1
1
1
1
1
1
1
1
1
1
1
1
1
1
1
1
1
1
1
1
1
1
1
1
1
1
1
1
1
1
1
1
1
1
1
1
1
1
1
1
1
1
1
1
1
1
1
1
1
1
1
1
1
1
1
1
1
1
1
1
1
1
1
1
1
1
1
1
1
1
1
1
1
1
1
1
1
1
1
1
1
1
1
1
1
1
1
1
1
1
1
1
1
1
1
1
1
1
1
1
1
1
1
1
1
1
1
1
1
1
1
1
1
1
1
1
1
1
1
1
1
1
1
1
1
1
1
1
1
1
1
1
1
1
1
1
1
1
1
1
1
1
1
1
1.46791
0.739221
0.417276
0.512053
0.714021
0.818476
0.888563
0.978179
1.06682
1.14241
1.19124
1.23732
1.29002
1.3622
1.42121
1.46666
1.49356
1.49904
1.49446
1.50572
1.54429
1.57714
1.59154
1.58887
1.56126
1.54285
1.55396
1.58561
1.60186
1.60257
1.59992
1.58388
1.5799
1.59069
1.61376
1.62055
1.61954
1.60811
1.58456
1.58249
1.59036
1.61502
1.62669
1.62727
1.62413
1.60752
1.60223
1.60303
1.60789
1.61023
1.61089
1.60877
1.60462
1.60378
1.60578
1.6113
1.61329
1.61384
1.61287
1.609
1.60784
1.60782
1.60822
1.60737
1.60301
2.03947
2.55058
2.67419
2.70735
2.71967
2.72788
2.73097
2.73292
2.73279
2.73039
2.72475
2.71727
2.70894
2.69991
2.68988
2.67849
2.66602
2.6542
2.64433
2.63584
2.62676
2.61485
2.59995
2.5837
2.56847
2.55553
2.54442
2.53401
2.52374
2.51382
2.50467
2.49621
2.48762
2.47757
2.46548
2.45222
2.43962
2.42949
2.42255
2.41828
2.41474
2.40927
2.39972
2.38725
2.37398
2.36115
2.34955
2.33988
2.33334
2.32996
2.32792
2.32429
2.31808
2.30997
2.30097
2.29192
2.2836
2.27661
2.27113
2.26675
2.26183
2.25516
2.24744
2.23945
2.23092
2.22227
2.21434
2.20783
2.20284
2.19821
2.19223
2.18495
2.17605
2.16438
2.15261
2.14418
2.13873
2.13495
2.13166
2.12798
2.12338
2.11592
2.10573
2.09686
2.09031
2.08528
2.08223
2.08016
2.07694
2.07284
2.06844
2.06418
2.06047
2.05792
2.05746
2.05765
2.05523
2.04977
2.03862
2.0237
2.01116
2.00297
1.99774
1.995
1.99587
1.99695
1.99525
1.99145
1.98605
1.97812
1.96987
1.96325
1.95856
1.95529
1.95242
1.94785
1.9387
1.92596
1.91327
1.90295
1.89664
1.89291
1.89116
1.89278
1.8965
1.9013
1.90266
1.77329
1.38091
1.13552
0.961024
0.981088
0.973356
0.903527
0.810397
0.819987
0.894518
0.980805
1.04158
1.07263
1.11175
1.17606
1.23898
1.30176
1.34336
1.36377
1.38183
1.41306
1.45617
1.4958
1.52482
1.52963
1.52883
1.53346
1.54156
1.54368
1.54613
1.55103
1.55706
1.57358
1.59389
1.59888
1.59724
1.58665
1.57427
1.57438
1.58513
1.60489
1.61375
1.61362
1.60987
1.59849
1.59135
1.59167
1.59804
1.60808
1.61163
1.61079
1.60627
1.60171
1.60282
1.60741
1.61033
1.61062
1.60923
1.604
1.59888
1.59603
1.59476
1.59515
1.59715
1.59781
1.76758
2.4432
2.70233
2.71788
2.71234
2.71523
2.71207
2.71319
2.71317
2.71161
2.70644
2.69791
2.68825
2.67903
2.67047
2.66244
2.65317
2.64284
2.63217
2.62123
2.61005
2.59861
2.58682
2.57438
2.56159
2.54937
2.5382
2.52801
2.51835
2.50864
2.49862
2.48831
2.478
2.46783
2.45781
2.44807
2.43893
2.43068
2.42286
2.41472
2.4059
2.39668
2.38777
2.37862
2.36842
2.3583
2.34887
2.34084
2.3348
2.33049
2.32623
2.32
2.3124
2.30423
2.29592
2.2883
2.28218
2.27698
2.27142
2.26557
2.25897
2.25076
2.24182
2.23377
2.2263
2.21938
2.21328
2.20828
2.20343
2.19781
2.19066
2.18137
2.17118
2.16165
2.15323
2.14628
2.14088
2.13639
2.13218
2.1276
2.12106
2.11167
2.10252
2.09577
2.09126
2.08779
2.084
2.07953
2.0751
2.07072
2.06625
2.06252
2.06063
2.06001
2.05818
2.05461
2.0482
2.03874
2.02902
2.02099
2.01336
2.00615
2.00171
1.99943
1.99779
1.9951
1.99088
1.98517
1.97837
1.97242
1.96842
1.96546
1.96196
1.9564
1.94879
1.94063
1.93296
1.92611
1.9189
1.90978
1.90095
1.89597
1.89421
1.89436
1.89761
1.90238
1.90143
1.89211
1.66691
1.48363
1.2701
1.179
1.12602
1.08661
1.06339
1.04919
1.0236
0.994409
0.993451
0.997665
1.0119
1.04962
1.09852
1.13841
1.17451
1.21449
1.25094
1.27817
1.32091
1.36267
1.40382
1.44647
1.46981
1.48777
1.49318
1.4944
1.50159
1.51662
1.53374
1.54622
1.54942
1.54901
1.54674
1.54619
1.55439
1.56892
1.5772
1.57927
1.57559
1.56913
1.56519
1.56607
1.57655
1.58543
1.58741
1.58672
1.58428
1.58273
1.58426
1.59176
1.59672
1.59675
1.59174
1.58355
1.57874
1.57692
1.57856
1.58396
1.58847
1.59072
1.59161
1.59056
1.6131
2.21337
2.73683
2.73703
2.68853
2.6678
2.65356
2.65208
2.65017
2.64812
2.64464
2.6367
2.62759
2.61848
2.61036
2.60501
2.60074
2.5942
2.58548
2.57529
2.56423
2.55336
2.54353
2.53452
2.52531
2.51555
2.50632
2.49841
2.4909
2.48194
2.47088
2.45893
2.4473
2.43743
2.43059
2.42626
2.42131
2.41378
2.4041
2.39263
2.38125
2.37162
2.36317
2.35588
2.34932
2.34272
2.33666
2.33153
2.32576
2.3184
2.3098
2.3009
2.29317
2.28655
2.2812
2.27811
2.2753
2.27032
2.26367
2.25399
2.2424
2.23279
2.22581
2.22026
2.21551
2.21152
2.20754
2.20262
2.1967
2.18855
2.17813
2.16783
2.15982
2.15391
2.14906
2.1451
2.14035
2.13433
2.12718
2.11903
2.11012
2.10253
2.09787
2.09454
2.09144
2.08754
2.08207
2.07403
2.06817
2.06509
2.06274
2.06184
2.0606
2.05757
2.05188
2.04188
2.03097
2.0234
2.01854
2.01495
2.0123
2.01102
2.00935
2.0052
1.99891
1.99093
1.98348
1.97772
1.97366
1.97049
1.96738
1.96384
1.95873
1.95004
1.93952
1.93098
1.92475
1.91979
1.91563
1.9127
1.911
1.90944
1.90637
1.90416
1.90208
1.89922
1.89188
1.97335
1.80836
1.66434
1.53168
1.42761
1.33033
1.24313
1.2074
1.20682
1.19198
1.14172
1.08163
1.06333
1.06473
1.07683
1.09975
1.1154
1.11158
1.1067
1.10783
1.11907
1.15953
1.22008
1.27814
1.34414
1.39031
1.41252
1.42263
1.42985
1.44395
1.4642
1.4856
1.49307
1.49274
1.49451
1.49969
1.50874
1.52418
1.53386
1.53433
1.53259
1.52642
1.52454
1.52732
1.53869
1.55077
1.55251
1.54979
1.54383
1.5415
1.54462
1.55403
1.56244
1.56298
1.56002
1.55205
1.54797
1.54815
1.55172
1.5601
1.56633
1.56797
1.56723
1.56366
1.56032
1.56405
1.92294
2.64523
2.73163
2.64147
2.59042
2.56656
2.56088
2.55898
2.55664
2.55272
2.54272
2.53434
2.52824
2.52313
2.52133
2.52081
2.51754
2.51089
2.50153
2.48959
2.47952
2.47218
2.4673
2.46394
2.45902
2.45277
2.44551
2.43694
2.42763
2.41719
2.40651
2.39725
2.38985
2.38715
2.38634
2.38186
2.37395
2.36527
2.3544
2.3425
2.3333
2.3261
2.31933
2.31396
2.31037
2.30729
2.30271
2.29667
2.28914
2.27946
2.27144
2.26605
2.26156
2.25894
2.25721
2.25199
2.24509
2.23679
2.2259
2.21456
2.20742
2.20312
2.1994
2.19613
2.19318
2.18897
2.18356
2.17571
2.16557
2.1561
2.14955
2.14557
2.14255
2.14077
2.13793
2.13257
2.12505
2.11402
2.10315
2.09669
2.09274
2.08979
2.08744
2.0843
2.08015
2.07443
2.06607
2.05939
2.0563
2.0545
2.0538
2.05078
2.04516
2.03596
2.024
2.01463
2.00923
2.00602
2.00381
2.00484
2.00731
2.00543
2.00118
1.99224
1.98046
1.9717
1.96624
1.96264
1.9601
1.95844
1.95475
1.94816
1.93922
1.93038
1.92336
1.91769
1.91372
1.91164
1.91372
1.9161
1.91407
1.90947
1.9022
1.89224
1.88343
1.87396
2.04018
1.91225
1.78798
1.66193
1.58905
1.52001
1.42235
1.32669
1.32241
1.30294
1.25572
1.21456
1.1834
1.16304
1.15971
1.16485
1.15958
1.1442
1.13463
1.12645
1.12098
1.12123
1.12954
1.15138
1.19621
1.25253
1.29023
1.32504
1.35454
1.3812
1.41196
1.43903
1.45375
1.4568
1.45807
1.46425
1.47151
1.48438
1.49465
1.49708
1.49697
1.49724
1.50058
1.50816
1.51787
1.52034
1.52013
1.51545
1.50996
1.51032
1.51519
1.52433
1.52837
1.52814
1.52534
1.52289
1.52322
1.52692
1.53419
1.53941
1.53987
1.53832
1.5343
1.5311
1.53803
1.6005
1.79492
2.40585
2.65166
2.59235
2.53106
2.49211
2.47715
2.47331
2.47241
2.46882
2.46012
2.45276
2.45066
2.45006
2.45111
2.45054
2.44694
2.44185
2.43364
2.42314
2.41538
2.41154
2.41084
2.40975
2.4044
2.39643
2.38658
2.37726
2.36982
2.36382
2.35849
2.35393
2.35055
2.34796
2.34326
2.33617
2.32857
2.32043
2.31142
2.30159
2.29284
2.28662
2.28143
2.27761
2.27566
2.27294
2.26817
2.26274
2.25561
2.24726
2.24114
2.23681
2.23313
2.22963
2.224
2.21704
2.20954
2.20129
2.19282
2.18602
2.18127
2.17777
2.17475
2.17161
2.16757
2.16194
2.1543
2.14565
2.13743
2.13145
2.1285
2.12666
2.12624
2.12564
2.12181
2.11611
2.10679
2.09396
2.08353
2.07801
2.07479
2.07273
2.07197
2.06919
2.06573
2.06138
2.05554
2.04963
2.04591
2.04279
2.0389
2.03324
2.02561
2.01555
2.00579
1.9991
1.99611
1.99472
1.99658
2.00176
2.00049
1.99631
1.98897
1.97705
1.96536
1.95802
1.95371
1.95049
1.94745
1.94343
1.938
1.93083
1.92331
1.91745
1.91365
1.91137
1.91024
1.91257
1.91556
1.91389
1.90973
1.90265
1.89235
1.88024
1.86795
1.8552
2.09002
1.98321
1.88079
1.76958
1.68301
1.6226
1.54834
1.47224
1.42771
1.38215
1.33002
1.30801
1.29135
1.26717
1.23183
1.22194
1.22214
1.20891
1.19142
1.18243
1.1718
1.15629
1.14951
1.15318
1.16007
1.16951
1.17941
1.19707
1.22999
1.26855
1.31494
1.35779
1.40051
1.42873
1.43391
1.4416
1.44709
1.45349
1.46244
1.47117
1.47653
1.48278
1.48994
1.49652
1.50048
1.50145
1.50166
1.49942
1.49764
1.49761
1.49982
1.50433
1.50542
1.50596
1.50588
1.50635
1.50799
1.51146
1.51648
1.51913
1.51902
1.5168
1.514
1.52001
1.58348
1.78531
1.90168
2.1117
2.45404
2.527
2.48769
2.44925
2.42373
2.41233
2.41203
2.41315
2.41137
2.40855
2.40731
2.40354
2.39998
2.39729
2.39503
2.39241
2.38852
2.38342
2.37883
2.37532
2.37163
2.36685
2.36034
2.35192
2.34354
2.33738
2.33277
2.33055
2.33002
2.32758
2.32163
2.31322
2.30449
2.29709
2.29041
2.2843
2.27896
2.27319
2.26632
2.25998
2.25559
2.25283
2.25015
2.2453
2.23947
2.23278
2.22555
2.22
2.21566
2.21115
2.20604
2.2
2.19329
2.18645
2.17955
2.17243
2.1673
2.16411
2.16091
2.15708
2.15234
2.14654
2.13952
2.13202
2.12446
2.11759
2.11239
2.10991
2.10857
2.10851
2.10849
2.10598
2.10206
2.09572
2.08512
2.07281
2.06464
2.06026
2.057
2.05442
2.05186
2.05005
2.04869
2.04647
2.04252
2.03716
2.03148
2.02545
2.01902
2.01208
2.00425
1.99658
1.98965
1.98627
1.98475
1.98495
1.9869
1.98545
1.98204
1.97691
1.96873
1.95862
1.95074
1.94583
1.94145
1.93676
1.93156
1.92606
1.92046
1.91505
1.90927
1.90541
1.90371
1.90348
1.90698
1.91043
1.90843
1.90371
1.89768
1.88997
1.87983
1.86758
1.8558
1.84327
2.12912
2.03682
1.94463
1.84876
1.77013
1.70038
1.62907
1.57125
1.52534
1.47337
1.40993
1.37506
1.36839
1.35844
1.32406
1.29037
1.27963
1.26696
1.24453
1.23469
1.22935
1.2162
1.19954
1.19544
1.19225
1.18358
1.17762
1.17312
1.17439
1.18117
1.19802
1.22835
1.27429
1.32823
1.36868
1.40066
1.42527
1.43344
1.44216
1.45164
1.46143
1.47409
1.48247
1.48523
1.4869
1.48822
1.48945
1.49083
1.49342
1.49638
1.49811
1.49709
1.49507
1.49529
1.49651
1.49765
1.49895
1.50122
1.50472
1.50649
1.50655
1.50721
1.51517
1.58605
1.76206
1.9475
1.98304
2.00233
2.17138
2.40118
2.44955
2.42912
2.40309
2.38642
2.38264
2.38543
2.38814
2.38778
2.38369
2.37854
2.37379
2.37049
2.36887
2.36804
2.36808
2.36645
2.36163
2.35565
2.34804
2.34106
2.3353
2.3301
2.32536
2.32186
2.31996
2.3185
2.31477
2.30931
2.30211
2.29164
2.28131
2.27438
2.26909
2.26508
2.26285
2.26027
2.25611
2.25017
2.24251
2.23517
2.22885
2.2225
2.2158
2.20961
2.20557
2.20192
2.1982
2.1938
2.18843
2.18179
2.17423
2.1668
2.16044
2.15645
2.15369
2.1507
2.14705
2.14246
2.13632
2.1285
2.11985
2.11121
2.1035
2.09845
2.09607
2.09517
2.0959
2.09589
2.09353
2.08976
2.08373
2.075
2.06496
2.05694
2.05234
2.04832
2.04394
2.03932
2.03565
2.03338
2.03115
2.02832
2.025
2.02056
2.01506
2.00857
2.00076
1.99232
1.98523
1.98007
1.9781
1.97755
1.97871
1.97822
1.97535
1.96976
1.96154
1.953
1.94572
1.94063
1.9372
1.93378
1.92966
1.92411
1.9176
1.91142
1.90574
1.90096
1.89857
1.89746
1.89757
1.89988
1.90028
1.89699
1.89154
1.88573
1.87966
1.87314
1.86608
1.85843
1.84913
1.83595
2.15865
2.07784
1.99308
1.91032
1.84115
1.77237
1.6994
1.64046
1.59765
1.55888
1.5077
1.4444
1.42554
1.4224
1.40579
1.37379
1.3459
1.32039
1.28512
1.27187
1.27354
1.2703
1.25604
1.24312
1.23965
1.2313
1.21384
1.19407
1.18915
1.19066
1.19469
1.19726
1.20388
1.21973
1.24482
1.27284
1.31207
1.35494
1.38647
1.41771
1.44587
1.46643
1.47091
1.47125
1.47215
1.47444
1.4768
1.482
1.49042
1.49703
1.49933
1.49953
1.49752
1.49427
1.49365
1.49393
1.49467
1.49556
1.49679
1.49949
1.50217
1.51196
1.58249
1.77933
1.93266
1.99305
1.99983
1.99832
2.01386
2.16871
2.34725
2.41135
2.39336
2.38165
2.37391
2.37444
2.37549
2.37347
2.36924
2.36604
2.36293
2.35963
2.35822
2.35818
2.35804
2.35477
2.34966
2.34383
2.3367
2.3306
2.32636
2.32336
2.32118
2.31805
2.31349
2.30807
2.30212
2.29581
2.28941
2.28183
2.27258
2.26538
2.2611
2.25873
2.25735
2.25436
2.24971
2.24383
2.23555
2.22469
2.21483
2.2076
2.2014
2.19633
2.19298
2.19053
2.18849
2.18466
2.17994
2.17367
2.16565
2.15787
2.15184
2.14711
2.14339
2.14019
2.13668
2.13221
2.12633
2.11885
2.11024
2.10137
2.09429
2.09037
2.08873
2.0894
2.08918
2.08614
2.08199
2.07591
2.06749
2.05798
2.05093
2.04751
2.04468
2.04131
2.03697
2.03162
2.02539
2.01852
2.01364
2.01065
2.00801
2.00509
2.00142
1.99617
1.9888
1.98042
1.97389
1.97127
1.97091
1.97369
1.97359
1.97035
1.96394
1.95336
1.94155
1.93393
1.9297
1.92738
1.9259
1.9232
1.91928
1.9138
1.90724
1.90099
1.89664
1.89435
1.89374
1.89435
1.89443
1.89263
1.88716
1.87924
1.87195
1.86585
1.86058
1.85594
1.85185
1.84759
1.84207
1.83356
2.18237
2.11203
2.03549
1.96389
1.89723
1.82925
1.76857
1.71356
1.65464
1.6175
1.58733
1.54578
1.49096
1.46164
1.45315
1.43375
1.40797
1.38252
1.34586
1.32086
1.31743
1.31698
1.30939
1.2949
1.27987
1.26687
1.25254
1.23418
1.22657
1.22597
1.225
1.22153
1.21707
1.21533
1.21025
1.20951
1.21602
1.23538
1.26665
1.31542
1.3715
1.42382
1.45691
1.46439
1.46611
1.46337
1.46303
1.46987
1.4848
1.49525
1.4976
1.49818
1.4979
1.49547
1.49234
1.49183
1.49225
1.4931
1.49557
1.49895
1.51036
1.58524
1.78598
1.94148
1.98203
1.99012
1.9956
1.99717
1.9981
2.01693
2.14004
2.31718
2.37067
2.37819
2.3704
2.36968
2.36687
2.36301
2.36004
2.35912
2.35818
2.35663
2.35505
2.35259
2.349
2.34446
2.33984
2.33548
2.33142
2.32777
2.32485
2.32162
2.3173
2.31194
2.30536
2.29865
2.29283
2.28777
2.28318
2.27835
2.27216
2.26463
2.25889
2.25477
2.25076
2.2463
2.24161
2.23628
2.22978
2.22092
2.21064
2.20178
2.19507
2.19042
2.18709
2.18542
2.1838
2.18039
2.17572
2.16954
2.16207
2.15473
2.14788
2.14138
2.13524
2.13057
2.12687
2.1231
2.11873
2.11317
2.10703
2.10154
2.09614
2.09044
2.08584
2.0821
2.07852
2.0749
2.07023
2.06348
2.05541
2.04868
2.04522
2.04306
2.04135
2.0384
2.03421
2.02783
2.01828
2.00813
2.0009
1.99701
1.99428
1.99182
1.98902
1.98556
1.9806
1.97561
1.97277
1.97145
1.97126
1.97006
1.96627
1.96016
1.95126
1.93992
1.93021
1.92362
1.91961
1.91645
1.91333
1.91019
1.90675
1.90293
1.89943
1.89688
1.89547
1.89532
1.89489
1.89286
1.88868
1.8812
1.87135
1.86137
1.85445
1.84986
1.84609
1.84265
1.83928
1.83584
1.83338
1.83065
2.20056
2.13764
2.06958
2.00824
1.947
1.87773
1.82249
1.77826
1.72703
1.66992
1.63747
1.61163
1.56994
1.5239
1.495
1.47418
1.45283
1.43199
1.40421
1.37274
1.36042
1.35766
1.35342
1.34409
1.3284
1.3025
1.28205
1.27195
1.2648
1.26182
1.26054
1.2561
1.24732
1.238
1.22856
1.21907
1.21766
1.21893
1.22248
1.23365
1.25853
1.29585
1.3391
1.37349
1.40525
1.43171
1.44234
1.45671
1.47222
1.48552
1.49122
1.49322
1.49359
1.49156
1.48638
1.48581
1.48692
1.49011
1.49832
1.51501
1.59563
1.7854
1.95162
1.97585
1.9811
1.98426
1.99181
1.99813
1.99788
1.9947
2.00792
2.11135
2.27124
2.34412
2.36156
2.36503
2.35998
2.35386
2.35111
2.35159
2.35301
2.35511
2.35397
2.34902
2.34148
2.33509
2.33085
2.32824
2.32772
2.32669
2.32314
2.31753
2.31027
2.30292
2.29643
2.29091
2.28621
2.2827
2.28019
2.27682
2.27219
2.26555
2.25705
2.24926
2.24301
2.23792
2.23313
2.22829
2.22252
2.21548
2.20828
2.20202
2.1967
2.19176
2.1869
2.18209
2.17704
2.17193
2.16692
2.16208
2.15729
2.15202
2.14593
2.13891
2.1318
2.12548
2.12058
2.11644
2.11237
2.10846
2.10534
2.10267
2.0986
2.09275
2.085
2.07701
2.07043
2.06505
2.05953
2.05362
2.04812
2.04505
2.04326
2.04223
2.03998
2.03668
2.03197
2.02435
2.01395
2.0034
1.99564
1.99001
1.98573
1.98244
1.97982
1.97763
1.97681
1.97703
1.97651
1.97448
1.96995
1.96242
1.95496
1.94746
1.9397
1.93239
1.92554
1.91939
1.91333
1.90749
1.90305
1.89971
1.89718
1.89529
1.89471
1.89657
1.8982
1.89756
1.89508
1.88921
1.88008
1.86878
1.85799
1.85007
1.84387
1.83932
1.83605
1.83343
1.83142
1.83017
1.83064
1.83092
2.21488
2.15761
2.09875
2.04371
1.9858
1.92386
1.87343
1.82701
1.78225
1.7321
1.69059
1.65511
1.62255
1.58773
1.54843
1.51529
1.49239
1.47742
1.4615
1.43364
1.40375
1.39266