/*--------------------------------*- C++ -*----------------------------------*\
  =========                 |
  \\      /  F ield         | OpenFOAM: The Open Source CFD Toolbox
   \\    /   O peration     | Website:  https://openfoam.org
    \\  /    A nd           | Version:  10
     \\/     M anipulation  |
\*---------------------------------------------------------------------------*/
FoamFile
{
    format      ascii;
    class       volVectorField;
    location    "3";
    object      U;
}
// * * * * * * * * * * * * * * * * * * * * * * * * * * * * * * * * * * * * * //

dimensions      [0 1 -1 0 0 0 0];

internalField   nonuniform List<vector> 
16128
(
(3 3.35922e-15 0)
(3 2.87848e-14 0)
(3 2.18205e-14 0)
(3 1.55674e-14 0)
(3 1.18855e-14 0)
(3 1.44897e-14 0)
(3 3.9538e-14 0)
(3 4.3147e-14 0)
(3 3.01915e-14 0)
(3 -1.49843e-14 0)
(3 -8.62964e-15 0)
(3 2.92384e-14 0)
(3 2.15607e-14 0)
(3 -1.40227e-14 0)
(3 -3.82761e-14 0)
(3 -4.504e-14 0)
(3 -2.39985e-14 0)
(3 1.89248e-14 0)
(3 2.0272e-14 0)
(3 -3.72267e-15 0)
(3 -6.84529e-14 0)
(3 -6.25073e-14 0)
(3 -8.19072e-14 0)
(3 -6.15515e-14 0)
(1.69534 0.00785687 0)
(0.78978 0.00824976 0)
(0.726512 0.0118792 0)
(0.698679 0.0130933 0)
(0.666327 0.0136781 0)
(0.63454 0.0140952 0)
(0.602569 0.0140943 0)
(0.571503 0.0137337 0)
(0.541682 0.0134142 0)
(0.512553 0.0134469 0)
(0.483145 0.0138679 0)
(0.452962 0.0144542 0)
(0.422169 0.01488 0)
(0.391125 0.0151149 0)
(0.359822 0.0153773 0)
(0.327849 0.0158136 0)
(0.294636 0.016338 0)
(0.260173 0.0169275 0)
(0.224722 0.017607 0)
(0.188206 0.0183607 0)
(0.150328 0.0189342 0)
(0.110353 0.0201622 0)
(0.0672569 0.021512 0)
(0.0230861 0.0219563 0)
(3 -6.40257e-15 0)
(3 7.45648e-15 0)
(3 -4.04926e-15 0)
(3 -2.01947e-15 0)
(3 -2.11124e-14 0)
(3 -5.25276e-15 0)
(3 1.66658e-14 0)
(3 1.90702e-14 0)
(3 -3.20567e-14 0)
(3 -4.19807e-14 0)
(3 -3.25601e-14 0)
(3 -2.3696e-14 0)
(3 -4.99064e-14 0)
(3 -2.60881e-14 0)
(3 -7.43046e-15 0)
(3 -6.82718e-14 0)
(3 -9.29923e-14 0)
(3 -1.0164e-13 0)
(3 -8.47626e-14 0)
(3 -4.08551e-14 0)
(3 -1.35201e-14 0)
(3 2.29715e-14 0)
(3 7.78925e-15 0)
(3 4.17908e-15 0)
(1.71322 0.0380499 0)
(0.784793 0.0362025 0)
(0.717088 0.0334527 0)
(0.689416 0.0365594 0)
(0.657384 0.0385562 0)
(0.625918 0.0402354 0)
(0.594103 0.0406174 0)
(0.563 0.0397162 0)
(0.533049 0.0387033 0)
(0.503829 0.0387691 0)
(0.474413 0.0401605 0)
(0.444246 0.0421337 0)
(0.413417 0.0435882 0)
(0.38231 0.0443792 0)
(0.351027 0.0452128 0)
(0.319325 0.0466184 0)
(0.286791 0.0483968 0)
(0.253411 0.0504988 0)
(0.219305 0.0527877 0)
(0.18427 0.0551816 0)
(0.147798 0.0570716 0)
(0.109075 0.0612235 0)
(0.0667663 0.0656719 0)
(0.0236695 0.067385 0)
(3 -1.30525e-14 0)
(3 -5.59192e-14 0)
(3 -4.4699e-14 0)
(3 -4.38165e-14 0)
(3 -6.59217e-14 0)
(3 -5.27629e-14 0)
(3 -5.22245e-14 0)
(3 -6.11912e-14 0)
(3 -6.11583e-14 0)
(3 -5.95828e-14 0)
(3 -5.75047e-14 0)
(3 -9.1624e-14 0)
(3 -7.6139e-14 0)
(3 -4.30452e-14 0)
(3 -2.48988e-14 0)
(3 -5.60747e-14 0)
(3 -7.47255e-14 0)
(3 -1.29799e-13 0)
(3 -1.67921e-13 0)
(3 -1.26488e-13 0)
(3 -9.98435e-14 0)
(3 -3.76859e-14 0)
(3 -2.54862e-14 0)
(3 -2.30983e-14 0)
(1.77099 0.067907 0)
(0.79221 0.0649731 0)
(0.717594 0.0580285 0)
(0.688723 0.0623033 0)
(0.656059 0.0653969 0)
(0.624254 0.0680613 0)
(0.592087 0.0687968 0)
(0.560421 0.0674959 0)
(0.52967 0.0657958 0)
(0.499559 0.0656745 0)
(0.469345 0.0677759 0)
(0.43845 0.0709634 0)
(0.406762 0.0733059 0)
(0.374614 0.0743994 0)
(0.342274 0.0754215 0)
(0.309792 0.0773636 0)
(0.276969 0.0799025 0)
(0.243743 0.0828903 0)
(0.210179 0.0860796 0)
(0.176129 0.0897214 0)
(0.141021 0.0930085 0)
(0.104249 0.100655 0)
(0.0639467 0.108461 0)
(0.0246775 0.111184 0)
(3 -1.26992e-15 0)
(3 7.76149e-15 0)
(3 2.58426e-14 0)
(3 2.13734e-14 0)
(3 2.19833e-15 0)
(3 -2.60261e-14 0)
(3 -3.15534e-14 0)
(3 -5.40595e-14 0)
(3 -1.54347e-14 0)
(3 -2.92213e-14 0)
(3 -3.43766e-14 0)
(3 -2.14275e-14 0)
(3 -1.10478e-14 0)
(3 -8.71745e-14 0)
(3 -1.11845e-13 0)
(3 -1.37059e-13 0)
(3 -9.36375e-14 0)
(3 -6.12614e-14 0)
(3 -9.88064e-14 0)
(3 -1.1913e-13 0)
(3 -1.23359e-13 0)
(3 -6.91593e-14 0)
(3 -4.18439e-14 0)
(3 -6.25086e-14 0)
(1.85764 0.0940162 0)
(0.802567 0.0946921 0)
(0.720003 0.0831576 0)
(0.691128 0.0876074 0)
(0.659116 0.091562 0)
(0.627984 0.0952462 0)
(0.596199 0.0966546 0)
(0.564431 0.0954615 0)
(0.533089 0.0934725 0)
(0.502089 0.093355 0)
(0.470972 0.0963108 0)
(0.439183 0.100943 0)
(0.406347 0.104478 0)
(0.372763 0.106113 0)
(0.338923 0.107425 0)
(0.305161 0.109849 0)
(0.271381 0.112856 0)
(0.237397 0.116147 0)
(0.203304 0.119417 0)
(0.169142 0.123682 0)
(0.134287 0.127918 0)
(0.0987585 0.139043 0)
(0.0601361 0.149492 0)
(0.0257921 0.152359 0)
(3 2.1265e-14 0)
(3 3.55911e-14 0)
(3 -1.48143e-14 0)
(3 -1.1008e-14 0)
(3 -1.5988e-14 0)
(3 -6.35029e-14 0)
(3 -4.85315e-14 0)
(3 -3.76971e-14 0)
(3 -6.82157e-14 0)
(3 -3.74776e-14 0)
(3 2.33963e-15 0)
(3 -8.54772e-15 0)
(3 2.9292e-14 0)
(3 -5.09205e-15 0)
(3 -9.40824e-14 0)
(3 -8.53615e-14 0)
(3 -5.60501e-14 0)
(3 -2.55484e-14 0)
(3 -2.0991e-14 0)
(3 -3.43282e-15 0)
(3 -1.51723e-14 0)
(3 -4.99725e-14 0)
(3 -5.35002e-14 0)
(3 -4.30086e-14 0)
(1.97341 0.118304 0)
(0.816899 0.125467 0)
(0.723019 0.109303 0)
(0.693709 0.112845 0)
(0.662356 0.117472 0)
(0.631947 0.122196 0)
(0.600665 0.124608 0)
(0.56894 0.124031 0)
(0.537196 0.122093 0)
(0.505614 0.121947 0)
(0.474129 0.125588 0)
(0.442324 0.131634 0)
(0.409488 0.136521 0)
(0.375754 0.138895 0)
(0.341683 0.140637 0)
(0.307654 0.143646 0)
(0.273423 0.147161 0)
(0.238603 0.150706 0)
(0.203384 0.153856 0)
(0.168181 0.158603 0)
(0.132396 0.163247 0)
(0.0971375 0.177156 0)
(0.0587612 0.189605 0)
(0.0223068 0.190971 0)
(3 2.77322e-15 0)
(3 -2.81819e-14 0)
(3 -1.0096e-13 0)
(3 -1.14026e-13 0)
(3 -1.08109e-13 0)
(3 -3.04895e-14 0)
(3 1.17219e-14 0)
(3 2.09974e-15 0)
(3 -4.80976e-14 0)
(3 -5.48251e-14 0)
(3 -1.16141e-14 0)
(3 1.03941e-14 0)
(3 2.94468e-14 0)
(3 3.69486e-14 0)
(3 1.97082e-14 0)
(3 1.13911e-14 0)
(3 2.73588e-14 0)
(3 3.89251e-14 0)
(3 1.67968e-14 0)
(3 6.08454e-14 0)
(3 7.28194e-14 0)
(3 1.05118e-14 0)
(3 -6.65325e-14 0)
(3 -6.77229e-14 0)
(2.12171 0.137096 0)
(0.839006 0.15593 0)
(0.72963 0.136802 0)
(0.699515 0.137933 0)
(0.668748 0.142395 0)
(0.639422 0.147904 0)
(0.609082 0.151534 0)
(0.577846 0.152074 0)
(0.546163 0.150613 0)
(0.514492 0.150394 0)
(0.483162 0.15434 0)
(0.451992 0.161456 0)
(0.419916 0.167631 0)
(0.386757 0.17084 0)
(0.353018 0.173135 0)
(0.318978 0.176957 0)
(0.284144 0.181439 0)
(0.247971 0.18591 0)
(0.210782 0.189554 0)
(0.17344 0.195202 0)
(0.135296 0.19982 0)
(0.0985213 0.215575 0)
(0.0595005 0.230122 0)
(0.0197084 0.229969 0)
(3 -9.3424e-15 0)
(3 -2.15994e-14 0)
(3 9.70288e-15 0)
(3 3.40433e-15 0)
(3 3.4425e-15 0)
(3 1.9687e-15 0)
(3 1.16396e-14 0)
(3 -1.53486e-14 0)
(3 -3.03947e-14 0)
(3 -4.92029e-14 0)
(3 -4.45632e-14 0)
(3 7.38088e-16 0)
(3 1.28481e-14 0)
(3 4.61482e-15 0)
(3 3.72969e-15 0)
(3 5.49292e-14 0)
(3 8.39929e-14 0)
(3 8.42756e-14 0)
(3 7.20385e-14 0)
(3 8.65921e-14 0)
(3 1.04948e-13 0)
(3 9.44661e-14 0)
(3 7.93541e-14 0)
(3 2.09129e-14 0)
(2.2963 0.152253 0)
(0.863637 0.188436 0)
(0.732041 0.165623 0)
(0.701571 0.16399 0)
(0.670549 0.167575 0)
(0.641599 0.173766 0)
(0.611752 0.178817 0)
(0.580843 0.180801 0)
(0.549323 0.180071 0)
(0.517895 0.17959 0)
(0.487169 0.18328 0)
(0.457285 0.191038 0)
(0.426775 0.198509 0)
(0.394852 0.20291 0)
(0.361829 0.206191 0)
(0.327963 0.211327 0)
(0.292715 0.217396 0)
(0.255537 0.223471 0)
(0.216818 0.228109 0)
(0.17772 0.234914 0)
(0.137344 0.23891 0)
(0.0990557 0.255342 0)
(0.0601674 0.269839 0)
(0.0271682 0.270914 0)
(3 7.76395e-15 0)
(3 2.1657e-14 0)
(3 3.83215e-14 0)
(3 8.49736e-14 0)
(3 9.36933e-14 0)
(3 2.40346e-14 0)
(3 -5.8477e-14 0)
(3 -3.93459e-14 0)
(3 3.98273e-15 0)
(3 -9.5922e-15 0)
(3 -4.78206e-14 0)
(3 -1.22457e-14 0)
(3 7.31744e-14 0)
(3 9.14231e-14 0)
(3 1.94327e-14 0)
(3 5.19866e-14 0)
(3 1.46295e-13 0)
(3 1.56642e-13 0)
(3 1.44745e-13 0)
(3 1.46377e-13 0)
(3 2.09035e-13 0)
(3 2.74173e-13 0)
(3 2.1521e-13 0)
(3 1.79648e-13 0)
(2.50125 0.162156 0)
(0.902517 0.223506 0)
(0.741973 0.195787 0)
(0.713377 0.191269 0)
(0.681903 0.193868 0)
(0.652716 0.200221 0)
(0.622482 0.206518 0)
(0.591077 0.21001 0)
(0.558926 0.210053 0)
(0.52682 0.209094 0)
(0.495492 0.211887 0)
(0.465512 0.219665 0)
(0.43546 0.228318 0)
(0.403973 0.23428 0)
(0.371201 0.238925 0)
(0.337535 0.245661 0)
(0.302466 0.253662 0)
(0.26533 0.261845 0)
(0.226141 0.268028 0)
(0.186048 0.276745 0)
(0.143187 0.280657 0)
(0.102407 0.297978 0)
(0.060381 0.309344 0)
(0.0393646 0.312539 0)
(3 -7.10592e-15 0)
(3 -4.51867e-15 0)
(3 2.00154e-14 0)
(3 4.89531e-14 0)
(3 9.9822e-14 0)
(3 7.14338e-14 0)
(3 2.15454e-14 0)
(3 -2.04703e-15 0)
(3 1.51838e-14 0)
(3 8.49921e-14 0)
(3 9.265e-14 0)
(3 6.80887e-14 0)
(3 4.40439e-14 0)
(3 3.79176e-14 0)
(3 6.57891e-14 0)
(3 2.95743e-14 0)
(3 4.38443e-14 0)
(3 1.10925e-13 0)
(3 1.41411e-13 0)
(3 1.76467e-13 0)
(3 1.92285e-13 0)
(3 1.79323e-13 0)
(3 1.50851e-13 0)
(3 1.37644e-13 0)
(2.73059 0.157107 0)
(0.966961 0.252665 0)
(0.769158 0.216346 0)
(0.742363 0.216253 0)
(0.708918 0.219285 0)
(0.678174 0.226419 0)
(0.646343 0.233948 0)
(0.613339 0.239132 0)
(0.579262 0.240664 0)
(0.544996 0.2399 0)
(0.511389 0.241834 0)
(0.479416 0.249299 0)
(0.44814 0.258853 0)
(0.415862 0.26633 0)
(0.382469 0.272214 0)
(0.348542 0.280355 0)
(0.313689 0.290228 0)
(0.277044 0.300724 0)
(0.237864 0.30872 0)
(0.19761 0.319879 0)
(0.153418 0.324763 0)
(0.111287 0.343786 0)
(0.0660771 0.35206 0)
(0.0440569 0.357149 0)
(3 -8.75165e-15 0)
(3 -7.22301e-15 0)
(3 -3.31301e-15 0)
(3 3.71469e-15 0)
(3 4.25272e-14 0)
(3 6.20211e-14 0)
(3 8.43259e-14 0)
(3 8.03742e-14 0)
(3 4.40338e-14 0)
(3 4.17973e-14 0)
(3 9.4582e-14 0)
(3 4.80497e-14 0)
(3 -1.30841e-15 0)
(3 -4.89121e-15 0)
(3 2.5056e-14 0)
(3 2.35968e-14 0)
(3 -4.483e-15 0)
(3 8.14804e-14 0)
(3 1.61583e-13 0)
(3 1.22202e-13 0)
(3 4.82127e-14 0)
(3 -1.14696e-14 0)
(3 -7.30858e-14 0)
(3 -6.63319e-14 0)
(2.94016 0.0797172 0)
(1.04671 0.270022 0)
(0.794825 0.22963 0)
(0.776305 0.237601 0)
(0.742327 0.243867 0)
(0.710329 0.252872 0)
(0.676908 0.262399 0)
(0.642612 0.269602 0)
(0.607289 0.27281 0)
(0.571252 0.272762 0)
(0.535225 0.274079 0)
(0.500561 0.280927 0)
(0.467096 0.290939 0)
(0.433191 0.299672 0)
(0.398424 0.306499 0)
(0.36353 0.315633 0)
(0.328269 0.327073 0)
(0.291667 0.340083 0)
(0.25191 0.350407 0)
(0.211065 0.364653 0)
(0.165091 0.371612 0)
(0.120976 0.392887 0)
(0.072111 0.399828 0)
(0.0480542 0.406696 0)
(3 5.6828e-15 0)
(3 1.14758e-14 0)
(3 -1.53054e-14 0)
(3 -2.42192e-14 0)
(3 -1.85688e-14 0)
(3 4.5915e-14 0)
(3 8.77741e-14 0)
(3 1.4892e-13 0)
(3 9.19555e-14 0)
(3 2.07664e-14 0)
(3 6.37136e-15 0)
(3 5.86332e-14 0)
(3 -7.88405e-15 0)
(3 3.50482e-15 0)
(3 9.52931e-14 0)
(3 1.54406e-13 0)
(3 1.20457e-13 0)
(3 5.9262e-14 0)
(3 3.92452e-14 0)
(3 -4.6875e-14 0)
(3 -5.72567e-14 0)
(3 -8.19087e-14 0)
(3 -3.86457e-14 0)
(3 4.16193e-14 0)
(3.01342 0.00931925 0)
(1.12964 0.270597 0)
(0.798058 0.244614 0)
(0.785293 0.264641 0)
(0.757586 0.27337 0)
(0.730059 0.282 0)
(0.700898 0.291067 0)
(0.669834 0.299118 0)
(0.636435 0.304747 0)
(0.601054 0.306871 0)
(0.564385 0.308643 0)
(0.527852 0.315136 0)
(0.492198 0.325375 0)
(0.456389 0.335124 0)
(0.419867 0.342623 0)
(0.383448 0.352333 0)
(0.347127 0.364907 0)
(0.310359 0.380403 0)
(0.270254 0.393181 0)
(0.2295 0.410568 0)
(0.182242 0.420596 0)
(0.13635 0.445423 0)
(0.0819881 0.453118 0)
(0.0551461 0.462738 0)
(3 -4.04738e-15 0)
(3 3.69159e-16 0)
(3 1.59288e-14 0)
(3 -2.07268e-14 0)
(3 -6.42496e-14 0)
(3 -5.84372e-14 0)
(3 1.65724e-14 0)
(3 4.68269e-14 0)
(3 6.72684e-14 0)
(3 9.50656e-14 0)
(3 7.40616e-14 0)
(3 1.17743e-13 0)
(3 5.82954e-14 0)
(3 3.30591e-14 0)
(3 3.33366e-14 0)
(3 1.24462e-14 0)
(3 -3.83044e-14 0)
(3 -1.25067e-13 0)
(3 -1.69161e-13 0)
(3 -1.71615e-13 0)
(3 -1.30318e-13 0)
(3 -7.69986e-14 0)
(3 1.15227e-14 0)
(3 -5.2863e-14 0)
(3.0009 0.000120973 0)
(1.24663 0.287158 0)
(0.78949 0.254364 0)
(0.770765 0.281535 0)
(0.748553 0.297551 0)
(0.72577 0.30829 0)
(0.703933 0.318262 0)
(0.681817 0.326924 0)
(0.657057 0.333596 0)
(0.627593 0.338444 0)
(0.593988 0.342858 0)
(0.558425 0.350581 0)
(0.522384 0.36159 0)
(0.485604 0.372537 0)
(0.447608 0.380885 0)
(0.409459 0.391036 0)
(0.371429 0.404229 0)
(0.333793 0.421958 0)
(0.29243 0.43765 0)
(0.249977 0.459276 0)
(0.200028 0.474564 0)
(0.150587 0.505652 0)
(0.088456 0.516246 0)
(0.0562435 0.527408 0)
(3 6.05086e-16 0)
(3 -9.37772e-15 0)
(3 -5.41702e-15 0)
(3 -2.18652e-15 0)
(3 -6.42309e-14 0)
(3 -8.58129e-14 0)
(3 -1.18047e-13 0)
(3 -8.01707e-14 0)
(3 -4.27849e-14 0)
(3 2.92125e-14 0)
(3 9.70759e-14 0)
(3 1.13529e-13 0)
(3 8.24918e-14 0)
(3 5.77645e-14 0)
(3 4.88347e-15 0)
(3 -1.16669e-13 0)
(3 -1.9729e-13 0)
(3 -2.29461e-13 0)
(3 -1.79402e-13 0)
(3 -1.37925e-13 0)
(3 -1.20094e-13 0)
(3 -9.49108e-14 0)
(3 -3.41333e-14 0)
(3 -2.05603e-14 0)
(3 -6.93508e-08 0)
(1.44349 0.317757 0)
(0.798056 0.285255 0)
(0.745886 0.293166 0)
(0.726105 0.307551 0)
(0.706563 0.31962 0)
(0.6905 0.332747 0)
(0.674573 0.345253 0)
(0.658315 0.356779 0)
(0.639153 0.365888 0)
(0.614803 0.373749 0)
(0.585652 0.383969 0)
(0.553311 0.397075 0)
(0.518316 0.410417 0)
(0.480551 0.420724 0)
(0.441446 0.431793 0)
(0.401664 0.445623 0)
(0.362716 0.465688 0)
(0.319883 0.484903 0)
(0.277169 0.511088 0)
(0.226825 0.531772 0)
(0.176847 0.571076 0)
(0.107004 0.588338 0)
(0.0708072 0.601461 0)
(3 -1.88003e-14 0)
(3 -4.05231e-15 0)
(3 -1.2114e-14 0)
(3 -2.27128e-14 0)
(3 -1.93241e-14 0)
(3 -5.59446e-14 0)
(3 -3.38696e-14 0)
(3 -6.75821e-15 0)
(3 -5.64879e-15 0)
(3 -3.02985e-14 0)
(3 -4.43015e-14 0)
(3 -1.87888e-14 0)
(3 1.02667e-14 0)
(3 2.36332e-14 0)
(3 -4.25746e-14 0)
(3 -7.77459e-14 0)
(3 -9.4507e-14 0)
(3 -1.43899e-13 0)
(3 -9.99671e-14 0)
(3 -7.97539e-14 0)
(3 -7.52057e-14 0)
(3 -9.2257e-14 0)
(3 1.84853e-14 0)
(3 5.02234e-14 0)
(3 -7.50359e-08 0)
(1.74471 0.352878 0)
(0.824368 0.338178 0)
(0.736141 0.323406 0)
(0.711048 0.327224 0)
(0.692535 0.334321 0)
(0.677707 0.343832 0)
(0.664005 0.355194 0)
(0.650838 0.368416 0)
(0.636927 0.382975 0)
(0.620304 0.397394 0)
(0.599929 0.412554 0)
(0.575591 0.429617 0)
(0.546904 0.446961 0)
(0.513281 0.461026 0)
(0.475795 0.474707 0)
(0.436369 0.489723 0)
(0.397307 0.512008 0)
(0.354141 0.53434 0)
(0.310991 0.565839 0)
(0.2566 0.596116 0)
(0.201072 0.649914 0)
(0.120528 0.679787 0)
(0.0735999 0.698887 0)
(3 7.80213e-15 0)
(3 8.22417e-15 0)
(3 3.57801e-15 0)
(3 -4.9021e-14 0)
(3 -7.59931e-14 0)
(3 -4.57611e-14 0)
(3 1.00933e-14 0)
(3 5.36912e-14 0)
(3 4.95742e-14 0)
(3 5.22042e-14 0)
(3 2.03776e-14 0)
(3 -3.90282e-15 0)
(3 1.22205e-14 0)
(3 -4.79337e-14 0)
(3 -5.9226e-14 0)
(3 -6.25457e-14 0)
(3 -6.95437e-14 0)
(3 -5.22766e-14 0)
(3 -2.83907e-14 0)
(3 8.68807e-15 0)
(3 2.9289e-14 0)
(3 -4.82896e-15 0)
(3 1.42426e-14 0)
(3 1.67675e-14 0)
(3 -1.74813e-08 0)
(2.16838 0.371282 0)
(0.880665 0.40801 0)
(0.760248 0.362046 0)
(0.729028 0.355305 0)
(0.70229 0.355463 0)
(0.681675 0.361868 0)
(0.66481 0.371799 0)
(0.649739 0.383733 0)
(0.635575 0.397831 0)
(0.621216 0.414114 0)
(0.605904 0.433095 0)
(0.589125 0.454692 0)
(0.569029 0.477313 0)
(0.542893 0.496962 0)
(0.511244 0.515745 0)
(0.475139 0.533618 0)
(0.437947 0.55896 0)
(0.395676 0.585874 0)
(0.353771 0.625795 0)
(0.302043 0.667612 0)
(0.254734 0.734105 0)
(0.172073 0.781511 0)
(0.114599 0.813319 0)
(3 4.54856e-15 0)
(3 1.82879e-14 0)
(3 -4.68582e-15 0)
(3 -1.11894e-14 0)
(3 -2.19522e-14 0)
(3 -2.75185e-14 0)
(3 -2.51445e-14 0)
(3 3.55715e-15 0)
(3 2.23253e-14 0)
(3 5.61526e-14 0)
(3 7.96458e-14 0)
(3 5.59998e-14 0)
(3 6.58195e-14 0)
(3 3.37542e-14 0)
(3 3.19028e-14 0)
(3 -3.65346e-14 0)
(3 -3.24418e-14 0)
(3 -2.25339e-14 0)
(3 -7.28841e-15 0)
(3 1.38234e-14 0)
(3 -5.51354e-15 0)
(3 2.19523e-14 0)
(3 6.26395e-14 0)
(3 6.29386e-14 0)
(3 -1.83831e-09 0)
(2.74767 0.270359 0)
(1.01035 0.45436 0)
(0.833299 0.385399 0)
(0.798116 0.370935 0)
(0.754214 0.376697 0)
(0.716897 0.381949 0)
(0.687703 0.390752 0)
(0.664127 0.402258 0)
(0.644605 0.41602 0)
(0.627667 0.431834 0)
(0.612991 0.451205 0)
(0.598727 0.474499 0)
(0.585363 0.501312 0)
(0.566424 0.52744 0)
(0.543575 0.55313 0)
(0.513575 0.576446 0)
(0.481888 0.606703 0)
(0.44425 0.638354 0)
(0.410547 0.684398 0)
(0.364172 0.733509 0)
(0.320263 0.827174 0)
(0.211154 0.938369 0)
(0.163621 1.03237 0)
(3 2.75992e-15 0)
(3 9.85447e-15 0)
(3 4.28304e-16 0)
(3 -3.04736e-15 0)
(3 9.18321e-15 0)
(3 3.41607e-15 0)
(3 1.35855e-14 0)
(3 3.21336e-14 0)
(3 5.04467e-14 0)
(3 1.10102e-14 0)
(3 1.72646e-14 0)
(3 3.81485e-14 0)
(3 4.90468e-14 0)
(3 9.71513e-14 0)
(3 6.76129e-14 0)
(3 1.394e-14 0)
(3 1.77517e-15 0)
(3 2.77609e-14 0)
(3 6.43708e-14 0)
(3 7.89456e-14 0)
(3 3.65072e-14 0)
(3 5.32636e-14 0)
(3 6.60714e-14 0)
(3 1.04384e-14 0)
(3 -7.06823e-11 0)
(3.06644 0.0293235 0)
(1.21443 0.424369 0)
(0.884245 0.409905 0)
(0.853288 0.418542 0)
(0.813673 0.418529 0)
(0.769247 0.418098 0)
(0.72927 0.420901 0)
(0.695197 0.427011 0)
(0.66769 0.437268 0)
(0.64526 0.45074 0)
(0.627947 0.469025 0)
(0.613327 0.49194 0)
(0.601997 0.520261 0)
(0.589191 0.550938 0)
(0.574803 0.58293 0)
(0.552899 0.613197 0)
(0.530299 0.649662 0)
(0.499759 0.685571 0)
(0.475758 0.738718 0)
(0.436382 0.809006 0)
(0.415903 0.938627 0)
(0.400763 1.08916 0)
(0.543996 1.34266 0)
(3 9.93011e-15 0)
(3 1.53365e-14 0)
(3 1.94706e-14 0)
(3 9.88593e-16 0)
(3 -1.12942e-14 0)
(3 2.40147e-14 0)
(3 4.92785e-14 0)
(3 3.931e-14 0)
(3 2.93404e-14 0)
(3 2.75935e-14 0)
(3 2.71816e-14 0)
(3 4.3091e-14 0)
(3 5.36403e-14 0)
(3 6.26324e-14 0)
(3 3.35994e-14 0)
(3 -6.95259e-15 0)
(3 -7.21861e-14 0)
(3 -6.79777e-14 0)
(3 8.31301e-15 0)
(3 5.44992e-14 0)
(3 8.22419e-14 0)
(3 9.81757e-14 0)
(3 7.34363e-14 0)
(3 -2.38005e-14 0)
(3 -1.26456e-12 0)
(3.00531 3.87059e-05 0)
(1.38161 0.405465 0)
(0.868637 0.445642 0)
(0.843568 0.455587 0)
(0.818097 0.456953 0)
(0.791439 0.456926 0)
(0.761247 0.458776 0)
(0.72876 0.4613 0)
(0.697905 0.46735 0)
(0.670825 0.475894 0)
(0.64951 0.490503 0)
(0.632898 0.510931 0)
(0.621345 0.538341 0)
(0.611494 0.570999 0)
(0.60389 0.607597 0)
(0.590312 0.644576 0)
(0.579041 0.687381 0)
(0.558938 0.729702 0)
(0.547149 0.7897 0)
(0.534195 0.873991 0)
(0.545281 1.00655 0)
(0.630753 1.15623 0)
(0.933694 1.34817 0)
(3 -4.08739e-15 0)
(3 -1.14554e-14 0)
(3 2.15034e-14 0)
(3 3.06364e-14 0)
(3 1.42908e-14 0)
(3 4.46914e-14 0)
(3 3.42087e-14 0)
(3 2.01399e-14 0)
(3 -1.41504e-14 0)
(3 1.86338e-14 0)
(3 -1.10934e-14 0)
(3 -1.33035e-14 0)
(3 -6.29525e-15 0)
(3 -9.80575e-15 0)
(3 -1.12639e-14 0)
(3 -8.00324e-14 0)
(3 -5.24532e-14 0)
(3 -6.5703e-14 0)
(3 -3.89256e-14 0)
(3 -4.5523e-14 0)
(3 -1.24593e-14 0)
(3 5.17885e-14 0)
(3 2.19167e-14 0)
(3 9.94907e-15 0)
(3 -1.16899e-14 0)
(3.00003 -1.19378e-06 0)
(1.71721 0.430147 0)
(0.863397 0.459391 0)
(0.819931 0.462346 0)
(0.813839 0.471438 0)
(0.80072 0.479094 0)
(0.782922 0.486235 0)
(0.759132 0.491535 0)
(0.732368 0.497411 0)
(0.705127 0.50342 0)
(0.680807 0.514096 0)
(0.661223 0.530844 0)
(0.647422 0.555669 0)
(0.63802 0.587395 0)
(0.634621 0.625768 0)
(0.628026 0.667493 0)
(0.627736 0.715132 0)
(0.621466 0.764453 0)
(0.624099 0.827939 0)
(0.63641 0.914341 0)
(0.682192 1.02931 0)
(0.829728 1.1627 0)
(1.15482 1.27805 0)
(3 -4.21802e-15 0)
(3 -6.56152e-15 0)
(3 4.38314e-15 0)
(3 6.16154e-15 0)
(3 1.6256e-14 0)
(3 3.76601e-14 0)
(3 4.11497e-14 0)
(3 2.03471e-14 0)
(3 -2.84761e-14 0)
(3 -5.97585e-15 0)
(3 -3.19545e-14 0)
(3 -4.04657e-14 0)
(3 -3.64494e-14 0)
(3 -2.97494e-14 0)
(3 -4.17986e-14 0)
(3 -2.17975e-14 0)
(3 1.22263e-14 0)
(3 1.84868e-14 0)
(3 -5.45079e-15 0)
(3 2.8551e-14 0)
(3 4.9805e-14 0)
(3 1.40736e-14 0)
(3 -8.81698e-14 0)
(3 -8.32292e-14 0)
(3 -1.61701e-14 0)
(3 -1.45674e-06 0)
(2.29928 0.426456 0)
(0.942283 0.520749 0)
(0.841697 0.470476 0)
(0.832693 0.479114 0)
(0.82127 0.492934 0)
(0.805908 0.505895 0)
(0.787083 0.516798 0)
(0.765153 0.526912 0)
(0.741334 0.53469 0)
(0.717348 0.543994 0)
(0.69568 0.556831 0)
(0.679708 0.577789 0)
(0.668841 0.606109 0)
(0.667406 0.642945 0)
(0.66613 0.685872 0)
(0.674631 0.735816 0)
(0.682136 0.790394 0)
(0.701615 0.854173 0)
(0.732984 0.935907 0)
(0.80968 1.0363 0)
(0.976152 1.13893 0)
(1.26006 1.2061 0)
(3 7.95203e-16 0)
(3 -1.87123e-14 0)
(3 -9.24513e-15 0)
(3 2.13429e-14 0)
(3 -3.89058e-15 0)
(3 -2.86323e-16 0)
(3 1.46262e-14 0)
(3 6.6763e-15 0)
(3 -1.64065e-14 0)
(3 1.14578e-14 0)
(3 3.09962e-14 0)
(3 -3.18563e-14 0)
(3 -3.49369e-14 0)
(3 -4.83894e-14 0)
(3 1.35723e-14 0)
(3 9.92854e-14 0)
(3 7.68479e-14 0)
(3 3.16332e-14 0)
(3 3.95172e-14 0)
(3 7.06122e-14 0)
(3 1.01162e-13 0)
(3 -3.51054e-14 0)
(3 -6.32344e-14 0)
(3 -1.00497e-13 0)
(3 -1.96681e-14 0)
(3 -3.02548e-07 0)
(2.97772 0.160676 0)
(1.14643 0.529145 0)
(0.909243 0.481409 0)
(0.882841 0.495116 0)
(0.856776 0.51014 0)
(0.835324 0.523142 0)
(0.817528 0.535489 0)
(0.799676 0.548149 0)
(0.780365 0.559101 0)
(0.759435 0.570465 0)
(0.738073 0.581735 0)
(0.720921 0.599784 0)
(0.707512 0.623716 0)
(0.705274 0.65722 0)
(0.706781 0.698172 0)
(0.72047 0.746982 0)
(0.738196 0.803044 0)
(0.77203 0.865642 0)
(0.819627 0.941065 0)
(0.914552 1.02566 0)
(1.07736 1.09949 0)
(1.3077 1.143 0)
(3 1.37551e-14 0)
(3 -1.29676e-14 0)
(3 6.43911e-15 0)
(3 3.65472e-14 0)
(3 3.83652e-14 0)
(3 2.46955e-14 0)
(3 -2.45887e-14 0)
(3 -3.71742e-14 0)
(3 -1.66268e-14 0)
(3 -2.98937e-14 0)
(3 1.48701e-14 0)
(3 -1.44724e-15 0)
(3 2.70928e-14 0)
(3 3.55659e-14 0)
(3 8.57879e-14 0)
(3 1.64654e-13 0)
(3 1.74168e-13 0)
(3 1.32144e-13 0)
(3 9.64441e-14 0)
(3 4.93857e-14 0)
(3 -7.17751e-14 0)
(3 -5.88174e-14 0)
(3 -4.20616e-15 0)
(3 2.89505e-14 0)
(3 5.00244e-14 0)
(3 -2.98767e-08 0)
(3.03823 0.00621647 0)
(1.34789 0.490432 0)
(0.926898 0.535124 0)
(0.897619 0.540599 0)
(0.867943 0.541374 0)
(0.845828 0.547319 0)
(0.830444 0.558039 0)
(0.81806 0.57182 0)
(0.805704 0.585399 0)
(0.792128 0.599709 0)
(0.776216 0.611628 0)
(0.762257 0.62842 0)
(0.749663 0.64761 0)
(0.746622 0.676304 0)
(0.750122 0.7127 0)
(0.766673 0.756798 0)
(0.790794 0.809245 0)
(0.833525 0.867238 0)
(0.893384 0.93612 0)
(0.996503 1.00626 0)
(1.14701 1.05965 0)
(1.33381 1.08737 0)
(3 -3.64522e-15 0)
(3 2.55603e-15 0)
(3 -4.2329e-15 0)
(3 2.11268e-14 0)
(3 4.85007e-14 0)
(3 2.70942e-14 0)
(3 -3.19576e-15 0)
(3 -2.79276e-14 0)
(3 -1.08686e-14 0)
(3 -1.97985e-14 0)
(3 -1.51523e-14 0)
(3 6.93006e-14 0)
(3 7.23111e-14 0)
(3 4.78794e-14 0)
(3 4.40093e-14 0)
(3 4.52123e-14 0)
(3 1.08342e-13 0)
(3 1.01651e-13 0)
(3 1.5902e-13 0)
(3 1.28301e-13 0)
(3 1.74771e-14 0)
(3 -2.05217e-14 0)
(3 -1.11795e-14 0)
(3 4.75376e-14 0)
(3 1.28686e-13 0)
(3 -9.71739e-10 0)
(3.00086 -1.18819e-05 0)
(1.69971 0.502996 0)
(0.910913 0.562926 0)
(0.884457 0.556287 0)
(0.87423 0.561518 0)
(0.8607 0.566199 0)
(0.848299 0.573667 0)
(0.838723 0.58613 0)
(0.83047 0.600687 0)
(0.823206 0.617634 0)
(0.813447 0.632383 0)
(0.804915 0.65057 0)
(0.795855 0.667917 0)
(0.792969 0.692551 0)
(0.797079 0.724045 0)
(0.814038 0.762731 0)
(0.840805 0.809405 0)
(0.886744 0.86061 0)
(0.952291 0.921075 0)
(1.056 0.980349 0)
(1.19307 1.02161 0)
(1.3513 1.04189 0)
(3 -1.16207e-14 0)
(3 -2.40305e-14 0)
(3 -4.40094e-14 0)
(3 -2.42981e-15 0)
(3 -7.15976e-15 0)
(3 -3.31888e-14 0)
(3 -3.04336e-14 0)
(3 2.07268e-14 0)
(3 2.41478e-14 0)
(3 5.16567e-14 0)
(3 4.99656e-14 0)
(3 3.20105e-14 0)
(3 2.02147e-14 0)
(3 1.57552e-14 0)
(3 -1.50828e-14 0)
(3 -3.60575e-14 0)
(3 3.76737e-14 0)
(3 4.53085e-14 0)
(3 5.8447e-14 0)
(3 8.06039e-14 0)
(3 4.4268e-14 0)
(3 7.41293e-15 0)
(3 -5.173e-15 0)
(3 2.76651e-14 0)
(3 1.06367e-13 0)
(3 -4.86228e-12 0)
(3.00002 -6.2275e-06 0)
(2.4238 0.448643 0)
(1.006 0.606615 0)
(0.910038 0.553806 0)
(0.903005 0.565656 0)
(0.888658 0.579596 0)
(0.873406 0.589381 0)
(0.862289 0.601708 0)
(0.853824 0.616282 0)
(0.849774 0.63438 0)
(0.844773 0.651828 0)
(0.842353 0.671928 0)
(0.839012 0.690414 0)
(0.839404 0.712775 0)
(0.84515 0.739648 0)
(0.862313 0.772575 0)
(0.890417 0.811931 0)
(0.936538 0.854122 0)
(1.00171 0.902738 0)
(1.09864 0.951991 0)
(1.22245 0.985997 0)
(1.35908 1.00178 0)
(3 -1.8166e-15 0)
(3 -2.31429e-14 0)
(3 -1.90708e-14 0)
(3 -3.44067e-14 0)
(3 -6.36522e-14 0)
(3 -7.48789e-14 0)
(3 -8.42236e-14 0)
(3 -7.72908e-14 0)
(3 -2.20659e-14 0)
(3 5.40033e-14 0)
(3 8.04817e-14 0)
(3 5.56446e-14 0)
(3 8.08896e-14 0)
(3 1.08702e-13 0)
(3 7.42324e-14 0)
(3 7.55867e-14 0)
(3 7.57091e-14 0)
(3 1.26213e-13 0)
(3 2.4578e-14 0)
(3 1.26187e-14 0)
(3 3.63522e-14 0)
(3 6.2639e-14 0)
(3 2.1798e-14 0)
(3 5.33635e-15 0)
(3 -2.89042e-14 0)
(3 -4.95992e-14 0)
(3 -1.60627e-06 0)
(3.08747 0.0825068 0)
(1.28121 0.587801 0)
(0.967645 0.57093 0)
(0.945821 0.591725 0)
(0.925822 0.602324 0)
(0.905812 0.608066 0)
(0.891237 0.617829 0)
(0.880412 0.62991 0)
(0.87645 0.647018 0)
(0.873941 0.665241 0)
(0.875952 0.686074 0)
(0.87843 0.706192 0)
(0.883919 0.728054 0)
(0.893019 0.751496 0)
(0.910318 0.779822 0)
(0.938909 0.812921 0)
(0.983938 0.847855 0)
(1.0459 0.885771 0)
(1.13253 0.925248 0)
(1.24307 0.953585 0)
(1.36193 0.966485 0)
(3 1.78336e-15 0)
(3 2.98763e-14 0)
(3 3.04838e-14 0)
(3 2.17844e-15 0)
(3 -3.47705e-14 0)
(3 -3.69806e-14 0)
(3 -4.36159e-14 0)
(3 -8.33733e-14 0)
(3 -7.59728e-14 0)
(3 -6.37919e-14 0)
(3 -4.56315e-14 0)
(3 4.58776e-14 0)
(3 8.48012e-14 0)
(3 8.58674e-14 0)
(3 1.14769e-13 0)
(3 7.09858e-14 0)
(3 3.76815e-14 0)
(3 3.95633e-14 0)
(3 3.88314e-14 0)
(3 2.11481e-14 0)
(3 5.07898e-14 0)
(3 3.20949e-14 0)
(3 -3.42732e-14 0)
(3 -1.18684e-14 0)
(3 -5.15709e-15 0)
(3 -1.41597e-14 0)
(3 -1.58684e-07 0)
(3.01672 0.000452381 0)
(1.53479 0.568717 0)
(0.96508 0.636545 0)
(0.943621 0.62347 0)
(0.933478 0.628556 0)
(0.923723 0.633615 0)
(0.914274 0.640347 0)
(0.905191 0.648049 0)
(0.901573 0.661949 0)
(0.900965 0.678596 0)
(0.905306 0.698472 0)
(0.912356 0.719443 0)
(0.922558 0.741491 0)
(0.936967 0.764376 0)
(0.956072 0.789105 0)
(0.985982 0.816777 0)
(1.02955 0.844973 0)
(1.08659 0.873422 0)
(1.1627 0.902323 0)
(1.25825 0.924459 0)
(1.36075 0.933375 0)
(3 6.43711e-15 0)
(3 3.94128e-14 0)
(3 3.61739e-14 0)
(3 2.73222e-14 0)
(3 6.58798e-14 0)
(3 5.39308e-14 0)
(3 1.27723e-14 0)
(3 -1.69139e-14 0)
(3 -6.03124e-14 0)
(3 -3.89301e-14 0)
(3 -1.09915e-14 0)
(3 -6.69134e-15 0)
(3 -1.00437e-14 0)
(3 -1.16531e-14 0)
(3 -2.53675e-14 0)
(3 -5.57732e-14 0)
(3 -4.89878e-14 0)
(3 4.00314e-14 0)
(3 1.43026e-13 0)
(3 1.5079e-13 0)
(3 1.55461e-13 0)
(3 1.31026e-13 0)
(3 5.34236e-14 0)
(3 7.78615e-14 0)
(3 5.06061e-14 0)
(3 4.53667e-14 0)
(3 -5.28404e-09 0)
(3.00016 -5.04084e-06 0)
(2.22458 0.536945 0)
(1.03058 0.672117 0)
(0.963898 0.624851 0)
(0.960213 0.632398 0)
(0.952354 0.644292 0)
(0.943511 0.654982 0)
(0.93497 0.662662 0)
(0.930402 0.674626 0)
(0.929901 0.689582 0)
(0.934174 0.707691 0)
(0.943408 0.727741 0)
(0.956141 0.749148 0)
(0.974563 0.771628 0)
(0.997257 0.794891 0)
(1.02932 0.818882 0)
(1.07187 0.84289 0)
(1.124 0.865242 0)
(1.19294 0.887462 0)
(1.27492 0.903262 0)
(1.36487 0.908575 0)
(3 3.27582e-15 0)
(3 6.51262e-15 0)
(3 3.42739e-15 0)
(3 2.30271e-14 0)
(3 4.72115e-14 0)
(3 3.72406e-14 0)
(3 3.38271e-15 0)
(3 -1.52743e-14 0)
(3 -5.60423e-14 0)
(3 -5.96918e-14 0)
(3 -3.10584e-14 0)
(3 -5.7438e-14 0)
(3 -8.42757e-14 0)
(3 -1.15977e-13 0)
(3 -1.54039e-13 0)
(3 -1.53766e-13 0)
(3 -8.82065e-14 0)
(3 -2.79296e-14 0)
(3 -5.24318e-14 0)
(3 -3.98852e-15 0)
(3 4.85063e-14 0)
(3 6.6267e-14 0)
(3 8.3195e-14 0)
(3 7.6328e-14 0)
(3 3.28058e-14 0)
(3 8.66198e-14 0)
(3 -1.389e-11 0)
(3.00002 -7.30574e-06 0)
(3.06362 0.129588 0)
(1.28972 0.645391 0)
(1.01991 0.633083 0)
(1.00568 0.652545 0)
(0.990885 0.662749 0)
(0.978 0.671793 0)
(0.968588 0.679127 0)
(0.96233 0.689476 0)
(0.960669 0.702586 0)
(0.963534 0.718324 0)
(0.97294 0.736632 0)
(0.98675 0.756202 0)
(1.00669 0.776934 0)
(1.03258 0.798891 0)
(1.06697 0.820484 0)
(1.10922 0.841085 0)
(1.15797 0.85883 0)
(1.22088 0.874805 0)
(1.29135 0.884838 0)
(1.37154 0.887232 0)
(3 6.8446e-15 0)
(3 3.06612e-14 0)
(3 1.82723e-14 0)
(3 2.49398e-14 0)
(3 -3.58948e-14 0)
(3 -4.96453e-14 0)
(3 1.10882e-14 0)
(3 1.7809e-14 0)
(3 2.6597e-14 0)
(3 -7.09959e-15 0)
(3 -7.88006e-14 0)
(3 -9.77047e-14 0)
(3 -1.39064e-13 0)
(3 -1.0755e-13 0)
(3 -4.6134e-14 0)
(3 -2.12719e-14 0)
(3 -5.11991e-14 0)
(3 -6.78583e-14 0)
(3 -4.02328e-14 0)
(3 1.66133e-14 0)
(3 2.63987e-14 0)
(3 3.19094e-14 0)
(3 6.02934e-14 0)
(3 6.42227e-14 0)
(3 5.06343e-14 0)
(3 1.80898e-13 0)
(3 5.89226e-14 0)
(3 -1.56187e-06 0)
(3.02533 0.0013341 0)
(1.55225 0.617338 0)
(1.02038 0.696133 0)
(1.00648 0.686407 0)
(0.996919 0.686909 0)
(0.994359 0.692984 0)
(0.992174 0.69979 0)
(0.990129 0.707296 0)
(0.990311 0.717317 0)
(0.993459 0.729204 0)
(1.00239 0.744289 0)
(1.01603 0.761644 0)
(1.03606 0.779715 0)
(1.06293 0.799455 0)
(1.09818 0.819647 0)
(1.14008 0.838463 0)
(1.188 0.854573 0)
(1.24653 0.86803 0)
(1.30971 0.875201 0)
(1.38181 0.876301 0)
(3 -1.55744e-14 0)
(3 -1.59555e-14 0)
(3 1.90144e-14 0)
(3 9.95244e-15 0)
(3 -3.27605e-15 0)
(3 -3.75279e-15 0)
(3 2.79208e-14 0)
(3 2.82727e-14 0)
(3 2.22894e-14 0)
(3 -4.1175e-14 0)
(3 -7.40081e-14 0)
(3 -1.19449e-13 0)
(3 -1.75919e-13 0)
(3 -1.53149e-13 0)
(3 -8.31143e-14 0)
(3 -7.50782e-14 0)
(3 -8.75711e-14 0)
(3 -2.84506e-14 0)
(3 5.15535e-14 0)
(3 3.3135e-14 0)
(3 -2.26953e-14 0)
(3 -1.34329e-14 0)
(3 -4.13066e-14 0)
(3 -1.01359e-13 0)
(3 1.12707e-14 0)
(3 4.92951e-14 0)
(3 4.97118e-14 0)
(3 -1.30509e-07 0)
(3.00032 -5.36886e-06 0)
(2.30943 0.53947 0)
(1.0932 0.729754 0)
(1.02465 0.686669 0)
(1.0186 0.691672 0)
(1.0171 0.700585 0)
(1.01693 0.709974 0)
(1.0171 0.719329 0)
(1.01905 0.729871 0)
(1.02319 0.740479 0)
(1.03202 0.753871 0)
(1.04508 0.768507 0)
(1.06478 0.783949 0)
(1.09109 0.80043 0)
(1.12484 0.817451 0)
(1.16448 0.832958 0)
(1.2113 0.846964 0)
(1.26565 0.858324 0)
(1.32505 0.863963 0)
(1.39126 0.865001 0)
(3 -1.07328e-14 0)
(3 -6.11324e-15 0)
(3 -2.2871e-15 0)
(3 -4.08478e-14 0)
(3 -3.41957e-14 0)
(3 -2.77153e-14 0)
(3 -2.36709e-14 0)
(3 -8.20764e-15 0)
(3 -3.41661e-14 0)
(3 -1.22485e-13 0)
(3 -1.66013e-13 0)
(3 -1.27061e-13 0)
(3 -1.8867e-14 0)
(3 -1.84322e-14 0)
(3 8.54023e-15 0)
(3 4.53375e-14 0)
(3 -1.0319e-14 0)
(3 -2.6167e-14 0)
(3 7.86095e-14 0)
(3 -2.32985e-14 0)
(3 -9.15432e-14 0)
(3 -1.71773e-13 0)
(3 -1.69988e-13 0)
(3 -1.78175e-13 0)
(3 -7.76399e-14 0)
(3 -6.17163e-14 0)
(3 -2.57855e-14 0)
(3 -6.81773e-10 0)