/*--------------------------------*- C++ -*----------------------------------*\
  =========                 |
  \\      /  F ield         | OpenFOAM: The Open Source CFD Toolbox
   \\    /   O peration     | Website:  https://openfoam.org
    \\  /    A nd           | Version:  10
     \\/     M anipulation  |
\*---------------------------------------------------------------------------*/
FoamFile
{
    format      ascii;
    class       volScalarField;
    location    "73";
    object      p;
}
// * * * * * * * * * * * * * * * * * * * * * * * * * * * * * * * * * * * * * //

dimensions      [0 2 -2 0 0 0 0];

internalField   nonuniform List<scalar> 
918
(
0.557101
1.18002
0.00056924
0.556558
-0.0094996
1.147
-0.512326
0.654185
0.537306
-0.107263
-0.0550414
0.539669
1.00772
0.772288
-1.12418
-0.0115817
0.651468
-0.382111
0.536426
-0.0622724
0.683605
0.543841
0.546865
0.537442
0.597141
0.746341
0.88858
0.0258986
0.013123
0.00606545
-0.0145025
-0.0360101
-0.0308663
1.03067
1.08173
1.10442
0.50503
0.333638
-0.377838
-0.451102
-0.437795
-0.543872
0.654105
0.654152
-0.215005
0.656705
0.657078
0.524317
0.536675
0.537587
0.538602
0.53759
0.538968
0.403135
-0.10808
-0.139427
-0.0878473
-0.0813297
0.0508889
-0.055651
-0.0579772
-0.0536229
-0.0525579
0.454116
0.533978
0.530436
0.543982
0.553172
1.11957
1.09152
1.11764
1.03125
1.04776
0.985736
0.958318
0.794002
0.815777
0.756302
0.743669
-1.55464
-2.50388
-0.535522
-0.285607
-0.0153455
-0.00987622
-0.00440261
0.648819
0.650007
0.650932
0.652753
1.07886
-0.379563
-0.480564
0.536569
0.535381
0.543693
0.544395
0.540415
0.539505
-0.0532592
-0.0500724
-0.0527226
-0.0577787
-0.0560256
0.666743
0.66896
0.53797
0.534971
0.560759
0.581214
0.571337
0.277097
0.608164
0.62415
0.579161
0.740128
0.733276
0.742634
0.862235
0.825062
0.925743
0.9491
0.0183564
-0.00165569
-0.0163428
-0.0196732
-0.0186116
0.500856
0.493389
0.521041
0.508471
0.510983
0.250528
0.117366
0.418523
0.443302
-0.297281
-0.364581
-0.430242
-0.460814
-0.568852
0.612918
0.654386
0.65325
-0.224577
-0.152859
-0.286685
-0.0797575
-0.142918
0.514567
0.521592
0.516584
0.532154
0.526617
0.528582
0.540949
0.538018
0.539578
0.46522
0.588702
0.329403
0.293883
-0.243223
-0.154835
-0.242613
-0.0711969
-0.0689317
0.0650086
0.0907197
0.0375525
0.0256519
-0.0650477
-0.0596476
-0.0620785
-0.0512872
-0.050619
0.446842
0.435583
0.466819
0.474389
0.520299
0.521809
0.52633
0.524308
0.909242
0.931633
0.939048
0.912823
-3.49116
-6.26873
0.0382905
0.174384
-0.00669503
-0.0109966
0.00440962
-0.0106411
-0.0034505
-0.00456022
-0.00973092
-0.0108813
-0.00555875
-0.00445345
0.643344
0.644282
1.00124
1.00846
0.976617
0.929548
0.5248
0.526866
0.532358
0.528242
-0.0497465
-0.0494194
-0.0492152
0.659572
0.664251
0.662087
0.23845
0.148388
0.328343
0.357599
0.636752
0.625748
0.63511
0.639658
0.674473
0.956512
0.974607
0.972948
0.981168
1.02523
1.04166
1.00694
0.480242
0.490257
0.485185
0.523998
0.521829
0.522699
0.51915
0.520076
0.518328
-0.0328663
-0.412191
0.490727
0.507354
0.492937
0.495106
0.692993
0.771546
0.65218
0.653227
0.653039
-0.0102039
-0.0687134
0.248977
0.214721
0.386186
0.422721
0.401627
0.880391
0.840727
0.890794
0.864319
0.825652
0.851884
-0.36377
-1.86074
-0.981238
0.522332
0.337769
0.424459
0.00748412
-0.00918733
-0.00464352
1.0012
1.07327
0.644497
0.81945
0.821957
0.711677
0.742263
0.798136
0.722319
0.758106
0.794032
0.775536
0.568818
0.503886
0.520067
0.840489
0.896085
0.117917
0.0557598
0.0120153
0.109825
0.167433
0.141345
1.03321
0.949663
1.01971
0.534733
0.535457
-0.00497684
-0.0176925
0.539711
0.539768
-0.0171001
-0.00442523
0.407592
-0.83192
0.0962354
0.528304
0.518171
0.535323
-0.0932009
0.35462
-0.0554618
0.0465573
-0.00994249
0.52977
0.465252
0.424265
-0.00131861
-0.0209623
-0.0527286
-0.213556
0.532403
0.530707
0.534791
0.535729
0.536412
-0.019441
-0.0149194
-0.0104667
-0.0494614
-0.041693
-0.054648
0.499192
0.518654
-0.171515
0.534938
0.537075
0.536892
0.530162
0.535789
0.534044
-0.0122494
-0.0178204
-0.0191541
0.218359
0.351161
0.64606
0.731776
0.618724
0.395155
0.16086
0.55006
0.612936
0.51918
0.672054
0.650063
0.653045
0.161733
0.01129
0.170739
0.112591
0.526169
0.524901
0.516422
0.513378
0.530191
0.528307
0.532863
0.529891
0.532841
0.53422
-0.0497693
-0.0756652
-0.0852776
-0.151869
0.309394
0.570422
0.254056
0.283336
0.140797
-0.0493621
-0.0512889
-0.0528473
-0.0602568
5.70311e-05
-0.0258477
0.0412357
0.0413828
0.013327
-0.0123054
-0.0102763
-0.0213357
-0.0155164
0.523041
0.523017
0.527446
0.536168
0.474932
0.478721
0.44348
0.464288
0.449499
0.388066
0.423522
0.398678
-0.00919256
0.000290035
-0.00613908
-0.0189505
-0.0149635
-0.0349766
-0.031678
-0.027153
-0.0228621
-0.0298159
-0.0471875
-0.0501057
-0.17159
-0.287463
0.987816
0.908233
0.1372
0.521545
0.528007
0.524765
0.529702
0.532831
0.533625
0.531329
0.527875
0.518888
0.520365
0.517108
0.518169
-0.102631
-0.244428
-0.0727621
-0.147814
0.14565
0.627873
0.363051
0.298113
0.293546
0.522809
0.915048
0.697578
0.665198
0.661351
-0.344499
0.0437125
-0.281225
0.333365
0.160859
0.646811
0.695463
0.716457
0.664786
0.618089
-0.10008
0.555719
-0.075744
-0.0231347
0.178855
0.0538359
0.655775
0.638436
0.645863
0.646752
0.658712
0.640695
0.622603
0.622945
0.642073
0.647222
0.481466
0.248997
0.19943
0.16097
0.642718
0.514764
0.563615
0.488655
0.52151
0.524017
0.522673
0.504033
0.511633
0.507145
0.513707
0.517371
0.525913
0.526398
0.521644
0.523773
-0.056327
-0.0624562
-0.0255534
-0.135878
-0.128502
-0.190762
-0.0595416
0.0739642
0.0357092
0.236725
0.34014
0.0513337
-0.0573512
-0.0301047
0.0121054
0.179262
0.208022
0.0734569
0.16093
0.15244
0.133368
0.236295
0.239583
-0.031131
-0.0324067
-0.037311
-0.0399724
0.0177192
0.0891515
0.0984278
-0.00912335
-0.0144025
-0.0474283
-0.0476478
-0.0234255
-0.0285554
-0.0236464
0.00384413
-0.0536534
-0.0214238
-0.00761126
-0.00684871
-0.00712611
-0.0125477
0.517912
0.51955
0.519844
0.528029
0.540192
0.554815
0.521219
0.497195
0.487963
0.490975
0.463909
0.47418
0.470044
0.483592
0.504789
0.513436
0.511726
0.514548
0.496846
0.498636
0.485103
0.488732
0.463929
0.444467
0.432468
-0.0437846
-0.0060253
-0.0136185
-0.0395687
-0.0107933
-0.0223923
-0.0120182
0.00662331
-0.00990686
-0.010726
-0.0205283
-0.0275389
-0.0272425
-0.0735143
0.0132973
-0.185306
-0.220476
-0.293862
0.89004
1.01426
0.809074
0.581899
0.602461
0.846033
0.930229
0.542197
0.734569
0.75772
0.587659
0.854685
0.526398
0.525991
0.523591
0.52307
0.524291
-0.0072788
0.0994108
0.0967394
0.160781
0.277413
0.388888
0.320477
0.194917
0.324788
0.327224
0.620905
0.632991
0.588494
0.612456
0.61316
0.424735
0.50035
0.552086
0.513296
0.565397
0.587156
0.540982
0.574083
0.52328
0.478702
0.474883
0.424394
0.444032
0.419527
0.402651
0.516234
0.493331
0.504125
0.494469
0.515849
0.543246
0.540296
0.562241
0.57743
0.497751
0.452641
0.462048
0.492232
0.45371
0.469301
0.485223
0.233523
0.135879
0.21864
-0.0661151
0.00385296
-0.00846496
-0.0572732
-0.00549138
0.278641
-0.411848
-0.388781
-1.0152
0.504674
0.952986
0.58503
0.562012
0.660155
0.647179
0.653587
0.670486
0.666741
0.631268
0.640019
0.644733
0.592933
0.613758
0.632706
0.628539
0.524114
0.380515
0.3804
0.327581
0.197774
0.237919
0.433498
0.357883
0.283096
0.283173
0.455897
0.342261
0.412611
0.445495
0.37671
0.331456
0.534349
0.600693
0.593804
0.567476
0.477323
0.489242
0.513797
0.547218
0.570662
0.603796
0.51314
0.519093
0.520325
0.517792
0.515055
0.518165
0.518456
0.521051
0.521619
0.524652
0.523731
-0.0532497
-0.0391389
-0.0509847
-0.0629328
-0.018632
-0.021277
0.0224453
0.0104955
-0.0164283
-0.0122548
-0.0337448
-0.037721
-0.0344616
-0.0267158
0.102519
0.115221
0.100185
0.0598877
0.249883
0.379982
0.454217
0.329086
0.223286
0.247879
0.266419
-0.0132879
0.0125109
-0.000121968
0.039291
0.0312298
-0.040553
-0.0445416
-0.0407379
-0.032355
-0.024347
-0.0406568
-0.0461248
-0.0369187
-0.0417081
-0.0445502
-0.0485376
0.499471
0.492948
0.494519
0.488458
0.487188
0.501437
0.505761
0.507712
0.513157
0.515529
0.505566
0.51096
0.514952
-0.013363
-0.0365423
-0.0398648
-0.0315323
-0.0332108
-0.0305482
-0.0321153
0.123496
0.0544741
0.0581979
0.0109733
-0.1216
-0.0635552
0.492263
0.491109
0.480275
0.721279
0.570482
0.491519
0.588705
0.694321
0.276348
0.472801
0.308102
0.888202
0.785046
0.931293
0.542045
0.246263
0.411154
0.452995
0.26706
0.343253
0.323795
0.212985
0.243615
0.282384
0.381057
0.266424
0.243465
-0.000165618
0.190827
0.302337
0.28424
0.408456
0.468964
0.267625
0.187275
0.142167
0.605089
0.624879
0.63818
0.610332
0.632679
0.581315
0.57346
0.588713
0.596733
0.590805
-0.743589
-0.449935
-1.39703
-0.720804
-0.264873
0.535239
0.508185
0.769475
0.644804
0.677662
0.662119
0.621763
0.591913
0.617265
0.638991
0.33866
0.449133
0.424303
0.430287
0.333192
0.263222
0.561651
0.55916
0.592157
0.615993
0.58779
0.618114
0.510945
0.510669
0.510136
0.506372
0.504628
0.506981
0.0580454
0.0255234
0.0667569
0.0489682
0.0266462
0.0149043
-0.0128641
-0.022972
-0.0295971
-0.0289475
-0.0144689
-0.010481
0.172449
0.109497
0.0299266
0.0586933
-0.00217832
-0.0706394
-0.0899633
0.0158519
0.112033
0.102225
0.405327
0.654468
0.474552
0.641993
0.484825
0.540469
0.468616
0.459792
0.484656
0.380245
0.46067
0.252314
-0.256116
-0.165444
0.795161
0.805478
0.581091
0.40702
0.174446
0.350847
0.540081
0.469391
0.504794
0.573914
0.560741
0.0313463
0.0882431
0.377442
0.604256
0.241974
0.232868
0.226265
0.411373
0.329132
)
;

boundaryField
{
    wall-4
    {
        type            zeroGradient;
    }
    velocity-inlet-5
    {
        type            zeroGradient;
    }
    velocity-inlet-6
    {
        type            zeroGradient;
    }
    pressure-outlet-7
    {
        type            fixedValue;
        value           uniform 0;
    }
    wall-8
    {
        type            zeroGradient;
    }
    frontAndBackPlanes
    {
        type            empty;
    }
}


// ************************************************************************* //
