/*--------------------------------*- C++ -*----------------------------------*\
  =========                 |
  \\      /  F ield         | OpenFOAM: The Open Source CFD Toolbox
   \\    /   O peration     | Website:  https://openfoam.org
    \\  /    A nd           | Version:  10
     \\/     M anipulation  |
\*---------------------------------------------------------------------------*/
FoamFile
{
    format      ascii;
    class       volScalarField;
    location    "74";
    object      p;
}
// * * * * * * * * * * * * * * * * * * * * * * * * * * * * * * * * * * * * * //

dimensions      [0 2 -2 0 0 0 0];

internalField   nonuniform List<scalar> 
8800
(
0.834206
0.786421
0.747736
0.718746
0.69789
0.683072
0.672494
0.665041
0.660258
0.658253
0.659576
0.663813
0.670492
0.679834
0.692632
0.710378
0.735163
0.769109
0.811664
0.870367
0.665447
0.673126
0.680608
0.68392
0.682423
0.677356
0.670884
0.664831
0.660141
0.657343
0.657121
0.659681
0.664212
0.670188
0.676979
0.683274
0.686925
0.686194
0.680782
0.672098
0.643837
0.649998
0.654129
0.657081
0.65914
0.659758
0.658672
0.656597
0.654623
0.653772
0.654796
0.65723
0.660068
0.662277
0.662905
0.66172
0.65939
0.656005
0.651449
0.647689
0.638005
0.640657
0.643414
0.645824
0.64747
0.648648
0.649412
0.649562
0.649313
0.649326
0.650148
0.651375
0.652259
0.652356
0.65177
0.650696
0.648893
0.646332
0.643934
0.642431
0.632594
0.63402
0.635805
0.637846
0.639642
0.641002
0.642017
0.642852
0.643519
0.644156
0.644885
0.645447
0.645597
0.645348
0.644678
0.64345
0.641771
0.639934
0.638633
0.637801
0.627479
0.6284
0.629648
0.631224
0.632872
0.634417
0.635732
0.636843
0.637869
0.638845
0.639626
0.640031
0.640049
0.639655
0.638808
0.637633
0.636326
0.63508
0.634263
0.633711
0.622524
0.623194
0.624163
0.625477
0.626903
0.628385
0.629859
0.631231
0.632501
0.633706
0.634635
0.635095
0.635082
0.634628
0.633863
0.632946
0.631959
0.631052
0.630474
0.630067
0.61768
0.618197
0.618988
0.620132
0.621429
0.62283
0.624316
0.625846
0.627356
0.628806
0.62994
0.63052
0.630581
0.630263
0.629711
0.629024
0.628282
0.627618
0.627192
0.626874
0.612875
0.613286
0.61395
0.614971
0.6162
0.617559
0.61905
0.620672
0.622389
0.624119
0.625516
0.626305
0.626573
0.626485
0.626164
0.625696
0.625165
0.624697
0.624382
0.624123
0.608021
0.608355
0.608931
0.609875
0.611058
0.612407
0.613941
0.61567
0.617588
0.619625
0.62136
0.622464
0.623025
0.623204
0.623125
0.62289
0.62256
0.622256
0.622026
0.621808
0.603026
0.603303
0.603818
0.604719
0.605888
0.607267
0.608881
0.610762
0.612923
0.615316
0.617478
0.618985
0.619898
0.620384
0.62057
0.620574
0.620445
0.620285
0.620124
0.619934
0.5978
0.598032
0.598508
0.599396
0.600591
0.602043
0.603782
0.605869
0.608341
0.611176
0.61386
0.61585
0.617177
0.618015
0.618501
0.618746
0.618827
0.618803
0.618699
0.618529
0.592246
0.592443
0.592901
0.593804
0.595067
0.596638
0.598557
0.600919
0.603784
0.607171
0.610486
0.613054
0.614865
0.616107
0.616931
0.617446
0.617749
0.617853
0.617796
0.617639
0.58626
0.586429
0.586884
0.587833
0.589205
0.590946
0.593114
0.595829
0.599194
0.603259
0.607339
0.610596
0.61298
0.61469
0.615901
0.616739
0.617265
0.617493
0.617477
0.617328
0.579719
0.579863
0.580333
0.581356
0.582884
0.584855
0.587347
0.590514
0.594503
0.5994
0.604404
0.608484
0.611548
0.61381
0.615464
0.616655
0.617441
0.617799
0.617821
0.617674
0.572479
0.5726
0.573097
0.574226
0.575959
0.57823
0.581137
0.584877
0.589638
0.595551
0.601669
0.606731
0.610598
0.613513
0.615691
0.617291
0.618366
0.618859
0.618915
0.618767
0.564349
0.564459
0.564994
0.566261
0.568258
0.570908
0.574344
0.5788
0.584517
0.591667
0.599123
0.605354
0.610168
0.613849
0.616658
0.618738
0.620138
0.620772
0.620859
0.620706
0.555096
0.555193
0.555791
0.557222
0.559555
0.562696
0.566801
0.572152
0.579048
0.587704
0.596763
0.604377
0.61031
0.614892
0.618447
0.621088
0.622855
0.623638
0.623752
0.62359
0.544396
0.544475
0.54516
0.546819
0.549591
0.55336
0.558305
0.564777
0.573131
0.583617
0.594591
0.603832
0.611079
0.616724
0.621126
0.624437
0.626613
0.627548
0.627685
0.62751
0.531864
0.531929
0.532715
0.534686
0.538017
0.542589
0.548608
0.556499
0.566664
0.579371
0.592616
0.60376
0.612525
0.619405
0.6248
0.628874
0.631493
0.632578
0.632729
0.632538
0.516928
0.516982
0.517912
0.5203
0.524373
0.529999
0.537415
0.547119
0.559546
0.574945
0.590863
0.604207
0.614702
0.622992
0.629535
0.63446
0.637541
0.638759
0.638913
0.638702
0.498796
0.498837
0.499984
0.502961
0.508049
0.515102
0.524378
0.536437
0.551704
0.570352
0.58938
0.605221
0.617671
0.627545
0.635341
0.641213
0.644745
0.646063
0.646202
0.645971
0.476278
0.476318
0.477816
0.481683
0.488235
0.497296
0.509121
0.524287
0.543124
0.565659
0.588252
0.60687
0.621469
0.633088
0.642242
0.649088
0.653012
0.654372
0.654476
0.654225
0.447583
0.447645
0.449741
0.455043
0.463883
0.475892
0.491315
0.510608
0.5339
0.561016
0.587612
0.60924
0.626129
0.639589
0.650197
0.657956
0.662146
0.663459
0.663507
0.663241
0.409598
0.409767
0.413099
0.421055
0.433751
0.45029
0.470842
0.495554
0.524294
0.556677
0.587635
0.612425
0.631685
0.647014
0.659083
0.667583
0.67183
0.672988
0.67296
0.672686
0.35637
0.357389
0.364028
0.377459
0.396871
0.420421
0.448056
0.479618
0.514772
0.552987
0.588517
0.616512
0.638133
0.6553
0.668672
0.677612
0.681639
0.682543
0.682438
0.682167
0.278772
0.286275
0.301658
0.325361
0.354776
0.387717
0.424006
0.463442
0.505684
0.550181
0.590563
0.62194
0.646082
0.66519
0.679736
0.688848
0.692475
0.693115
0.692962
0.69273
0.195405
0.213134
0.238054
0.272643
0.312467
0.354916
0.399884
0.44733
0.49698
0.548328
0.594318
0.629704
0.656764
0.678091
0.693826
0.702564
0.705374
0.705719
0.705589
0.705429
0.125862
0.146762
0.179544
0.22337
0.272356
0.323755
0.377134
0.432423
0.489308
0.547261
0.598515
0.637546
0.667118
0.690073
0.706141
0.714115
0.71638
0.716662
0.716584
0.716457
0.0688941
0.0914752
0.129866
0.180221
0.23644
0.295361
0.356171
0.418647
0.482316
0.546522
0.60271
0.645083
0.676837
0.700993
0.717208
0.724737
0.726741
0.727015
0.726978
0.726878
0.0215008
0.0452761
0.08751
0.143037
0.205064
0.270194
0.337379
0.406237
0.476114
0.546175
0.607038
0.652561
0.686355
0.711693
0.728167
0.735406
0.73726
0.737566
0.737572
0.737493
-0.0185889
0.00583469
0.0509735
0.110587
0.177501
0.247916
0.320646
0.395191
0.470746
0.54629
0.611624
0.660195
0.696021
0.722537
0.739354
0.746576
0.748471
0.748734
0.74876
0.7487
-0.053434
-0.0286039
0.0188121
0.081804
0.152852
0.227873
0.305531
0.385227
0.466033
0.54676
0.616413
0.668004
0.705864
0.733601
0.750984
0.758483
0.760357
0.760628
0.76066
0.760617
-0.0845594
-0.0593868
-0.0101197
0.0557537
0.130379
0.209448
0.291542
0.375958
0.461675
0.547362
0.621228
0.675815
0.715741
0.744817
0.762929
0.770708
0.772691
0.772943
0.772967
0.772943
-0.112967
-0.0874975
-0.0366546
0.0317143
0.109485
0.192158
0.278257
0.367028
0.45738
0.547844
0.625856
0.683433
0.725456
0.755871
0.774733
0.782864
0.784967
0.785223
0.78524
0.785222
-0.139488
-0.113683
-0.0614517
0.00912465
0.0897123
0.175613
0.265354
0.358154
0.452885
0.547981
0.630109
0.690682
0.734763
0.766529
0.786093
0.79457
0.796814
0.797073
0.797053
0.797036
-0.164523
-0.138387
-0.0848284
-0.012401
0.0707209
0.159529
0.252582
0.349115
0.447995
0.547609
0.63384
0.697413
0.743537
0.776576
0.796774
0.805547
0.807878
0.808114
0.808061
0.808035
-0.188552
-0.161999
-0.107398
-0.0331054
0.0522662
0.143692
0.239767
0.339756
0.442561
0.546574
0.636933
0.703562
0.75171
0.785925
0.806626
0.815566
0.817935
0.818147
0.818058
0.818019
-0.211718
-0.184709
-0.129174
-0.0531906
0.0341884
0.127969
0.226791
0.329968
0.436469
0.544765
0.639308
0.709096
0.759297
0.794578
0.815595
0.824597
0.826923
0.827094
0.826973
0.82692
-0.234179
-0.206788
-0.150229
-0.0727819
0.0164006
0.112292
0.213587
0.31968
0.429643
0.542097
0.640884
0.714006
0.766357
0.802626
0.823788
0.83264
0.834883
0.834998
0.834846
0.83478
-0.256076
-0.228216
-0.170695
-0.0919372
-0.00115169
0.0966227
0.200135
0.308874
0.422048
0.538492
0.641585
0.71828
0.773007
0.810267
0.831353
0.839841
0.841868
0.84192
0.841753
0.841676
-0.27749
-0.249054
-0.19066
-0.11068
-0.0184641
0.0809625
0.18645
0.297561
0.413669
0.533891
0.641333
0.721906
0.779351
0.81771
0.838526
0.846356
0.848015
0.84797
0.847788
0.847706
-0.298289
-0.269306
-0.210068
-0.129006
-0.0355293
0.0653528
0.172565
0.285782
0.404533
0.528283
0.640037
0.724823
0.785451
0.82523
0.845675
0.852457
0.853445
0.853227
0.853051
0.852978
-0.318457
-0.288952
-0.228924
-0.146884
-0.0523106
0.0498326
0.158549
0.273592
0.394692
0.521664
0.637622
0.726912
0.791303
0.833069
0.853315
0.858694
0.858459
0.857815
0.857679
0.857675
-0.338073
-0.30797
-0.247221
-0.164298
-0.0687594
0.0344693
0.144472
0.261078
0.384214
0.514068
0.634008
0.728011
0.796778
0.841317
0.862034
0.866089
0.863916
0.862135
0.862007
0.862359
-0.356987
-0.326353
-0.264914
-0.181205
-0.084829
0.0193349
0.130418
0.248335
0.373197
0.505565
0.629147
0.727909
0.801618
0.849768
0.872135
0.875933
0.871947
0.86787
0.866462
0.866718
-0.375293
-0.3441
-0.282029
-0.197642
-0.100556
0.00438487
0.11633
0.235309
0.361579
0.496086
0.622902
0.726327
0.80555
0.858035
0.883319
0.888932
0.884968
0.87751
0.870255
0.857219
-0.392927
-0.361201
-0.298681
-0.213809
-0.116217
-0.0106978
0.101814
0.221546
0.348861
0.485046
0.614692
0.722579
0.808161
0.865662
0.894341
0.903657
0.90005
0.885816
0.86434
0.85487
-0.409729
-0.377824
-0.314689
-0.229516
-0.131457
-0.0255779
0.0870819
0.207353
0.33532
0.472658
0.604494
0.716064
0.80841
0.871356
0.901187
0.910747
0.908148
0.881777
0.81491
0.785256
-0.425047
-0.395256
-0.329758
-0.244293
-0.14547
-0.0397519
0.0724549
0.192956
0.32117
0.459027
0.592188
0.706352
0.804595
0.874197
0.898219
0.902733
0.885555
0.827922
0.75837
0.715932
-0.479349
-0.410593
-0.343346
-0.259277
-0.159952
-0.0547352
0.0578556
0.178059
0.306013
0.443651
0.577087
0.692604
0.79252
0.869387
0.868214
0.864789
0.807359
0.732684
0.654536
0.611065
-0.440899
-0.424966
-0.36359
-0.278412
-0.181375
-0.0761758
0.0353949
0.155019
0.28212
0.41862
0.550608
0.665244
0.758811
0.841871
0.821354
0.699221
0.588765
0.511972
0.436632
0.46458
-0.470819
-0.441861
-0.379639
-0.295312
-0.19833
-0.0932458
0.0186266
0.137646
0.263737
0.39855
0.52793
0.638424
0.722048
0.765822
0.711636
0.554596
0.421749
0.326994
0.226596
0.27417
-0.493814
-0.461946
-0.398656
-0.314215
-0.217118
-0.112146
-0.000346615
0.117852
0.242569
0.375028
0.500741
0.604899
0.679245
0.687865
0.574565
0.396181
0.23931
0.117363
-0.0155134
0.0159748
-0.516222
-0.482906
-0.418525
-0.3332
-0.236041
-0.131236
-0.0199747
0.0972565
0.220382
0.350057
0.471048
0.566916
0.625262
0.602042
0.436826
0.235961
0.0425562
-0.127545
-0.317116
-0.337482
-0.538013
-0.504305
-0.439102
-0.353044
-0.255781
-0.151226
-0.0406419
0.07548
0.196726
0.323163
0.438616
0.525918
0.564206
0.503171
0.305418
0.0909833
-0.128664
-0.319406
-0.561862
-0.85657
-0.560078
-0.5264
-0.460721
-0.374234
-0.276829
-0.172483
-0.0625186
0.0524391
0.171666
0.294542
0.404004
0.482683
0.498488
0.385416
0.190787
-0.0227839
-0.229497
-0.403311
-0.474212
-0.552051
-0.583352
-0.549656
-0.483731
-0.39708
-0.299674
-0.195642
-0.0864007
0.0272017
0.144062
0.262791
0.365776
0.433
0.422947
0.275953
0.0885773
-0.105942
-0.271535
-0.366175
-0.39065
-0.406402
-0.60814
-0.574361
-0.508297
-0.421653
-0.324443
-0.220908
-0.112644
-0.000719218
0.113326
0.22721
0.323231
0.375441
0.347247
0.174041
-0.00427818
-0.173585
-0.302697
-0.342678
-0.355445
-0.356736
-0.634641
-0.600684
-0.534484
-0.447949
-0.351086
-0.248286
-0.14127
-0.031375
0.0793937
0.187821
0.275891
0.313129
0.263767
0.0798807
-0.089346
-0.240977
-0.318818
-0.335958
-0.337368
-0.337187
-0.662909
-0.628685
-0.562321
-0.475967
-0.379619
-0.277768
-0.172282
-0.0647803
0.0422768
0.144704
0.223877
0.248898
0.162492
-0.00616449
-0.166859
-0.291841
-0.329239
-0.327604
-0.326721
-0.326148
-0.692663
-0.658201
-0.591706
-0.505625
-0.40996
-0.309301
-0.205652
-0.100908
0.00201751
0.0979757
0.168132
0.175574
0.0707841
-0.0858339
-0.228255
-0.306355
-0.316662
-0.319276
-0.319943
-0.319674
-0.723355
-0.688759
-0.622387
-0.536702
-0.441927
-0.342731
-0.241229
-0.139626
-0.0411924
0.0480096
0.109171
0.101256
-0.0113956
-0.153252
-0.27341
-0.305582
-0.314204
-0.315618
-0.315351
-0.315046
-0.754528
-0.719837
-0.653904
-0.568807
-0.475178
-0.377744
-0.278736
-0.180644
-0.087059
-0.00447525
0.0461137
0.0308632
-0.0865343
-0.207812
-0.303724
-0.322239
-0.313115
-0.311944
-0.311853
-0.311615
-0.785283
-0.750741
-0.685428
-0.601339
-0.509181
-0.413871
-0.317727
-0.223481
-0.135102
-0.0588186
-0.0181866
-0.0333885
-0.151975
-0.248671
-0.305527
-0.314849
-0.312089
-0.310801
-0.310245
-0.310016
-0.814109
-0.780297
-0.715987
-0.633386
-0.543181
-0.450422
-0.357553
-0.267454
-0.184509
-0.114414
-0.0774048
-0.103688
-0.204213
-0.28594
-0.290438
-0.30892
-0.312715
-0.311085
-0.31047
-0.310035
-0.839394
-0.806634
-0.744486
-0.663812
-0.576158
-0.486473
-0.397358
-0.311715
-0.234146
-0.170364
-0.133391
-0.170946
-0.248364
-0.30518
-0.324323
-0.318651
-0.317518
-0.316809
-0.316194
-0.315708
-0.859034
-0.828015
-0.768708
-0.691231
-0.606837
-0.520914
-0.436065
-0.355243
-0.282887
-0.225345
-0.190672
-0.224774
-0.281972
-0.338757
-0.362152
-0.338503
-0.326416
-0.323988
-0.322788
-0.322339
-0.870838
-0.842523
-0.787039
-0.7137
-0.633753
-0.552444
-0.472511
-0.39684
-0.329672
-0.277709
-0.245577
-0.267935
-0.295855
-0.343023
-0.333479
-0.325296
-0.322487
-0.321518
-0.321371
-0.321447
-0.872235
-0.84794
-0.79742
-0.729503
-0.655232
-0.579654
-0.505382
-0.435271
-0.373358
-0.326112
-0.29075
-0.301691
-0.291929
-0.296458
-0.301294
-0.311357
-0.316165
-0.317761
-0.31847
-0.31851
-0.86097
-0.841432
-0.797708
-0.737081
-0.669843
-0.601109
-0.533357
-0.469271
-0.412749
-0.369552
-0.3283
-0.327414
-0.299794
-0.279634
-0.300211
-0.314715
-0.321716
-0.324462
-0.325266
-0.325424
-0.835239
-0.820607
-0.786159
-0.735202
-0.676606
-0.615843
-0.555302
-0.497542
-0.446531
-0.407422
-0.362235
-0.354808
-0.346283
-0.340213
-0.340795
-0.340894
-0.340562
-0.340329
-0.340073
-0.340126
-0.797629
-0.788211
-0.763651
-0.724031
-0.67553
-0.623601
-0.57058
-0.519069
-0.473143
-0.43813
-0.408226
-0.39051
-0.387975
-0.426934
-0.424386
-0.383023
-0.360721
-0.352102
-0.348986
-0.348066
-0.754807
-0.749443
-0.734994
-0.706395
-0.668541
-0.625181
-0.57933
-0.53335
-0.491083
-0.458441
-0.43014
-0.401974
-0.379468
-0.391065
-0.391601
-0.367805
-0.339359
-0.324803
-0.320863
-0.319633
-0.716404
-0.71314
-0.706255
-0.687643
-0.658531
-0.622453
-0.582648
-0.540674
-0.499728
-0.464666
-0.437813
-0.386444
-0.312712
-0.229146
-0.13777
-0.124729
-0.18191
-0.230953
-0.254745
-0.258601
-0.688789
-0.686748
-0.683223
-0.67197
-0.649336
-0.618465
-0.582491
-0.542586
-0.500126
-0.459764
-0.429777
-0.37668
-0.329089
-0.295191
-0.38512
-0.57643
-0.705639
-0.703775
-0.63013
-0.615955
-0.667966
-0.66721
-0.666046
-0.660472
-0.643546
-0.615961
-0.581139
-0.540542
-0.495385
-0.447185
-0.409755
-0.390731
-0.456897
-0.680724
-0.970126
-1.11031
-1.14768
-1.08903
-0.982451
-0.931108
-0.655852
-0.655591
-0.654993
-0.65244
-0.640697
-0.61488
-0.579416
-0.536825
-0.487785
-0.43078
-0.385351
-0.350571
-0.392356
-0.493946
-0.664599
-0.799002
-0.770862
-0.629007
-0.482937
-0.412777
-0.647568
-0.647387
-0.646826
-0.645908
-0.638956
-0.615354
-0.578595
-0.532859
-0.477989
-0.413312
-0.345905
-0.275348
-0.168799
-0.0174948
0.171928
0.348361
0.547304
0.704431
0.792826
0.82685
-0.642529
-0.64248
-0.642316
-0.642492
-0.638122
-0.617801
-0.57966
-0.529727
-0.469459
-0.39515
-0.303941
-0.213096
-0.0137096
0.319745
0.70417
1.08819
1.39831
1.5762
1.65176
1.67251
-0.638525
-0.638584
-0.638636
-0.638517
-0.637449
-0.621732
-0.583174
-0.529182
-0.463354
-0.380101
-0.279212
-0.174348
0.0334973
0.40529
0.822349
1.20515
1.50898
1.67983
1.74314
1.75626
-0.635419
-0.635497
-0.635391
-0.634584
-0.633983
-0.626397
-0.589341
-0.532398
-0.461852
-0.375712
-0.273344
-0.166856
-0.00661384
0.330054
0.675331
0.988307
1.22643
1.35421
1.39817
1.40592
-0.634026
-0.634929
-0.637241
-0.641107
-0.645354
-0.637195
-0.597102
-0.537661
-0.467326
-0.381341
-0.283761
-0.183903
-0.0600277
0.200267
0.460684
0.674545
0.828516
0.905895
0.932982
0.93806
-0.63156
-0.633443
-0.638819
-0.651675
-0.666184
-0.650396
-0.601209
-0.54575
-0.480119
-0.395352
-0.303955
-0.214882
-0.119671
0.0634313
0.241467
0.375727
0.464417
0.508365
0.527674
0.534309
-0.64903
-0.649908
-0.647421
-0.629771
-0.603522
-0.588713
-0.583231
-0.557686
-0.497759
-0.413872
-0.330689
-0.253246
-0.179473
-0.045221
0.0831551
0.174507
0.233803
0.265102
0.281589
0.287343
-0.695316
-0.694151
-0.680528
-0.625699
-0.550897
-0.532092
-0.582547
-0.581649
-0.521638
-0.435717
-0.355573
-0.289162
-0.232422
-0.128889
-0.0271091
0.0504501
0.105569
0.137434
0.152141
0.155898
-0.762156
-0.760925
-0.773749
-0.786954
-0.784207
-0.755694
-0.736486
-0.657182
-0.556463
-0.456977
-0.376815
-0.320587
-0.277364
-0.188653
-0.0998516
-0.0301204
0.0235419
0.0555906
0.0683561
0.0701572
-0.916355
-0.939115
-0.999755
-1.06862
-1.09274
-1.05345
-0.942044
-0.755348
-0.596689
-0.472979
-0.388636
-0.336909
-0.299159
-0.224709
-0.148745
-0.0898338
-0.0436876
-0.0166662
-0.00674703
-0.00630858
-1.048
-1.07682
-1.13143
-1.18088
-1.20037
-1.15847
-1.01905
-0.795028
-0.607511
-0.471241
-0.38582
-0.337472
-0.300681
-0.240877
-0.180127
-0.131063
-0.0943717
-0.0726316
-0.0643385
-0.0642992
-0.996576
-1.01915
-1.0592
-1.09744
-1.11303
-1.0729
-0.926991
-0.728442
-0.563313
-0.441201
-0.364741
-0.319723
-0.287304
-0.243542
-0.198112
-0.160335
-0.132402
-0.116212
-0.110841
-0.11175
-0.7435
-0.764072
-0.802092
-0.845842
-0.869828
-0.837468
-0.721499
-0.587076
-0.471165
-0.384383
-0.326
-0.289568
-0.264651
-0.235452
-0.204418
-0.178472
-0.158942
-0.148262
-0.145199
-0.146613
-0.380003
-0.393435
-0.420818
-0.457169
-0.489294
-0.492136
-0.460176
-0.410372
-0.359082
-0.312919
-0.277581
-0.253466
-0.237958
-0.222058
-0.204453
-0.19089
-0.181187
-0.17686
-0.176077
-0.177469
-0.0693639
-0.0765558
-0.0948995
-0.12655
-0.167573
-0.207346
-0.234156
-0.247677
-0.249174
-0.238833
-0.225217
-0.213996
-0.208778
-0.203535
-0.199601
-0.198212
-0.199567
-0.202672
-0.204156
-0.2049
0.106763
0.102716
0.089742
0.0624557
0.0186041
-0.0364597
-0.0896329
-0.131854
-0.159694
-0.173488
-0.175302
-0.172198
-0.171715
-0.176239
-0.184833
-0.194961
-0.205155
-0.212666
-0.21518
-0.215469
0.166324
0.163667
0.153947
0.131709
0.0935863
0.0427757
-0.0113467
-0.0607869
-0.0988282
-0.123309
-0.132907
-0.132698
-0.133266
-0.146967
-0.16433
-0.18007
-0.193071
-0.200924
-0.203095
-0.203296
0.16385
0.161981
0.154907
0.138406
0.109625
0.0701244
0.0250906
-0.0199491
-0.0589877
-0.0882973
-0.103386
-0.10616
-0.107714
-0.124971
-0.143307
-0.158048
-0.168693
-0.17378
-0.175176
-0.17556
0.137954
0.136728
0.131867
0.120365
0.100016
0.0712258
0.0362639
-0.000880322
-0.0358239
-0.0660372
-0.0871784
-0.0997099
-0.107561
-0.119713
-0.129937
-0.137238
-0.141774
-0.143408
-0.144083
-0.144649
0.106895
0.10616
0.103006
0.0953179
0.0814002
0.061106
0.0352539
0.00608948
-0.0238583
-0.0531452
-0.0807257
-0.10619
-0.123257
-0.123384
-0.120886
-0.120688
-0.11954
-0.118747
-0.118839
-0.11939
0.0770797
0.0767845
0.0748892
0.0700066
0.0608459
0.047016
0.0286675
0.00708106
-0.0168404
-0.0433502
-0.0737878
-0.108831
-0.128583
-0.119984
-0.109861
-0.10364
-0.101573
-0.100679
-0.100632
-0.101034
0.0505963
0.0504648
0.0494848
0.0466503
0.0410239
0.0322277
0.0201458
0.00547607
-0.0117294
-0.0324287
-0.0585867
-0.0885571
-0.10154
-0.093322
-0.0856255
-0.0836798
-0.0836262
-0.0840822
-0.0840088
-0.084046
0.0268434
0.0268925
0.0265323
0.0252614
0.0225002
0.0179046
0.0113969
0.0033495
-0.00631082
-0.0183247
-0.0340737
-0.0508709
-0.0557216
-0.0516936
-0.0510258
-0.0538104
-0.0571299
-0.0588922
-0.0587141
-0.0583584
0.00450667
0.00461378
0.00474783
0.00515309
0.00528494
0.00483161
0.00371817
0.00215737
0.000245853
-0.00178684
-0.0043156
-0.00718369
-0.00903865
-0.011989
-0.0149775
-0.0164765
-0.0174363
-0.0172936
-0.0164013
-0.0154267
-0.0934844
0.0714806
0.263516
0.431041
0.564112
0.667918
0.753178
0.825848
0.859278
0.836105
0.203442
0.322527
0.450423
0.560607
0.653047
0.729167
0.790725
0.834503
0.856421
0.868683
0.418357
0.49986
0.587215
0.664125
0.73009
0.785229
0.82911
0.861234
0.884582
0.90269
0.576606
0.635019
0.695374
0.751584
0.800323
0.841743
0.875822
0.903076
0.925645
0.94402
0.700249
0.742667
0.78801
0.83115
0.869312
0.90267
0.93127
0.955127
0.975372
0.993252
0.803446
0.835916
0.873607
0.908743
0.941032
0.970014
0.99537
1.01672
1.03448
1.05185
0.895297
0.923755
0.957445
0.989341
1.01908
1.04609
1.06971
1.08934
1.10479
1.12187
0.983465
1.01252
1.04636
1.07826
1.10774
1.13422
1.15701
1.17544
1.18877
1.2058
1.07852
1.11164
1.14819
1.18168
1.21165
1.23777
1.25967
1.27691
1.28875
1.30615
1.19337
1.23114
1.26972
1.30392
1.33322
1.35793
1.37827
1.39413
1.40558
1.42364
1.33822
1.37673
1.41283
1.44349
1.46914
1.49121
1.51025
1.52576
1.53817
1.55617
1.51324
1.54485
1.571
1.59343
1.61339
1.63209
1.6498
1.66627
1.68161
1.69967
1.70182
1.71901
1.73404
1.75025
1.76615
1.78067
1.79387
1.80779
1.82533
1.84548
1.88352
1.89305
1.90458
1.91539
1.92467
1.93425
1.94502
1.95639
1.96774
1.9831
2.09074
2.0944
2.07945
2.06464
2.05836
2.06403
2.08251
2.11282
2.14499
2.17164
2.39706
2.2622
2.18555
2.14316
2.12573
2.1297
2.15709
2.21351
2.31613
2.54049
0.724802
0.722675
0.718193
0.709572
0.697355
0.685235
0.67502
0.667145
0.661556
0.658341
0.658034
0.660817
0.665955
0.673203
0.682608
0.69416
0.706819
0.717859
0.723974
0.72703
0.649243
0.655091
0.661426
0.665924
0.668402
0.668087
0.665364
0.661576
0.658096
0.655877
0.655779
0.658024
0.661724
0.666039
0.669865
0.671761
0.670834
0.66736
0.6622
0.655579
0.640797
0.643094
0.646501
0.649502
0.651586
0.653094
0.653865
0.653572
0.652579
0.651741
0.65197
0.653449
0.655304
0.656639
0.65684
0.655965
0.654427
0.652099
0.648842
0.645924
0.635256
0.636342
0.638179
0.640564
0.642597
0.644038
0.645077
0.645856
0.646294
0.646567
0.64712
0.647984
0.648627
0.648727
0.648339
0.647509
0.646053
0.643979
0.6419
0.640519
0.630013
0.630675
0.631787
0.6335
0.635292
0.63694
0.638257
0.639304
0.640229
0.641078
0.641878
0.642497
0.642742
0.642615
0.642077
0.641045
0.639634
0.638103
0.636793
0.636016
0.624986
0.625446
0.626235
0.627542
0.629043
0.630578
0.632068
0.633401
0.634587
0.635711
0.636709
0.637355
0.637563
0.637336
0.636675
0.635713
0.634609
0.633492
0.632587
0.632072
0.620094
0.620437
0.621052
0.62213
0.62344
0.624835
0.626302
0.627789
0.62922
0.630579
0.631788
0.632573
0.632825
0.632607
0.632053
0.631311
0.630487
0.62964
0.628979
0.628603
0.61528
0.615547
0.616044
0.616964
0.618151
0.619472
0.620901
0.622437
0.624044
0.625656
0.62712
0.628102
0.628495
0.628446
0.628108
0.627592
0.626977
0.626364
0.625886
0.625599
0.610462
0.610674
0.611088
0.611899
0.613008
0.614285
0.615709
0.6173
0.619049
0.620913
0.622682
0.623946
0.624596
0.624802
0.624706
0.62442
0.62402
0.623603
0.623267
0.623043
0.605549
0.605719
0.606075
0.606814
0.60788
0.60914
0.610598
0.612281
0.614199
0.616335
0.618469
0.620113
0.621106
0.621616
0.621787
0.621743
0.621564
0.621326
0.621109
0.620931
0.600451
0.600587
0.600902
0.601597
0.602651
0.603939
0.605471
0.607289
0.609433
0.611898
0.614479
0.616594
0.617999
0.618863
0.619339
0.619555
0.619596
0.619536
0.619419
0.619276
0.595073
0.595183
0.59547
0.596148
0.597222
0.598585
0.600235
0.602245
0.60468
0.607563
0.610693
0.613376
0.615268
0.616542
0.617363
0.617865
0.618144
0.618259
0.618231
0.618115
0.589318
0.589404
0.589675
0.590359
0.591492
0.592972
0.594795
0.597065
0.599873
0.603282
0.607082
0.610447
0.612917
0.614669
0.615883
0.616719
0.617262
0.617546
0.617597
0.617502
0.583072
0.583137
0.583401
0.584114
0.585342
0.586987
0.589047
0.591657
0.594939
0.599
0.603618
0.607801
0.61096
0.613275
0.614944
0.616157
0.616989
0.61746
0.617588
0.617509
0.5762
0.576245
0.57651
0.577275
0.578638
0.580504
0.582876
0.585918
0.589798
0.594662
0.600272
0.605439
0.609415
0.612396
0.6146
0.616241
0.61741
0.618082
0.618284
0.618218
0.568549
0.56857
0.568836
0.569677
0.571221
0.57337
0.57614
0.579732
0.584356
0.590206
0.597019
0.603362
0.608306
0.612073
0.614915
0.617063
0.618615
0.619506
0.619783
0.619726
0.559882
0.559894
0.560178
0.561117
0.562895
0.565393
0.568673
0.572958
0.578507
0.585566
0.593833
0.601578
0.607669
0.612359
0.615951
0.618714
0.620704
0.621832
0.622182
0.622131
0.549922
0.549904
0.550238
0.551323
0.553393
0.556353
0.560279
0.565431
0.572131
0.580672
0.590692
0.600102
0.607545
0.613324
0.617796
0.621272
0.62377
0.625157
0.625581
0.625531
0.538349
0.538306
0.538689
0.539968
0.542407
0.545963
0.550707
0.556955
0.565092
0.575454
0.587579
0.598957
0.607976
0.615029
0.620534
0.624829
0.62791
0.62957
0.630061
0.630008
0.524664
0.524594
0.525058
0.52659
0.529517
0.533844
0.539648
0.547301
0.557247
0.569848
0.584493
0.598175
0.609013
0.617525
0.624236
0.629473
0.633193
0.635131
0.635677
0.635614
0.508194
0.508096
0.508688
0.510576
0.514156
0.519514
0.526721
0.536205
0.548453
0.56381
0.581451
0.597798
0.61071
0.620876
0.628944
0.635243
0.639651
0.641851
0.64243
0.642351
0.487972
0.487847
0.488646
0.491054
0.495555
0.502347
0.511469
0.523391
0.538594
0.557341
0.57851
0.597887
0.613123
0.62513
0.634675
0.642149
0.647252
0.649667
0.650246
0.650142
0.462538
0.462399
0.463537
0.466753
0.472652
0.481544
0.493386
0.508625
0.527639
0.550522
0.575783
0.598541
0.616301
0.630298
0.641448
0.650149
0.655878
0.658417
0.658951
0.658816
0.429514
0.4294
0.431162
0.435783
0.444011
0.456189
0.472023
0.491816
0.515705
0.543551
0.573454
0.599881
0.620306
0.636389
0.649196
0.659106
0.665298
0.667819
0.668257
0.668087
0.384643
0.384701
0.387845
0.395401
0.407955
0.425498
0.447255
0.473188
0.503146
0.536772
0.571774
0.602044
0.625199
0.643377
0.657834
0.668794
0.675152
0.677464
0.677762
0.677561
0.319938
0.3212
0.3289
0.343018
0.363505
0.389592
0.419697
0.453455
0.490591
0.530646
0.571013
0.605154
0.630983
0.651184
0.667098
0.678745
0.684928
0.686795
0.686918
0.686703
0.243287
0.245145
0.259898
0.284178
0.315775
0.35193
0.391115
0.433168
0.47793
0.524972
0.571422
0.610189
0.639301
0.661943
0.679456
0.69164
0.69736
0.698835
0.698903
0.698769
0.164269
0.170657
0.192449
0.227154
0.269285
0.315223
0.363437
0.413815
0.466254
0.520339
0.572952
0.616369
0.648695
0.673706
0.692874
0.704958
0.709706
0.710646
0.710655
0.710584
0.099574
0.108363
0.134778
0.176624
0.227
0.281256
0.337596
0.395751
0.455495
0.516326
0.574779
0.622482
0.65766
0.684498
0.704448
0.716196
0.720484
0.721314
0.721359
0.72134
0.0469633
0.0563575
0.0863811
0.133537
0.190129
0.251081
0.314283
0.379296
0.445696
0.512826
0.576783
0.628509
0.666314
0.694811
0.715402
0.72698
0.730975
0.731732
0.731824
0.731854
0.0029918
0.0126709
0.0451755
0.0963736
0.158066
0.224575
0.293595
0.364604
0.436996
0.509949
0.579108
0.634667
0.674976
0.705089
0.726442
0.737991
0.741733
0.742572
0.74271
0.742795
-0.0347178
-0.0249375
0.00941474
0.0638419
0.129761
0.201013
0.275112
0.351445
0.429284
0.50765
0.581755
0.641045
0.683842
0.715577
0.73771
0.749431
0.753297
0.75418
0.754358
0.754468
-0.0678661
-0.0580703
-0.022311
0.034837
0.104305
0.179655
0.25826
0.339402
0.422259
0.505713
0.584574
0.647521
0.692802
0.726207
0.749286
0.761473
0.765511
0.766437
0.766594
0.766702
-0.0977659
-0.0879573
-0.0510547
0.00844059
0.0809563
0.159905
0.242531
0.328054
0.415573
0.503869
0.587344
0.653904
0.70168
0.7368
0.760921
0.773672
0.777926
0.778873
0.778993
0.779091
-0.125339
-0.115511
-0.077635
-0.0160588
0.059141
0.141285
0.227524
0.317057
0.408934
0.501852
0.589841
0.66
0.710275
0.747118
0.772269
0.78555
0.79007
0.791034
0.791125
0.791194
-0.151181
-0.141305
-0.102536
-0.0392141
0.0384191
0.12343
0.212936
0.306146
0.402095
0.499446
0.591888
0.665644
0.718398
0.756906
0.783057
0.79683
0.801612
0.802576
0.802613
0.802643
-0.17579
-0.165819
-0.126182
-0.0613495
0.018491
0.106068
0.198536
0.295118
0.394886
0.496493
0.593334
0.670723
0.72597
0.766091
0.793128
0.807271
0.812198
0.81316
0.81316
0.813156
-0.199488
-0.189336
-0.148954
-0.0826633
-0.00085386
0.0890141
0.184166
0.283845
0.387172
0.49286
0.594064
0.675163
0.732946
0.774631
0.802423
0.816788
0.821764
0.822678
0.82264
0.822604
-0.222388
-0.212051
-0.171011
-0.10331
-0.0197629
0.0721683
0.169733
0.272233
0.378862
0.488439
0.593984
0.678917
0.739346
0.782575
0.810937
0.825359
0.830252
0.831106
0.831043
0.830981
-0.244701
-0.234115
-0.192368
-0.123401
-0.0383097
0.0554636
0.155188
0.260238
0.369911
0.483173
0.593007
0.681936
0.745211
0.790054
0.818858
0.833123
0.837787
0.838543
0.838422
0.838349
-0.266402
-0.255568
-0.213159
-0.14301
-0.0565235
0.0388833
0.14053
0.247866
0.360308
0.477013
0.591053
0.684161
0.750602
0.797236
0.82637
0.840212
0.84447
0.845057
0.8449
0.844809
-0.287552
-0.276457
-0.233346
-0.162145
-0.0744077
0.022435
0.125777
0.235145
0.350071
0.469944
0.588056
0.685521
0.755531
0.804292
0.833775
0.84689
0.850442
0.850751
0.85055
0.850453
-0.308043
-0.296741
-0.252931
-0.180775
-0.091936
0.00616956
0.110973
0.222122
0.339247
0.461995
0.583964
0.685922
0.759956
0.811371
0.841455
0.853605
0.855979
0.855726
0.85546
0.855398
-0.328001
-0.316392
-0.271922
-0.198898
-0.109093
-0.00988981
0.0961924
0.208861
0.327903
0.45322
0.578754
0.685238
0.763755
0.818503
0.849794
0.861084
0.861762
0.860312
0.859772
0.859837
-0.34728
-0.335389
-0.290303
-0.216486
-0.125812
-0.0256697
0.0815051
0.195467
0.316134
0.443661
0.572438
0.683332
0.766724
0.825545
0.858979
0.870217
0.869208
0.865692
0.863827
0.863484
-0.365954
-0.353792
-0.30803
-0.233498
-0.142068
-0.0411097
0.0669856
0.182012
0.304036
0.433439
0.565054
0.680063
0.76859
0.83214
0.868687
0.881423
0.880249
0.874602
0.868561
0.861216
-0.383946
-0.371559
-0.325201
-0.25009
-0.158064
-0.0564705
0.0523169
0.168121
0.291198
0.422099
0.556135
0.67496
0.768974
0.838138
0.878566
0.894521
0.895603
0.88885
0.877237
0.873173
-0.401214
-0.388616
-0.341805
-0.266241
-0.173817
-0.0717519
0.0375044
0.153768
0.277562
0.409502
0.545445
0.667577
0.767009
0.84273
0.88674
0.905755
0.908589
0.903672
0.865124
0.813721
-0.417491
-0.404178
-0.357694
-0.281883
-0.189437
-0.0871257
0.0224824
0.139058
0.263166
0.395681
0.532866