/*--------------------------------*- C++ -*----------------------------------*\
  =========                 |
  \\      /  F ield         | OpenFOAM: The Open Source CFD Toolbox
   \\    /   O peration     | Website:  https://openfoam.org
    \\  /    A nd           | Version:  10
     \\/     M anipulation  |
\*---------------------------------------------------------------------------*/
FoamFile
{
    format      ascii;
    class       volScalarField;
    location    "56";
    object      p;
}
// * * * * * * * * * * * * * * * * * * * * * * * * * * * * * * * * * * * * * //

dimensions      [0 2 -2 0 0 0 0];

internalField   nonuniform List<scalar> 
2200
(
0.773189
0.75169
0.735782
0.720114
0.705507
0.692988
0.682634
0.674534
0.668833
0.665895
0.666372
0.670184
0.676536
0.685097
0.695784
0.708552
0.723341
0.739263
0.755303
0.776802
0.705605
0.702346
0.699424
0.695309
0.689846
0.683374
0.676762
0.670811
0.666309
0.663921
0.664413
0.667718
0.672905
0.679367
0.686349
0.693105
0.698767
0.702867
0.70572
0.70908
0.665698
0.665919
0.667971
0.66931
0.669699
0.668848
0.666864
0.664192
0.66166
0.66018
0.660755
0.663215
0.666491
0.66971
0.672046
0.673042
0.672769
0.67177
0.670125
0.669876
0.643177
0.644625
0.647228
0.649692
0.652141
0.654163
0.65532
0.655554
0.655186
0.654904
0.655552
0.656937
0.658142
0.658534
0.657859
0.656188
0.654028
0.651825
0.649209
0.647804
0.628834
0.630807
0.633629
0.636468
0.639327
0.642162
0.644629
0.646498
0.647734
0.648539
0.649275
0.649759
0.649524
0.64842
0.646558
0.644189
0.641645
0.638923
0.636125
0.634201
0.621507
0.623106
0.625308
0.627834
0.630497
0.633164
0.635757
0.638183
0.640206
0.641726
0.6426
0.642638
0.641818
0.640313
0.638422
0.636279
0.633947
0.631604
0.629508
0.627934
0.618067
0.619089
0.620357
0.62222
0.624367
0.62654
0.628737
0.631028
0.633254
0.635115
0.636152
0.636165
0.635404
0.634206
0.632822
0.631277
0.629591
0.62802
0.626903
0.625886
0.615401
0.61607
0.616703
0.618008
0.619627
0.621317
0.623076
0.625014
0.627092
0.629062
0.630332
0.630656
0.630336
0.629725
0.628949
0.628001
0.626952
0.626027
0.625579
0.624902
0.612163
0.61261
0.613006
0.614001
0.615263
0.61665
0.618151
0.619823
0.621689
0.623671
0.625198
0.626004
0.626275
0.626229
0.625951
0.625481
0.624897
0.624361
0.624173
0.623709
0.608095
0.608393
0.60875
0.60962
0.610735
0.612012
0.613452
0.615067
0.616881
0.618909
0.620792
0.622121
0.622908
0.623295
0.623385
0.623248
0.622956
0.622631
0.622502
0.622178
0.603372
0.603573
0.603945
0.604776
0.605867
0.607173
0.608699
0.610445
0.612422
0.614677
0.616973
0.618814
0.620037
0.620756
0.621091
0.621181
0.621057
0.620874
0.620768
0.620531
0.598175
0.59832
0.598692
0.599504
0.600655
0.602096
0.603815
0.605814
0.608132
0.610828
0.613633
0.615946
0.617534
0.618518
0.619076
0.619326
0.619396
0.619361
0.619286
0.619098
0.592569
0.59268
0.593059
0.59388
0.595102
0.5967
0.598667
0.601011
0.603773
0.607018
0.610457
0.613312
0.615307
0.616627
0.61744
0.617915
0.618195
0.618286
0.618251
0.618085
0.586549
0.58662
0.586999
0.587846
0.58918
0.590957
0.593185
0.595916
0.599252
0.603229
0.607406
0.610923
0.613406
0.615111
0.616295
0.617069
0.617557
0.617782
0.617791
0.617636
0.579997
0.580035
0.580455
0.581363
0.582843
0.584837
0.587375
0.590569
0.594562
0.599397
0.604503
0.608746
0.611868
0.61412
0.61574
0.616868
0.617607
0.617986
0.618039
0.617885
0.572885
0.572853
0.573271
0.574273
0.575966
0.57823
0.581124
0.584833
0.589559
0.595371
0.601577
0.606836
0.610766
0.613678
0.615834
0.617371
0.61839
0.618927
0.619031
0.618875
0.564831
0.564814
0.565276
0.566391
0.568319
0.570888
0.574238
0.578582
0.584159
0.591113
0.598645
0.60518
0.610162
0.613872
0.616645
0.618663
0.620006
0.620708
0.620868
0.620703
0.555752
0.555777
0.556207
0.557433
0.559656
0.56265
0.566615
0.571779
0.578444
0.586846
0.596019
0.603968
0.610118
0.614799
0.618311
0.620839
0.622545
0.623426
0.623638
0.623459
0.545198
0.545175
0.54572
0.547173
0.549792
0.553395
0.558197
0.564462
0.572536
0.582686
0.593772
0.60341
0.610864
0.616568
0.620852
0.624005
0.626119
0.627177
0.62744
0.627241
0.532714
0.532647
0.533322
0.535151
0.538309
0.542702
0.548608
0.556289
0.566159
0.578491
0.591892
0.603516
0.61245
0.619286
0.624452
0.628267
0.630812
0.63206
0.632365
0.632139
0.517967
0.517862
0.518634
0.520845
0.524749
0.530209
0.53755
0.547121
0.559362
0.574439
0.590483
0.604272
0.614882
0.622991
0.62915
0.633716
0.636718
0.638132
0.638468
0.638212
0.499945
0.499862
0.500861
0.503616
0.508504
0.515418
0.52473
0.5368
0.552029
0.57038
0.589541
0.60575
0.618166
0.627706
0.634991
0.64037
0.643857
0.645444
0.64579
0.645502
0.477675
0.477531
0.478838
0.48243
0.488835
0.497911
0.509969
0.525347
0.544253
0.566458
0.589134
0.608079
0.622531
0.633598
0.642047
0.648302
0.652247
0.653964
0.654298
0.653973
0.448908
0.448918
0.451003
0.456078
0.464808
0.477026
0.492872
0.512415
0.535646
0.562269
0.588993
0.611116
0.627839
0.640588
0.650331
0.657417
0.661759
0.663585
0.663877
0.663515
0.410962
0.4112
0.414705
0.422593
0.43526
0.45233
0.473389
0.498286
0.526839
0.558604
0.589764
0.615087
0.634137
0.648674
0.659725
0.667704
0.672366
0.67419
0.6744
0.674013
0.360427
0.3608
0.367741
0.380923
0.40001
0.424227
0.452316
0.48392
0.518764
0.556254
0.591918
0.620497
0.641836
0.658067
0.670432
0.679068
0.683727
0.685257
0.6853
0.684962
0.293859
0.296667
0.311689
0.333027
0.36103
0.394214
0.430491
0.46957
0.511309
0.555151
0.59605
0.628327
0.652446
0.670887
0.684669
0.694149
0.698814
0.699972
0.699923
0.699747
0.218197
0.227604
0.252656
0.28382
0.321953
0.364229
0.40873
0.455575
0.504713
0.555421
0.602117
0.638874
0.666494
0.687363
0.703153
0.713536
0.718097
0.718805
0.718754
0.718704
0.15053
0.165177
0.196506
0.23654
0.284216
0.335284
0.387819
0.442303
0.498521
0.555723
0.607863
0.649273
0.680137
0.703517
0.720845
0.732038
0.736676
0.737152
0.737316
0.737301
0.0989633
0.112092
0.148673
0.194788
0.24977
0.308302
0.368147
0.429786
0.492807
0.556576
0.614646
0.65995
0.693482
0.718907
0.737548
0.749603
0.754491
0.75561
0.755753
0.755782
0.0563177
0.0687169
0.109037
0.159069
0.219514
0.284018
0.350292
0.418508
0.488112
0.558185
0.621391
0.670129
0.706451
0.733713
0.753768
0.766396
0.771982
0.773329
0.7734
0.773483
0.0198583
0.032508
0.0754775
0.128378
0.193183
0.262561
0.334374
0.408353
0.483706
0.559127
0.626836
0.679497
0.718195
0.747128
0.768725
0.781976
0.787899
0.789426
0.78954
0.789619
-0.011943
0.00092262
0.0460477
0.101542
0.17002
0.243447
0.319903
0.398708
0.47899
0.559588
0.632353
0.688178
0.728927
0.75944
0.781856
0.795718
0.802079
0.80377
0.803946
0.804013
-0.0402605
-0.027368
0.0194645
0.0774623
0.149072
0.225909
0.306322
0.389362
0.474262
0.559848
0.636753
0.695384
0.738383
0.769999
0.793162
0.807766
0.814337
0.816223
0.816446
0.816489
-0.0660854
-0.0531817
-0.00508449
0.0552836
0.129634
0.209461
0.293361
0.380239
0.4694
0.559401
0.640154
0.702019
0.746617
0.779407
0.802932
0.817972
0.824927
0.826959
0.827242
0.827257
-0.0901858
-0.0769752
-0.0280902
0.0344707
0.111257
0.193773
0.280803
0.37113
0.464098
0.558193
0.643024
0.707725
0.753896
0.787681
0.811668
0.827024
0.834081
0.836259
0.836546
0.836533
-0.112849
-0.0993918
-0.0497335
0.0147225
0.0936282
0.178602
0.26844
0.36179
0.458161
0.556165
0.645029
0.712464
0.76044
0.795317
0.819729
0.834849
0.842102
0.844247
0.844587
0.844476
-0.134198
-0.120686
-0.0702606
-0.00418036
0.0765445
0.163699
0.256004
0.352046
0.45157
0.553317
0.646106
0.716715
0.766832
0.802454
0.827139
0.842083
0.849033
0.851201
0.851446
0.851294
-0.154594
-0.14097
-0.0898697
-0.022431
0.0598206
0.148876
0.243383
0.341903
0.44437
0.549573
0.646198
0.720319
0.772686
0.809566
0.834204
0.848618
0.855364
0.857301
0.857531
0.857427
-0.174449
-0.160354
-0.108786
-0.0401976
0.043371
0.1341
0.230573
0.331352
0.436464
0.544873
0.64551
0.723399
0.778468
0.816708
0.841295
0.855138
0.861221
0.862868
0.863043
0.862948
-0.19399
-0.179141
-0.127151
-0.0575391
0.0271738
0.119368
0.217587
0.320385
0.427892
0.539426
0.644031
0.725767
0.78417
0.824364
0.849128
0.861883
0.867032
0.867967
0.868057
0.868005
-0.213079
-0.197476
-0.145065
-0.0744964
0.0112368
0.104723
0.204465
0.309056
0.41878
0.533217
0.641487
0.727429
0.789676
0.832484
0.85805
0.869782
0.87291
0.872739
0.87261
0.87248
-0.231662
-0.215443
-0.162528
-0.091043
-0.0044101
0.090185
0.19124
0.297427
0.409163
0.526155
0.637782
0.728144
0.794701
0.841233
0.868679
0.879325
0.879863
0.877526
0.877155
0.878028
-0.249617
-0.232948
-0.179511
-0.107171
-0.0197419
0.0758038
0.177974
0.285558
0.399084
0.518294
0.632952
0.727708
0.799155
0.85027
0.881126
0.892151
0.889748
0.883186
0.878181
0.876944
-0.266975
-0.249931
-0.195949
-0.122829
-0.0347079
0.0616295
0.164727
0.273506
0.38858
0.509691
0.626947
0.725733
0.802305
0.859356
0.895319
0.90899
0.907297
0.895929
0.895304
0.899466
-0.283687
-0.266287
-0.211792
-0.137984
-0.0492638
0.0477346
0.15159
0.261352
0.377709
0.500425
0.619832
0.722094
0.803913
0.867345
0.910304
0.929916
0.930712
0.901663
0.862236
0.827491
-0.299738
-0.282056
-0.227066
-0.152688
-0.063489
0.03401
0.138423
0.248914
0.36624
0.49025
0.611385
0.716398
0.802753
0.87329
0.92532
0.954078
0.969815
0.948405
0.965497
1.02528
-0.315053
-0.297247
-0.241869
-0.167089
-0.0775662
0.02024
0.124964
0.235861
0.353751
0.478629
0.601034
0.70787
0.797847
0.874161
0.932113
0.965519
0.973422
0.949621
0.907376
0.923
-0.329632
-0.311872
-0.256153
-0.181118
-0.0914081
0.00652023
0.111326
0.222331
0.340397
0.465651
0.588682
0.696264
0.787117
0.865436
0.92435
0.957638
0.942774
0.887326
0.822656
0.810138
-0.343436
-0.325881
-0.269916
-0.194792
-0.105027
-0.00715265
0.0975262
0.208367
0.32623
0.451297
0.574181
0.681226
0.770365
0.844332
0.897851
0.90431
0.867906
0.789741
0.714591
0.691362
-0.356522
-0.339304
-0.283169
-0.208115
-0.118438
-0.020794
0.0835637
0.193987
0.311282
0.4356
0.557485
0.662585
0.746221
0.808735
0.837481
0.823581
0.763916
0.661509
0.573644
0.550898
-0.369328
-0.3525
-0.296302
-0.22147
-0.132005
-0.0347158
0.0691764
0.178973
0.295368
0.418373
0.538337
0.639694
0.715939
0.762573
0.757327
0.721829
0.60958
0.486456
0.378573
0.350932
-0.382743
-0.366314
-0.310006
-0.235453
-0.146279
-0.0493931
0.0539553
0.162976
0.278212
0.399425
0.516513
0.612254
0.681267
0.70335
0.669892
0.581296
0.424734
0.271606
0.141855
0.11385
-0.397275
-0.381068
-0.324603
-0.250326
-0.161454
-0.064956
0.037815
0.145954
0.259804
0.378734
0.491908
0.581065
0.639565
0.633262
0.581048
0.430838
0.230983
0.0183463
-0.161827
-0.210599
-0.41307
-0.39696
-0.34015
-0.266076
-0.177486
-0.0813735
0.0207763
0.127926
0.240196
0.356415
0.464558
0.547649
0.591281
0.553296
0.466239
0.27848
0.0476693
-0.240621
-0.561355
-0.709631
-0.430172
-0.413971
-0.356774
-0.282842
-0.194466
-0.0987183
0.00277226
0.108843
0.219362
0.332482
0.434786
0.511485
0.537325
0.468964
0.332757
0.127837
-0.10547
-0.448434
-1.03396
-1.60524
-0.448707
-0.432335
-0.374542
-0.30063
-0.212382
-0.116982
-0.0161694
0.0887759
0.197459
0.307353
0.403755
0.472477
0.47958
0.394791
0.203967
-0.0287287
-0.230629
-0.464201
-1.01759
-2.52809
-0.468648
-0.451958
-0.393571
-0.319644
-0.231448
-0.136377
-0.0362845
0.067456
0.174162
0.280664
0.371113
0.430231
0.416942
0.33679
0.111177
-0.126053
-0.273058
-0.309523
-0.298246
-0.684932
-0.48998
-0.4732
-0.41402
-0.340095
-0.252007
-0.157392
-0.0582001
0.0441023
0.148519
0.251054
0.335939
0.384682
0.355574
0.287396
0.0615062
-0.139701
-0.249749
-0.25716
-0.203721
-0.243749
-0.512505
-0.495653
-0.435914
-0.362161
-0.274227
-0.180172
-0.0820724
0.0185506
0.12032
0.218364
0.298284
0.337176
0.301593
0.234176
0.029847
-0.129836
-0.211361
-0.219122
-0.267115
-0.271085
-0.536368
-0.519512
-0.459136
-0.385699
-0.297998
-0.204723
-0.107955
-0.00927845
0.0895438
0.182963
0.258086
0.287539
0.254833
0.173632
0.00194843
-0.119758
-0.189509
-0.166665
-0.187019
-0.188603
-0.561102
-0.544055
-0.48362
-0.41078
-0.32331
-0.230996
-0.135768
-0.0392529
0.0563266
0.145184
0.215664
0.23451
0.214065
0.106172
-0.0327701
-0.11481
-0.153017
-0.201031
-0.175643
-0.184147
-0.586581
-0.569183
-0.50916
-0.437032
-0.349776
-0.258804
-0.16534
-0.0711983
0.0207757
0.10535
0.171826
0.180212
0.171664
0.0457087
-0.0697514
-0.133295
-0.109809
-0.169721
-0.150653
-0.155528
-0.611726
-0.594195
-0.535624
-0.46432
-0.377258
-0.287954
-0.196375
-0.104738
-0.016851
0.0639287
0.127895
0.128641
0.119572
-0.00586421
-0.0963108
-0.147406
-0.13599
-0.15066
-0.156181
-0.154321
-0.636314
-0.618894
-0.562259
-0.491687
-0.405168
-0.318025
-0.228489
-0.139529
-0.0560364
0.0211525
0.0837748
0.0809549
0.0624534
-0.0482473
-0.110155
-0.141009
-0.180007
-0.151675
-0.157283
-0.151768
-0.659196
-0.642497
-0.587895
-0.518498
-0.433404
-0.348565
-0.261144
-0.174954
-0.0958849
-0.0225627
0.0395689
0.0373088
0.00624512
-0.0844985
-0.124373
-0.114689
-0.187147
-0.131945
-0.146862
-0.13924
-0.679836
-0.664265
-0.611636
-0.543434
-0.46126
-0.378678
-0.29367
-0.2105
-0.135505
-0.0668382
-0.0052516
-0.00328452
-0.0401451
-0.104004
-0.133345
-0.093629
-0.137257
-0.119144
-0.125722
-0.122737
-0.696498
-0.682586
-0.632561
-0.566386
-0.487975
-0.407516
-0.32526
-0.245294
-0.173912
-0.11079
-0.0506829
-0.0417759
-0.0726708
-0.107153
-0.126491
-0.102878
-0.116159
-0.118059
-0.119214
-0.119536
-0.708474
-0.696703
-0.649914
-0.58617
-0.511548
-0.434007
-0.354945
-0.278487
-0.210323
-0.153211
-0.0950717
-0.0785061
-0.0995195
-0.102939
-0.116493
-0.129697
-0.121698
-0.127087
-0.12283
-0.123695
-0.714204
-0.704869
-0.662283
-0.60196
-0.53122
-0.457103
-0.38164
-0.308872
-0.243791
-0.192309
-0.136217
-0.115412
-0.130716
-0.106806
-0.101287
-0.133629
-0.115173
-0.133756
-0.126311
-0.130126
-0.713812
-0.706615
-0.668359
-0.6118
-0.545217
-0.475352
-0.404092
-0.335218
-0.273378
-0.226147
-0.172537
-0.15246
-0.168492
-0.128861
-0.0629831
-0.0940854
-0.0789407
-0.10433
-0.110506
-0.117044
-0.70617
-0.69882
-0.665741
-0.614709
-0.553164
-0.487843
-0.420947
-0.355881
-0.297179
-0.252582
-0.202537
-0.189364
-0.206115
-0.211341
-0.164243
-0.205397
-0.218414
-0.220968
-0.219718
-0.21704
-0.686186
-0.677842
-0.652769
-0.608974
-0.553434
-0.493428
-0.431336
-0.369575
-0.312862
-0.269278
-0.222598
-0.212432
-0.266404
-0.402011
-0.636417
-0.753126
-0.784694
-0.753258
-0.691019
-0.643387
-0.644628
-0.636735
-0.627133
-0.595087
-0.546954
-0.49215
-0.434482
-0.374974
-0.318032
-0.272455
-0.227293
-0.200946
-0.300857
-0.492839
-0.743026
-0.849416
-0.846331
-0.778275
-0.724565
-0.687866
-0.602804
-0.599818
-0.59895
-0.573781
-0.534289
-0.485758
-0.431435
-0.372334
-0.311501
-0.258595
-0.207057
-0.137932
-0.103201
-0.0728602
-0.0780707
-0.017086
0.0760251
0.144129
0.210575
0.26322
-0.579951
-0.581352
-0.572145
-0.555517
-0.522683
-0.476836
-0.422773
-0.362658
-0.294936
-0.225083
-0.155547
-0.0202753
0.15243
0.440717
0.726828
0.966416
1.13783
1.23596
1.27805
1.29949
-0.548646
-0.54879
-0.544896
-0.540712
-0.512973
-0.469629
-0.414225
-0.350522
-0.275129
-0.186836
-0.0926948
0.0554161
0.288234
0.632918
0.975037
1.25746
1.45343
1.56877
1.62298
1.64328
-0.530327
-0.528775
-0.531196
-0.525308
-0.503296
-0.462142
-0.405805
-0.338324
-0.257948
-0.158409
-0.0504212
0.078345
0.324356
0.638967
0.951153
1.21863
1.41948
1.54176
1.5968
1.61287
-0.515697
-0.51441
-0.518198
-0.510771
-0.497431
-0.457979
-0.400208
-0.329256
-0.245919
-0.142967
-0.0332861
0.0634411
0.278555
0.55007
0.812093
1.03843
1.2187
1.32756
1.37574
1.38873
-0.494939
-0.493961
-0.494205
-0.488066
-0.488404
-0.454652
-0.398176
-0.325505
-0.241635
-0.142527
-0.0380928
0.0334069
0.203564
0.432255
0.644529
0.823469
0.96804
1.05592
1.09413
1.10378
-0.489454
-0.487688
-0.482832
-0.480476
-0.482404
-0.452573
-0.397292
-0.324447
-0.242548
-0.152286
-0.0538745
0.00343297
0.128147
0.315416
0.484157
0.620582
0.729517
0.797589
0.827059
0.834686
-0.50584
-0.504063
-0.501181
-0.508862
-0.501512
-0.463735
-0.400212
-0.323779
-0.243526
-0.163824
-0.0717633
-0.0208035
0.0649652
0.214282
0.34649
0.448701
0.52823
0.57923
0.60041
0.604433
-0.531504
-0.532781
-0.53639
-0.546205
-0.533018
-0.481304
-0.402089
-0.320327
-0.240994
-0.171257
-0.0864396
-0.0390883
0.0175582
0.134594
0.235283
0.309719
0.367121
0.404432
0.418978
0.423841
-0.52784
-0.531549
-0.540407
-0.549155
-0.532371
-0.471814
-0.388913
-0.307958
-0.231625
-0.170767
-0.0958192
-0.051705
-0.0158835
0.0752692
0.149795
0.202656
0.245238
0.274806
0.285078
0.287898
-0.445299
-0.450133
-0.463103
-0.468948
-0.456093
-0.408602
-0.344868
-0.27865
-0.212011
-0.160334
-0.0990205
-0.0597818
-0.0361325
0.0339195
0.0877172
0.125315
0.157221
0.176818
0.185713
0.188327
-0.299825
-0.304705
-0.310032
-0.315048
-0.310487
-0.290863
-0.260428
-0.223524
-0.178424
-0.139415
-0.0950775
-0.0632914
-0.0451984
0.00801746
0.0454153
0.0719524
0.0926586
0.104082
0.109059
0.110197
-0.158581
-0.160751
-0.164542
-0.170181
-0.172072
-0.170677
-0.165946
-0.154744
-0.133454
-0.11125
-0.0843288
-0.0612866
-0.0454563
-0.00835949
0.0168222
0.0339044
0.0455144
0.0511603
0.0525504
0.0520586
-0.0506825
-0.0518138
-0.054371
-0.0608278
-0.0702428
-0.0805845
-0.0889155
-0.0925726
-0.0885686
-0.0815586
-0.0683576
-0.054288
-0.0417427
-0.018356
-0.00311583
0.0063064
0.0116537
0.0128896
0.0120355
0.0108508
0.0147079
0.013861
0.0118797
0.00517854
-0.0079856
-0.0237835
-0.0374783
-0.0477227
-0.0526674
-0.0554104
-0.0508511
-0.0439033
-0.0362734
-0.0237923
-0.0164345
-0.0127969
-0.0114744
-0.0126511
-0.0146963
-0.0161549
0.0462935
0.0456917
0.0439467
0.0377181
0.0252158
0.00894262
-0.00652284
-0.0196752
-0.0285734
-0.0355886
-0.0352726
-0.0326739
-0.0310481
-0.0261765
-0.0243263
-0.0243229
-0.0255534
-0.0279904
-0.0301765
-0.0316095
0.0575632
0.0570737
0.055616
0.0504149
0.0399048
0.0255496
0.0108462
-0.00287275
-0.0132363
-0.0218519
-0.0232513
-0.0236395
-0.0266465
-0.0261271
-0.0273845
-0.0294848
-0.0320599
-0.0349512
-0.036966
-0.0382826
0.0577584
0.0573948
0.056251
0.0522367
0.0440407
0.0325094
0.0199102
0.00706059
-0.0032538
-0.012591
-0.0150516
-0.0173726
-0.0220299
-0.0236664
-0.0263873
-0.0296984
-0.0329655
-0.035818
-0.03761
-0.0387498
0.0526989
0.0524424
0.0515739
0.0485909
0.0424913
0.0337214
0.0236423
0.0126148
0.00347225
-0.00593747
-0.00945326
-0.0125808
-0.0171324
-0.019526
-0.0230639
-0.0267673
-0.0300474
-0.0326197
-0.0340994
-0.0350775
0.0457265
0.0455671
0.0449527
0.0428507
0.0384903
0.0320418
0.0242793
0.0153628
0.00789249
-0.00104954
-0.00509997
-0.00837895
-0.0123058
-0.0146347
-0.0184925
-0.0221745
-0.0251613
-0.0273432
-0.0284626
-0.0292782
0.0382826
0.0381902
0.0377461
0.0362786
0.0332392
0.0286832
0.0229745
0.0160978
0.0103685
0.00244341
-0.00137869
-0.00441089
-0.00782811
-0.0099121
-0.0135228
-0.0168189
-0.01939
-0.0212085
-0.0219482
-0.0226048
0.0312138
0.031158
0.0308535
0.0298305
0.0276781
0.0243949
0.0201943
0.0149615
0.0109327
0.00455783
0.00158595
-0.000841485
-0.00376065
-0.0059632
-0.00913974
-0.0116785
-0.0135947
-0.0148782
-0.0153204
-0.0158971
0.024875
0.0248492
0.0246561
0.0239862
0.0225381
0.0201781
0.0170292
0.0129215
0.0101658
0.00530348
0.00336092
0.00161541
-0.000779437
-0.00273753
-0.00526183
-0.00712669
-0.00847463
-0.00929106
-0.00951854
-0.010039
0.0190674
0.0190491
0.0189342
0.0184917
0.0175417
0.0159895
0.0138583
0.0107917
0.00895166
0.00528376
0.00407325
0.00275128
0.000838442
-0.000585421
-0.00237611
-0.00374978
-0.0046852
-0.00522918
-0.00539041
-0.00585234
0.0138336
0.0138051
0.0137221
0.0134794
0.0129167
0.0119561
0.0106816
0.00856822
0.00751216
0.00467111
0.00392119
0.00304516
0.00169247
0.000526123
-0.000805265
-0.0016737
-0.00219212
-0.00252894
-0.00260825
-0.00301343
0.00929079
0.00926517
0.00921125
0.00909486
0.00883273
0.00834038
0.0076548
0.00618197
0.00575535
0.00358985
0.00337212
0.00283985
0.00182941
0.00090824
-0.000175193
-0.000637522
-0.000786945
-0.000870726
-0.000895393
-0.00131255
0.00533713
0.00530429
0.00528928
0.00524428
0.00512381
0.00484443
0.00457904
0.00356719
0.00366262
0.00211858
0.00234281
0.00240383
0.00156152
0.00106012
2.78035e-05
-0.00036448
-0.000487986
-0.00058756
-0.00048647
-0.000795044
0.0019416
0.00193455
0.00195645
0.001965
0.00191853
0.00169826
0.00168446
0.00104916
0.00149182
0.000585849
0.000976756
0.00163746
0.0010943
0.00106306
-0.000152901
-0.000973761
-0.00187543
-0.00263002
-0.00244684
-0.0024934
-1.0743
-0.23585
0.0341461
0.309917
0.490885
0.646143
0.771352
0.899053
1.03989
1.12298
-0.0953505
0.310723
0.326669
0.514561
0.637765
0.748323
0.843377
0.928145
0.955392
0.91352
0.280432
0.49378
0.528353
0.664501
0.749873
0.829232
0.894714
0.943883
0.945871
0.960048
0.509121
0.65157
0.686455
0.787769
0.844525
0.90184
0.94648
0.97873
0.987737
1.01144
0.686467
0.787477
0.81721
0.884457
0.928862
0.969646
1.00166
1.02589
1.03563
1.06723
0.829342
0.897929
0.928204
0.970911
1.0069
1.03693
1.06115
1.08187
1.09596
1.12427
0.948247
0.998688
1.0242
1.05209
1.07968
1.1034
1.12332
1.14256
1.15742
1.18395
1.05186
1.0888
1.10984
1.13045
1.15119
1.17055
1.18794
1.20605
1.22092
1.24459
1.14575
1.17483
1.19114
1.20639
1.22247
1.23853
1.25407
1.27098
1.2846
1.30692
1.23396
1.25441
1.26925
1.2824
1.29597
1.30973
1.32323
1.33782
1.34937
1.36901
1.31937
1.33515
1.34897
1.36079
1.3727
1.38434
1.39547
1.40716
1.41483
1.43163
1.4046
1.41714
1.43085
1.4426
1.45324
1.46303
1.47186
1.48012
1.48368
1.49493
1.49334
1.50416
1.51764
1.52717
1.53474
1.54203
1.54922
1.5557
1.5568
1.56416
1.59176
1.59636
1.60455
1.6093
1.6127
1.61718
1.62317
1.63085
1.63474
1.64462
1.70506
1.69196
1.68467
1.67894
1.67622
1.67756
1.6839
1.69627
1.71109
1.74075
1.82705
1.77101
1.73999
1.72279
1.71457
1.71451
1.72334
1.74295
1.77476
1.84402
)
;

boundaryField
{
    wall-4
    {
        type            zeroGradient;
    }
    pressure-outlet-7
    {
        type            fixedValue;
        value           uniform 0;
    }
    velocity-inlet-6
    {
        type            zeroGradient;
    }
    velocity-inlet-5
    {
        type            zeroGradient;
    }
    frontAndBackPlanes
    {
        type            empty;
    }
}


// ************************************************************************* //
