/*--------------------------------*- C++ -*----------------------------------*\
  =========                 |
  \\      /  F ield         | OpenFOAM: The Open Source CFD Toolbox
   \\    /   O peration     | Website:  https://openfoam.org
    \\  /    A nd           | Version:  10
     \\/     M anipulation  |
\*---------------------------------------------------------------------------*/
FoamFile
{
    format      ascii;
    class       surfaceScalarField;
    location    "56";
    object      phi;
}
// * * * * * * * * * * * * * * * * * * * * * * * * * * * * * * * * * * * * * //

dimensions      [0 3 -1 0 0 0 0];

internalField   nonuniform List<scalar> 
4262
(
0.107138
0.47085
0.0955677
0.705157
0.0693887
0.858482
0.0474031
1.02075
0.0310411
1.21488
0.0198193
1.44944
0.0123991
1.73328
0.00717894
2.07626
0.00323162
2.48919
-0.00046731
2.98599
-0.00408698
2.98591
-0.00786418
2.48902
-0.0128817
2.07605
-0.0200756
1.73306
-0.0310687
1.44921
-0.047159
1.21461
-0.0689214
1.02053
-0.0951956
0.858577
-0.107066
0.705456
0.470922
0.112881
0.357969
0.135314
0.682724
0.120425
0.873371
0.0978549
1.04332
0.0746026
1.23813
0.0528807
1.47116
0.0344823
1.75168
0.0202869
2.09045
0.00902699
2.50045
-0.0010965
2.99611
-0.0112915
2.99611
-0.0225066
2.50024
-0.0365616
2.09011
-0.0548115
1.75131
-0.0765939
1.471
-0.100301
1.23831
-0.123456
1.04368
-0.136993
0.872114
-0.113555
0.682019
0.357367
0.0920322
0.265937
0.124946
0.64981
0.121063
0.877254
0.104809
1.05957
0.0861504
1.25679
0.0670351
1.49028
0.0480874
1.77063
0.0300142
2.10853
0.0134192
2.51705
-0.00253005
3.01206
-0.0181051
3.01168
-0.0341296
2.51626
-0.0516912
2.10767
-0.0701288
1.76974
-0.0884576
1.48932
-0.105689
1.25554
-0.119819
1.05781
-0.125203
0.877498
-0.0923289
0.649145
0.265038
0.0640504
0.201887
0.104946
0.608914
0.106757
0.875443
0.0953865
1.07094
0.0814597
1.27072
0.0667069
1.50503
0.050569
1.78677
0.0334094
2.12568
0.0157809
2.53467
-0.00288653
3.03073
-0.0215276
3.03032
-0.0389145
2.53365
-0.0553661
2.12412
-0.0706516
1.78503
-0.0845077
1.50318
-0.0982181
1.26925
-0.109979
1.06957
-0.107023
0.874542
-0.0649007
0.607023
0.200137
0.0374703
0.164416
0.0806789
0.565705
0.0909555
0.865167
0.0837331
1.07817
0.0711422
1.28331
0.0593279
1.51685
0.0463801
1.79972
0.0314523
2.14061
0.0144041
2.55172
-0.00481959
3.04996
-0.02342
3.04892
-0.0393072
2.54953
-0.0532719
2.13809
-0.0654076
1.79717
-0.0766635
1.51444
-0.0885755
1.28117
-0.0949656
1.07596
-0.0831398
0.862716
-0.0383708
0.562254
0.161766
0.01946
0.144956
0.0572306
0.527934
0.0726665
0.849731
0.0705815
1.08025
0.0617769
1.29211
0.0508791
1.52774
0.0396905
1.8109
0.0270919
2.15321
0.0121526
2.56666
-0.00529925
3.06741
-0.0226439
3.06627
-0.0369856
2.56388
-0.0484764
2.14958
-0.0585495
1.80724
-0.0685111
1.5244
-0.0762439
1.2889
-0.0771046
1.07682
-0.0599779
0.845589
-0.0203695
0.522646
0.141397
0.0106514
0.134305
0.0424205
0.496165
0.0585702
0.833581
0.0588774
1.07994
0.0527519
1.29824
0.0433755
1.53712
0.0329798
1.8213
0.0216199
2.16457
0.00831213
2.57997
-0.00777257
3.08349
-0.0231199
3.08162
-0.034991
2.57575
-0.0448746
2.15946
-0.0536639
1.81603
-0.0615159
1.53225
-0.0660644
1.29345
-0.0641663
1.07492
-0.0458425
0.827266
-0.0116841
0.488487
0.129713
0.00658604
0.127719
0.0330026
0.469749
0.0493006
0.817283
0.050825
1.07842
0.045764
1.3033
0.0374623
1.54542
0.0278394
1.83092
0.0169074
2.1755
0.00484114
2.59204
-0.00885631
3.09719
-0.0222775
3.09504
-0.0332214
2.58669
-0.0425147
2.16875
-0.0503158
1.82383
-0.0568861
1.53882
-0.0600724
1.29663
-0.0563679
1.07122
-0.0372168
0.808115
-0.00787126
0.459142
0.121842
0.0047305
0.122988
0.0266217
0.447857
0.0424738
0.801431
0.0446383
1.07625
0.0400536
1.30788
0.03244
1.55304
0.0233629
1.84
0.0128934
2.18597
0.00119979
2.60373
-0.0120446
3.11043
-0.0241135
3.10711
-0.0338254
2.5964
-0.0420053
2.17693
-0.0487517
1.83058
-0.054078
1.54415
-0.0563652
1.29892
-0.0514407
1.0663
-0.0318828
0.788557
-0.00633495
0.433594
0.115507
0.00379319
0.119195
0.0218325
0.429818
0.0370531
0.78621
0.0398054
1.0735
0.0354131
1.31228
0.0280425
1.56041
0.0192721
1.84877
0.00917907
2.19607
-0.00209908
2.61501
-0.0140518
3.12239
-0.0254305
3.11848
-0.0348643
2.60584
-0.0423118
2.18438
-0.0483494
1.83661
-0.0531327
1.54893
-0.0544187
1.30021
-0.0480451
1.05992
-0.0281569
0.768668
-0.00572144
0.411158
0.109785
0.00306682
0.116128
0.017607
0.415278
0.0316119
0.772205
0.0346496
1.07046
0.0305631
1.31636
0.0234584
1.56751
0.0150012
1.85723
0.00522867
2.20584
-0.00597447
2.62621
-0.0182975
3.13471
-0.0291959
3.12938
-0.0372409
2.61388
-0.0437719
2.19091
-0.049054
1.8419
-0.0528795
1.55275
-0.0530809
1.30041
-0.0454253
1.05227
-0.0254436
0.748687
-0.00547624
0.391191
0.104309
0.00240707
0.113721
0.013956
0.403729
0.0266756
0.759486
0.0299058
1.06723
0.0259553
1.32031
0.0189084
1.57456
0.0104269
1.86571
0.000762906
2.2155
-0.00993738
2.63691
-0.021596
3.14637
-0.0320083
3.13979
-0.0400565
2.62193
-0.0458913
2.19675
-0.0502754
1.84628
-0.0530856
1.55557
-0.0524817
1.29981
-0.0433904
1.04318
-0.0233737
0.72867
-0.00528861
0.373106
0.0990204
0.00171037
0.112011
0.010584
0.394855
0.0214377
0.748632
0.0241454
1.06453
0.0202294
1.32423
0.0133726
1.58141
0.00491998
1.87416
-0.00481901
2.22524
-0.0158554
2.64795
-0.0276835
3.1582
-0.0377192
3.14983
-0.0442895
2.6285
-0.0489637
2.20142
-0.0525668
1.84988
-0.0542744
1.55727
-0.0528325
1.29836
-0.0424127
1.03276
-0.0221425
0.7084
-0.00522979
0.356193
0.0937906
0.000887866
0.111123
0.00724713
0.388496
0.0165394
0.73934
0.0189299
1.06214
0.0146284
1.32853
0.00733332
1.58871
-0.00127261
1.88277
-0.0109458
2.23491
-0.021492
2.65849
-0.0327153
3.16942
-0.0419834
3.1591
-0.0483235
2.63484
-0.0524121
2.20551
-0.0550731
1.85254
-0.0558602
1.55806
-0.0533285
1.29583
-0.0417483
1.02118
-0.0212676
0.687919
-0.00517084
0.340096
0.0886197
0.000188574
0.110935
0.0043612
0.384323
0.0112427
0.732458
0.0123437
1.06104
0.00764532
1.33323
0.000166627
1.59619
-0.00900142
1.89194
-0.0193017
2.24521
-0.0303923
2.66958
-0.0414751
3.1805
-0.0499323
3.16756
-0.0545739
2.63948
-0.057302
2.20824
-0.0592903
1.85453
-0.0592502
1.55802
-0.0551942
1.29178
-0.0420392
1.00802
-0.0209555
0.666836
-0.00519091
0.324332
0.0834288
-0.00079449
0.111729
0.000620453
0.382909
0.00550959
0.727569
0.00594993
1.06059
0.000438193
1.33874
-0.00815319
1.60478
-0.0179177
1.9017
-0.0282221
2.25552
-0.0387726
2.68013
-0.0491123
3.19084
-0.0566991
3.17514
-0.0609899
2.64377
-0.063193
2.21044
-0.0642092
1.85555
-0.0632842
1.55709
-0.0578494
1.28634
-0.0430007
0.993172
-0.0211373
0.644972
-0.00533693
0.308531
0.0780919
-0.00161528
0.113344
-0.00239753
0.383691
-0.000332549
0.725504
-0.00197859
1.06224
-0.00837533
1.34514
-0.017409
1.61381
-0.0279361
1.91223
-0.0394327
2.26702
-0.0512251
2.69193
-0.0617325
3.20135
-0.0682574
3.18167
-0.0712826
2.6468
-0.0721862
2.21135
-0.0718019
1.85516
-0.0692521
1.55454
-0.0618596
1.27895
-0.0448778
0.97619
-0.0218404
0.621935
-0.00558654
0.292277
0.0725054
-0.00297024
0.116315
-0.0060979
0.386818
-0.00758832
0.726995
-0.0104928
1.06515
-0.0178083
1.35245
-0.0280875
1.62409
-0.0396227
1.92376
-0.051644
2.27904
-0.0633697
2.70365
-0.0734453
3.21142
-0.0796004
3.18782
-0.0816683
2.64887
-0.0810566
2.21073
-0.0798609
1.85397
-0.0763517
1.55104
-0.0669804
1.26958
-0.0476575
0.956867
-0.0230634
0.597341
-0.00595852
0.275173
0.0665469
-0.00426402
0.120579
-0.0103412
0.392896
-0.0152262
0.73188
-0.0211406
1.07106
-0.0297776
1.36109
-0.0411162
1.63543
-0.053852
1.9365
-0.067548
2.29273
-0.0809335
2.71704
-0.0916681
3.22216
-0.0963051
3.19246
-0.0966192
2.64918
-0.0953523
2.20947
-0.0918144
1.85043
-0.0856674
1.54489
-0.0736349
1.25754
-0.0514751
0.934707
-0.02477
0.570636
-0.00642311
0.256826
0.0601237
-0.00573692
0.126315
-0.0154015
0.40256
-0.0242728
0.740751
-0.0330699
1.07986
-0.0436335
1.37165
-0.0567039
1.6485
-0.071018
1.95081
-0.085688
2.3074
-0.0991772
2.73053
-0.108878
3.23186
-0.112774
3.19636
-0.112212
2.64862
-0.108586
2.20584
-0.104023
1.84587
-0.0968096
1.53768
-0.081834
1.24257
-0.0561778
0.909051
-0.0268853
0.541343
-0.00695362
0.236894
0.0531701
-0.00803204
0.134348
-0.0221977
0.416726
-0.0364273
0.75498
-0.0487282
1.09216
-0.0614928
1.38442
-0.0768469
1.66386
-0.0933237
1.96729
-0.10994
2.32402
-0.124591
2.74518
-0.134631
3.2419
-0.136395
3.19812
-0.133153
2.64538
-0.128154
2.20084
-0.12087
1.83858
-0.110166
1.52697
-0.0916572
1.22406
-0.0619423
0.879336
-0.0293843
0.508785
-0.007532
0.215042
0.0456381
-0.0104618
0.144809
-0.02942
0.435684
-0.0497266
0.775287
-0.0668764
1.10931
-0.0828601
1.4004
-0.100867
1.68186
-0.119617
1.98604
-0.137409
2.34181
-0.151939
2.75971
-0.160392
3.25035
-0.16062
3.19835
-0.155331
2.64009
-0.147269
2.19278
-0.138307
1.82962
-0.125722
1.51439
-0.102863
1.2012
-0.0682266
0.844699
-0.0319595
0.472518
-0.00805494
0.191137
0.0375832
-0.0151101
0.159919
-0.04144
0.462014
-0.0684988
0.802346
-0.0907019
1.13151
-0.110679
1.42038
-0.132758
1.70394
-0.15449
2.00777
-0.174342
2.36166
-0.189343
2.77471
-0.195904
3.25692
-0.192054
3.1945
-0.183322
2.63135
-0.173372
2.18283
-0.161309
1.81756
-0.143978
1.49706
-0.11614
1.17336
-0.0756968
0.804256
-0.034765
0.431586
-0.0085424
0.164914
0.0290408
-0.0193257
0.179245
-0.0547914
0.49748
-0.0918873
0.839442
-0.121795
1.16142
-0.147338
1.44592
-0.173322
1.72992
-0.197158
2.03161
-0.21653
2.38104
-0.228901
2.78708
-0.232253
3.26027
-0.226098
3.18834
-0.214362
2.61962
-0.199931
2.1684
-0.184727
1.80235
-0.164328
1.47666
-0.129917
1.13895
-0.0825242
0.756863
-0.0370351
0.386097
-0.00870532
0.136585
0.0203355
-0.0325009
0.211746
-0.0816595
0.546638
-0.129213
0.886995
-0.165502
1.19771
-0.196251
1.47667
-0.226136
1.75981
-0.250851
2.05632
-0.270103
2.40029
-0.281459
2.79844
-0.280393
3.2592
-0.266754
3.1747
-0.249652
2.60252
-0.233595
2.15234
-0.214637
1.7834
-0.18696
1.44898
-0.145323
1.09732
-0.0904668
0.702006
-0.0392805
0.334911
-0.00865801
0.105962
0.0116775
-0.0468925
0.258639
-0.120311
0.620057
-0.183387
0.950071
-0.228244
1.24256
-0.26501
1.51344
-0.295614
1.79041
-0.318225
2.07893
-0.332928
2.41499
-0.336697
2.80221
-0.327607
3.25011
-0.310356
3.15745
-0.29072
2.58288
-0.268192
2.12981
-0.244108
1.75931
-0.211527
1.4164
-0.160098
1.04589
-0.0950927
0.637002
-0.0393263
0.279144
-0.00850677
0.0751427
0.00317069
-0.0338813
0.29252
-0.0972487
0.683424
-0.155772
1.00859
-0.202955
1.28975
-0.245517
1.556
-0.283571
1.82847
-0.319001
2.11436
-0.350755
2.44674
-0.375436
2.82689
-0.389294
3.26397
-0.383844
3.152
-0.365751
2.56479
-0.34587
2.10993
-0.316094
1.72954
-0.265598
1.3659
-0.19135
0.971639
-0.106137
0.551789
-0.0413047
0.214312
-0.00933449
0.0431725
-0.0061638
-0.0128096
0.305329
-0.0478003
0.718415
-0.0893071
1.0501
-0.128526
1.32897
-0.167429
1.5949
-0.201808
1.86285
-0.23362
2.14617
-0.260768
2.47389
-0.278923
2.84504
-0.280065
3.26511
-0.265537
3.13747
-0.246877
2.54613
-0.22004
2.0831
-0.187337
1.69683
-0.146748
1.32531
-0.0944873
0.919378
-0.0435227
0.500825
-0.0151875
0.185977
-0.00364019
0.0316251
-0.00980399
8.54017e-05
0.305244
-0.0248827
0.743383
-0.0545332
1.07975
-0.084541
1.35897
-0.115848
1.62621
-0.146239
1.89324
-0.174276
2.17421
-0.197219
2.49684
-0.211029
2.85885
-0.21154
3.26562
-0.1988
3.12473
-0.174477
2.5218
-0.14525
2.05387
-0.112783
1.66437
-0.0735951
1.28613
-0.0338279
0.879611
-0.00759945
0.474596
-0.000403296
0.178781
-0.000321547
0.0315434
-0.0101255
0.000660901
0.304583
-0.0127533
0.756797
-0.0342037
1.1012
-0.0588356
1.38361
-0.084725
1.6521
-0.110325
1.91884
-0.133807
2.19769
-0.152544
2.51557
-0.162844
2.86915
-0.160345
3.26312
-0.141987
3.10638
-0.115641
2.49546
-0.0872223
2.02545
-0.0537954
1.63094
-0.0234183
1.25575
-0.00054937
0.856742
0.00966487
0.464382
0.00684177
0.181604
0.00177015
0.036615
-0.00835538
0.00405089
0.300532
-0.00531429
0.766163
-0.0233069
1.11919
-0.0439354
1.40423
-0.0655178
1.67368
-0.0869856
1.9403
-0.107118
2.21783
-0.123353
2.53181
-0.132043
2.87784
-0.128409
3.25949
-0.109312
3.08728
-0.0831372
2.46928
-0.0529043
1.99522
-0.025969
1.604
0.0016865
1.22809
0.0205893
0.837839
0.0220292
0.462942
0.0125615
0.191071
0.00346193
0.0457145
-0.00489345
0.00515459
0.295378
-0.000942613
0.77226
-0.0168425
1.13509
-0.0351007
1.42249
-0.0542206
1.6928
-0.0731714
1.95926
-0.0909406
2.2356
-0.105306
2.54617
-0.112383
2.88492
-0.107222
3.25433
-0.0887857
3.06884
-0.0639901
2.44449
-0.0371446
1.96837
-0.00758498
1.57444
0.0136645
1.20684
0.0252705
0.826233
0.0245918
0.463621
0.0139471
0.201716
0.00401441
0.0556472
-0.000879041
0.00412254
0.291255
-0.000174213
0.776557
-0.0135185
1.14844
-0.0301661
1.43914
-0.0474141
1.71005
-0.0646297
1.97647
-0.0808345
2.2518
-0.0937392
2.55908
-0.100022
2.8912
-0.0953886
3.2497
-0.0782178
3.05167
-0.0545971
2.42087
-0.0280826
1.94186
-0.005637
1.552
0.0148691
1.18634
0.026322
0.81478
0.0234496
0.466493
0.0133958
0.21177
0.00390136
0.0651417
0.00302232
0.0025431
0.288712
-0.00113411
0.780234
-0.013075
1.16038
-0.0279678
1.45403
-0.0441187
1.7262
-0.0601187
1.99247
-0.0752163
2.2669
-0.087749
2.57161
-0.0949449
2.8984
-0.0912525
3.246
-0.0752049
3.03562
-0.0535113
2.39917
-0.0305228
1.91887
-0.0057485
1.52722
0.0118399
1.16875
0.0204716
0.806148
0.0195802
0.467384
0.0111407
0.220209
0.00334425
0.0729382
0.00636657
0.000423758
0.288288
-0.00310117
0.783759
-0.0137307
1.17101
-0.0271802
1.46748
-0.0422258
1.74125
-0.0574746
2.00772
-0.0722217
2.28165
-0.0848005
2.58419
-0.0921009
2.9057
-0.0891271
3.24303
-0.0749392
3.02144
-0.0541878
2.37842
-0.0318981
1.89658
-0.0139429
1.50927
0.00375977
1.15105
0.0147479
0.79516
0.0138265
0.468306
0.00814199
0.225894
0.00250926
0.0785709
0.00887583
-0.000546175
0.288834
-0.00549825
0.788711
-0.0151801
1.18069
-0.0276053
1.47991
-0.0419664
1.75561
-0.0566734
2.02243
-0.0711983
2.29617
-0.0841615
2.59715
-0.0927422
2.91428
-0.0924543
3.24274
-0.0793028
3.00828
-0.0600258
2.35915
-0.0416445
1.8782
-0.0202002
1.48782
-0.0047315
1.13558
0.00433511
0.786094
0.00715093
0.46549
0.00439499
0.22865
0.00163091
0.081335
0.0105067
-0.00197045
0.290805
-0.00712774
0.793868
-0.0165639
1.19013
-0.0283514
1.49169
-0.0419341
1.76919
-0.0562776
2.03677
-0.070916
2.31081
-0.0843927
2.61063
-0.0939522
2.92384
-0.095365
3.24416
-0.0843819
2.9973
-0.0669892
2.34175
-0.0469577
1.85817
-0.0310486
1.47192
-0.0148542
1.11938
-0.00272654
0.773966
0.000479588
0.462284
0.000986287
0.228143
0.000554455
0.0817668
0.0110612
-0.00343414
0.294239
-0.00903389
0.799468
-0.0180393
1.19913
-0.029386
1.50304
-0.0426022
1.78241
-0.0566228
2.05079
-0.071231
2.32542
-0.0853507
2.62475
-0.0964896
2.93498
-0.100291
3.24796
-0.0909663
2.98798
-0.0753687
2.32615
-0.0590976
1.8419
-0.0388444
1.45166
-0.0228043
1.10334
-0.0115657
0.762727
-0.00436996
0.455088
-0.00172121
0.225494
-0.000199415
0.080245
0.0108618
-0.00409411
0.298333
-0.0100723
0.805446
-0.019164
1.20822
-0.0301801
1.51406
-0.0428589
1.79509
-0.0566101
2.06454
-0.0714272
2.34023
-0.086265
2.63959
-0.0988037
2.94751
-0.105033
3.25419
-0.100243
2.98319
-0.0863771
2.31229
-0.0652422
1.82076
-0.0478888
1.43431
-0.0300176
1.08547
-0.0156825
0.748392
-0.00861613
0.448022
-0.00326231
0.220141
-0.000628558
0.0776113
0.0102332
-0.0043797
0.302713
-0.0111421
0.812208
-0.0200959
1.21718
-0.030796
1.52476
-0.0432643
1.80755
-0.0568567
2.07813
-0.0717622
2.35514
-0.0872151
2.65504
-0.101215
2.96151
-0.109975
3.26295
-0.107157
2.98037
-0.0943314
2.29946
-0.0775943
1.80402
-0.0541012
1.41082
-0.0347
1.06607
-0.0205639
0.734256
-0.0100738
0.437532
-0.00409896
0.214166
-0.000851767
0.0743641
0.00938146
-0.00440569
0.307119
-0.0114609
0.819263
-0.0205391
1.22626
-0.0310456
1.53526
-0.0431287
1.81964
-0.0565084
2.09151
-0.07156
2.37019
-0.0875693
2.67105
-0.103044
2.97699
-0.114691
3.27459
-0.116138
2.98182
-0.105184
2.28851
-0.0825747
1.78141
-0.0606641
1.3889
-0.037966
1.04337
-0.0201589
0.716449
-0.0103608
0.427734
-0.00362418
0.207429
-0.00079519
0.0715351
0.00858626
-0.00454378
0.311662
-0.0119613
0.826681
-0.020787
1.23508
-0.0310146
1.54549
-0.0429293
1.83155
-0.056184
2.10477
-0.0712751
2.38528
-0.0878208
2.68759
-0.104675
2.99384
-0.11847
3.28839
-0.12194
2.98528
-0.112357
2.27893
-0.0948496
1.76391
-0.0658486
1.3599
-0.0388272
1.01635
-0.0193804
0.697002
-0.00589618
0.414249
-0.000511858
0.202045
0.000676225
0.070347
0.00926249
-0.00454105
0.316203
-0.011873
0.834013
-0.0206452
1.24385
-0.0306885
1.55553
-0.0422487
1.84311
-0.0552542
2.11777
-0.0703767
2.4004
-0.0873431
2.70456
-0.105305
3.0118
-0.121664
3.30475
-0.12983
2.99345
-0.122786
2.27188
-0.0998927
1.74101
-0.0719513
1.33196
-0.038669
0.98307
-0.0118573
0.670191
0.00225738
0.400135
0.00455407
0.199748
-0.00108605
0.0759871
0.00817644
-0.00459921
0.320803
-0.0120044
0.841418
-0.0204182
1.25227
-0.0301137
1.56523
-0.0414369
1.85444
-0.0542803
2.13062
-0.0693701
2.41549
-0.0866961
2.72189
-0.105688
3.0308
-0.12406
3.32312
-0.134214
3.0036
-0.129602
2.26727
-0.11318
1.72459
-0.0785063
1.29729
-0.0381195
0.942683
-0.000602273
0.632673
0.0291336
0.370399
0.0395797
0.189302
0.0262899
0.0892769
0.0344664
-0.00446082
0.325263
-0.0116153
0.848573
-0.0198928
1.26055
-0.0293461
1.57468
-0.0402754
1.86536
-0.0528108
2.14315
-0.0677931
2.43048
-0.0852944
2.73939
-0.104983
3.05048
-0.125306
3.34344
-0.139032
3.01733
-0.139445
2.26768
-0.119426
1.70457
-0.0869485
1.26481
-0.0387991
0.894534
0.00970257
0.584172
0.0508781
0.329223
0.0488822
0.191298
0.0215285
0.116631
0.0559949
-0.00434663
0.32961
-0.0114633
0.855689
-0.0193414
1.26842
-0.0283701
1.58371
-0.0390236
1.87602
-0.051344
2.15547
-0.0661969
2.44533
-0.0838422
2.75703
-0.104241
3.07088
-0.126304
3.3655
-0.14183
3.03286
-0.145309
2.27116
-0.134432
1.6937
-0.09908
1.22946
-0.0470659
0.84252
0.0251961
0.51191
0.12371
0.230709
0.196008
0.119
0.182749
0.12989
0.238744
-0.0041842
0.333794
-0.0110781
0.862583
-0.0190056
1.27635
-0.0281175
1.59282
-0.0389201
1.88682
-0.051649
2.1682
-0.0673871
2.46107
-0.086569
2.77622
-0.109543
3.09386
-0.135877
3.39184
-0.157849
3.05483
-0.167949
2.28126
-0.156283
1.68203
-0.125311
1.19849
-0.0650791
0.782288
-0.00769969
0.45453
-0.0634337
0.286443
-0.356572
0.412138
-0.942581
0.715898
0.90065
-1.60449
-0.00404051
0.337835
-0.0108932
0.869436
-0.0185166
1.28397
-0.0273938
1.6017
-0.03814
1.89757
-0.0510525
2.18111
-0.0672627
2.47728
-0.0874566
2.79641
-0.112426
3.11883
-0.142521
3.42193
-0.169271
3.08158
-0.183729
2.29572
-0.189811
1.68811
-0.168286
1.17696
-0.138999
0.753001
-0.233244
0.548776
-0.693369
0.746567
-1.44506
1.16383
-2.05203
1.32286
1.21657
-2.36795
-0.00380032
0.341635
-0.0102743
0.87591
-0.0177711
1.29147
-0.026553
1.61048
-0.0371646
1.90818
-0.0501167
2.19407
-0.0666825
2.49384
-0.0877182
2.81744
-0.11446
3.14557
-0.148046
3.45552
-0.18134
3.11487
-0.205967
2.32035
-0.213044
1.69519
-0.200026
1.16394
-0.285768
0.838743
-0.753289
1.0163
-1.54789
1.54117
-2.11159
1.72754
-2.3504
1.56168
1.33067
-2.4645
-0.00366359
0.345299
-0.009924
0.88217
-0.0170388
1.29859
-0.025518
1.61896
-0.0359904
1.91865
-0.0490478
2.20712
-0.0659819
2.51078
-0.087921
2.83938
-0.116561
3.17421
-0.15403
3.49299
-0.193296
3.15414
-0.223336
2.35039
-0.249093
1.72095
-0.326596
1.24144
-0.682909
1.19506
-1.43918
1.77257
-2.02802
2.13001
-2.26745
1.96697
-2.38048
1.6747
1.39472
-2.44453
-0.00334663
0.348645
-0.00912586
0.887949
-0.016022
1.30548
-0.0243376
1.62728
-0.0346815
1.929
-0.0476995
2.22014
-0.0648475
2.52793
-0.0874542
2.86199
-0.117713
3.20447
-0.158733
3.53401
-0.205419
3.20082
-0.248596
2.39357
-0.289071
1.76142
-0.469782
1.42216
-1.09438
1.81965
-1.78917
2.46737
-2.10885
2.44968
-2.25678
2.1149
-2.33874
1.75667
1.46062
-2.40464
-0.00332879
0.351974
-0.00914433
0.893765
-0.0159107
1.31225
-0.0241758
1.63554
-0.0347644
1.93958
-0.0481553
2.23353
-0.0658918
2.54566
-0.0895523
2.88565
-0.121737
3.23665
-0.166515
3.57879
-0.219353
3.25366
-0.265449
2.43966
-0.353662
1.84964
-0.745509
1.814
-1.49084
2.56498
-1.9632
2.93973
-2.16298
2.64946
-2.26909
2.22101
-2.34617
1.83375
1.52402
-2.40957
-0.00338674
0.355361
-0.0093051
0.899683
-0.0165694
1.31951
-0.0253998
1.64437
-0.0365148
1.9507
-0.0505075
2.24753
-0.0690672
2.56422
-0.0938975
2.91048
-0.12804
3.27079
-0.176794
3.62754
-0.23449
3.31136
-0.296279
2.50145
-0.484018
2.03738
-1.04614
2.37612
-1.67863
3.19747
-1.95343
3.21453
-2.10016
2.79619
-2.2139
2.33475
-2.30742
1.92727
1.58561
-2.36902
-0.00350811
0.358869
-0.00995508
0.90613
-0.0174888
1.32705
-0.0266598
1.65354
-0.0382953
1.96233
-0.0530393
2.26227
-0.0725812
2.58376
-0.0988445
2.93674
-0.135121
3.30707
-0.187549
3.67997
-0.250419
3.37423
-0.33583
2.58686
-0.617372
2.31892
-1.26395
3.0227
-1.7525
3.68603
-1.95946
3.42148
-2.09913
2.93586
-2.22277
2.45839
-2.33306
2.03755
1.64416
-2.39161
-0.00343012
0.362299
-0.00990772
0.912608
-0.0181177
1.33526
-0.0280372
1.66346
-0.0402887
1.97459
-0.0556708
2.27765
-0.0760705
2.60416
-0.103509
2.96418
-0.141654
3.34521
-0.197385
3.7357
-0.26521
3.44205
-0.38929
2.71094
-0.775307
2.70493
-1.41032
3.65771
-1.76251
4.03822
-1.93523
3.5942
-2.03696
3.03759
-2.12536
2.54679
-2.19239
2.10459
1.63688
-2.1851
-0.00344124
0.36574
-0.0105626
0.919729
-0.0190173
1.34371
-0.0292568
1.6737
-0.0420909
1.98742
-0.0583086
2.29387
-0.0797606
2.62562
-0.108695
2.99312
-0.148901
3.38542
-0.206259
3.79306
-0.284489
3.52028
-0.454231
2.88068
-0.906645
3.15735
-1.46255
4.21361
-1.72399
4.29966
-1.8754
3.74562
-1.96852
3.13071
-1.96971
2.54797
-1.90033
2.03521
1.60085
-1.86431
-0.00318568
0.368926
-0.0100973
0.926641
-0.0193076
1.35292
-0.0303652
1.68476
-0.0437546
2.00081
-0.0603454
2.31046
-0.0821435
2.64741
-0.111319
3.02229
-0.151754
3.42586
-0.208859
3.85017
-0.294672
3.6061
-0.498823
3.08483
-0.988578
3.6471
-1.42944
4.65448
-1.59425
4.46447
-1.66119
3.81256
-1.66552
3.13504
-1.51775
2.40021
-1.01766
1.53512
0.583192
-0.00278569
0.371712
-0.010601
0.934456
-0.0199799
1.3623
-0.0313842
1.69617
-0.0456938
2.01512
-0.0637535
2.32852
-0.0875772
2.67124
-0.119688
3.0544
-0.164309
3.47048
-0.227719
3.91357
-0.330204
3.70858
-0.584502
3.33913
-1.12419
4.18679
-1.48231
5.0126
-1.58139
4.56354
-1.57907
3.81025
-1.47515
3.03112
-1.23621
2.16126
-0.632042
0.930953
-0.0488497
-0.00241445
0.374126
-0.00931772
0.941359
-0.0195822
1.37257
-0.032252
1.70884
-0.0476997
2.03057
-0.0669672
2.34779
-0.0925328
2.6968
-0.127096
3.08897
-0.175839
3.51922
-0.245722
3.98346
-0.368644
3.8315
-0.682865
3.65335
-1.24254
4.74646
-1.50287
5.27292
-1.56103
4.6217
-1.53882
3.78804
-1.33692
2.82923
-0.783124
1.60746
-0.10887
0.2567
-0.15772
-0.001732
0.375858
-0.00944553
0.949073
-0.0195353
1.38265
-0.0322728
1.72157
-0.0484578
2.04675
-0.0691956
2.36853
-0.0968721
2.72448
-0.134598
3.12669
-0.187265
3.57189
-0.264835
4.06103
-0.412837
3.97951
-0.785372
4.02589
-1.32085
5.28194
-1.49693
5.449
-1.52816
4.65294
-1.43998
3.69985
-1.10222
2.49147
-0.313295
0.81854
0.024897
-0.0814917
-0.132823
-0.000526659
0.376385
-0.0066221
0.955168
-0.017576
1.39361
-0.0317978
1.73579
-0.0491446
2.0641
-0.07098
2.39036
-0.100249
2.75375
-0.140076
3.16652
-0.195534
3.62735
-0.281845
4.14734
-0.457093
4.15475
-0.895301
4.4641
-1.36615
5.7528
-1.48234
5.56518
-1.48494
4.65554
-1.25981
3.47472
-0.686654
1.91832
-0.0625516
0.194438
0.0304143
-0.174458
-0.102409
0.00017762
0.376207
-0.00557778
0.960924
-0.0158904
1.40392
-0.0297799
1.74968
-0.0473658
2.08168
-0.0705506
2.41355
-0.101769
2.78497
-0.144387
3.20914
-0.203097
3.68606
-0.298492
4.24273
-0.499165
4.35543
-0.987392
4.95232
-1.36143
6.12683
-1.42577
5.62952
-1.37918
4.60895
-1.09038
3.18592
-0.322661
1.15059
0.00515913
-0.133383
0.0152749
-0.184573
-0.087134
0.00330099
0.372906
0.000356463
0.963868
-0.0110274
1.41531
-0.026602
1.76526
-0.0451341
2.10022
-0.0692261
2.43764
-0.101511
2.81725
-0.145379
3.253
-0.206579
3.74726
-0.309993
4.34615
-0.537313
4.58275
-1.05024
5.46525
-1.32588
6.40247
-1.36613
5.66978
-1.22589
4.46871
-0.772541
2.73257
-0.069113
0.447166
0.0449127
-0.247408
0.0245484
-0.164209
-0.0625856
0.00461439
0.368292
0.00272875
0.965754
-0.0069424
1.42498
-0.0207108
1.77903
-0.0386404
2.11815
-0.0636852
2.46268
-0.0973357
2.8509
-0.143402
3.29907
-0.207384
3.81124
-0.318974
4.45774
-0.576363
4.84014
-1.07168
5.96057
-1.26115
6.59194
-1.27075
5.67938
-1.05167
4.24962
-0.460388
2.14129
-0.0177564
0.00453457
-0.00593515
-0.25923
0.00535374
-0.175498
-0.0572318
0.00866871
0.359623
0.00994825
0.964474
0.00228336
1.43264
-0.0122656
1.79358
-0.0312505
2.13713
-0.0565484
2.48798
-0.0901663
2.88452
-0.135752
3.34466
-0.200947
3.87643
-0.318207
4.575
-0.596509
5.11844
-1.04797
6.41203
-1.17251
6.71648
-1.15777
5.66464
-0.897016
3.98887
-0.263787
1.50806
-0.0708461
-0.188406
-0.0387893
-0.291287
-0.0139346
-0.200353
-0.0711664
0.0116209
0.348002
0.0164523
0.959643
0.0116245
1.43747
0.00125751
1.80394
-0.0172663
2.15565
-0.0419656
2.51268
-0.0755622
2.91812
-0.122076
3.39117
-0.188285
3.94264
-0.310103
4.69682
-0.597098
5.40543
-0.984358
6.79929
-1.04921
6.78133
-0.978113
5.59354
-0.678978
3.68973
-0.0743021
0.903388
0.0129686
-0.275677
-0.00199288
-0.276325
-0.00234205
-0.200003
-0.0735085
0.0184996
0.329502
0.030057
0.948086
0.0282701
1.43926
0.0166236
1.81559
-0.00164382
2.17392
-0.0242996
2.53534
-0.0561839
2.95
-0.100067
3.43505
-0.163937
4.00651
-0.284156
4.81703
-0.561792
5.68307
-0.870005
7.10751
-0.904429
6.81576
-0.806994
5.4961
-0.450397
3.33314
0.0628168
0.390174
0.0732106
-0.28607
0.0540512
-0.257166
0.0206045
-0.166557
-0.052904
0.0244702
0.305032
0.042857
0.929699
0.0462267
1.43589
0.0397036
1.82211
0.0271837
2.18644
0.00556779
2.55695
-0.0243562
2.97993
-0.06638
3.47708
-0.127662
4.06779
-0.243107
4.93248
-0.490725
5.93069
-0.712264
7.32905
-0.743872
6.84737
-0.633716
5.38595
-0.306853
3.00627
-0.00463971
0.0879604
0.0159153
-0.306625
0.0314154
-0.272666
0.0165755
-0.151717
-0.0363285
0.0350921
0.26994
0.065112
0.899679
0.0755351
1.42546
0.0713592
1.82629
0.0600518
2.19775
0.0410424
2.57596
0.0146312
3.00634
-0.0222299
3.51394
-0.0759891
4.12155
-0.173463
5.02995
-0.373089
6.13031
-0.527717
7.48367
-0.551109
6.87076
-0.459655
5.29449
-0.181769
2.72839
-0.0622965
-0.0315118
-0.0450369
-0.323885
-0.0160163
-0.301686
-0.00170364
-0.166029
-0.0380322
0.044561
0.225379
0.0872992
0.856941
0.10784
1.40492
0.112741
1.82139
0.108685
2.2018
0.0947831
2.58986
0.0740807
3.02704
0.0426839
3.54534
-0.00717721
4.17141
-0.0802466
5.10302
-0.215539
6.2656
-0.303009
7.57114
-0.321643
6.88939
-0.261221
5.23407
-0.0486063
2.51577
-0.0757601
-0.00435807
-0.0752887
-0.324356
-0.0345476
-0.342427
0.0110862
-0.211663
-0.026946
0.0575796
0.1678
0.120002
0.794518
0.155914
1.36901
0.167287
1.81001
0.16682
2.20227
0.157038
2.59965
0.143248
3.04083
0.122961
3.56562
0.0912284
4.20315
0.047858
5.14639
0.00110218
6.31236
-0.0356715
7.60792
-0.0369073
6.89063
-0.0440246
5.24119
-0.0342139
2.50596
-0.236326
0.197754
-0.227479
-0.333203
-0.126462
-0.443445
0.00253158
-0.340657
-0.0244144
0.0600146
0.107785
0.150087
0.704445
0.206804
1.31229
0.234115
1.7827
0.245893
2.19049
0.245341
2.6002
0.240046
3.04612
0.229387
3.57628
0.214742
4.21779
0.197823
5.16331
0.26158
6.2486
0.316718
7.55278
0.282161
6.92519
0.0899145
5.43344
-0.243569
2.83945
-0.58672
0.540905
-0.583629
-0.336293
-0.430699
-0.596375
-0.193395
-0.57796
-0.21781
0.0505617
0.0572232
0.182592
0.572415
0.276673
1.21821
0.32074
1.73864
0.339955
2.17128
0.34759
2.59256
0.349212
3.0445
0.354544
3.57095
0.364267
4.20807
0.390784
5.1368
0.548317
6.09107
0.720534
7.38056
0.735099
6.91062
0.627976
5.54056
0.153071
3.31435
-0.402634
1.09661
-0.687649
-0.0512778
-0.604414
-0.67961
-0.331259
-0.851116
-0.549069
0.0349589
0.0222643
0.21709
0.390284
0.342777
1.09253
0.419635
1.66178
0.460368
2.13055
0.483816
2.56912
0.4938
3.03452
0.511072
3.55368
0.543522
4.17562
0.613228
5.06709
0.901016
5.80328
1.33546
6.94612
1.65655
6.58953
1.87369
5.32342
1.53156
3.65649
0.820069
1.8081
0.223626
0.545166
-0.109427
-0.346557
-0.178131
-0.782411
-0.7272
0.0311023
-0.00883799
0.235873
0.185513
0.440279
0.888121
0.551455
1.5506
0.602336
2.07966
0.635594
2.53586
0.657525
3.01258
0.687946
3.52326
0.748369
4.1152
0.877928
4.93753
1.26794
5.41327
1.97341
6.24065
2.34861
6.21433
2.56085
5.11117
2.40926
3.80807
1.83488
2.38249
1.27178
1.10826
0.664865
0.260359
0.224637
-0.342183
-0.502563
0.0270493
-0.0358873
0.167661
0.0449016
0.488023
0.567759
0.677874
1.36075
0.77491
1.98263
0.825529
2.48524
0.862418
2.9757
0.891064
3.49461
0.96654
4.03972
1.11204
4.79203
1.49318
5.03213
2.27889
5.45494
2.65141
5.84181
2.84381
4.91877
2.74102
3.91086
2.25773
2.86578
1.60852
1.75747
0.996014
0.872865
0.436129
0.217702
-0.0664337
0.00683018
-0.0427175
0.0868184
-0.0350867
0.412582
0.241996
0.692276
1.08106
0.820579
1.85432
0.858643
2.44718
0.870719
2.96362
0.858987
3.50634
0.856963
4.04174
0.900192
4.7488
1.03969
4.89264
1.45852
5.03611
1.63787
5.66246
1.66251
4.89413
1.5834
3.98997
1.36601
3.08316
1.00624
2.11725
0.638877
1.24023
0.260177
0.596402
0.193743
0.00170194
-0.0444194
0.0418407
-0.0752254
0.226516
0.057321
0.520363
0.78721
0.685779
1.68891
0.738959
2.394
0.751641
2.95094
0.746716
3.51127
0.730919
4.05754
0.751227
4.72849
0.813529
4.83033
1.08006
4.76958
1.28782
5.4547
1.29212
4.88984
1.23033
4.05176
1.07742
3.23607
0.803131
2.39154
0.501772
1.54159
0.210096
0.888077
0.403839
0.0017818
-0.0462012
0.0233683
-0.0968119
0.101889
-0.0211996
0.360365
0.528733
0.532653
1.51662
0.612151
2.3145
0.631214
2.93187
0.630464
3.51202
0.605422
4.08258
0.597459
4.73646
0.624512
4.80328
0.783725
4.61037
0.965802
5.27262
0.961158
4.89448
0.899963
4.11296
0.783682
3.35235
0.594165
2.58106
0.364217
1.77153
0.143904
1.10839
0.547743
-0.0104164
-0.0357848
-0.00584321
-0.101385
0.035287
-0.0623298
0.245172
0.318849
0.403608
1.35818
0.476479
2.24163
0.496493
2.91186
0.501143
3.50737
0.484602
4.09912
0.469182
4.75188
0.471292
4.80117
0.566826
4.51483
0.699178
5.14027
0.695304
4.89836
0.631888
4.17637
0.537499
3.44673
0.404317
2.71424
0.238526
1.93733
0.0841571
1.26276
0.6319
0.00455106
-0.0403359
0.0354579
-0.132292
0.0753607
-0.102233
0.193254
0.200955
0.314504
1.23693
0.364324
2.19181
0.373271
2.90292
0.376584
3.50405
0.369445
4.10626
0.357463
4.76386
0.347655
4.81098
0.39736
4.46513
0.487549
5.05008
0.48263
4.90327
0.426664
4.23234
0.35446
3.51894
0.259709