/*--------------------------------*- C++ -*----------------------------------*\
  =========                 |
  \\      /  F ield         | OpenFOAM: The Open Source CFD Toolbox
   \\    /   O peration     | Website:  https://openfoam.org
    \\  /    A nd           | Version:  10
     \\/     M anipulation  |
\*---------------------------------------------------------------------------*/
FoamFile
{
    format      ascii;
    class       volVectorField;
    location    "56";
    object      U;
}
// * * * * * * * * * * * * * * * * * * * * * * * * * * * * * * * * * * * * * //

dimensions      [0 1 -1 0 0 0 0];

internalField   nonuniform List<vector> 
2200
(
(0.878849 -0.0304124 0)
(1.00579 -0.0512832 0)
(1.0033 -0.0353911 0)
(1.00031 -0.0244496 0)
(0.999887 -0.0166836 0)
(0.999996 -0.0107486 0)
(1.00003 -0.00685545 0)
(1.00003 -0.00420326 0)
(1.00001 -0.00219913 0)
(1.00018 -0.000672308 0)
(0.999994 0.00108054 0)
(0.99989 0.00254843 0)
(1.0001 0.00446377 0)
(1.00011 0.00703089 0)
(1.00008 0.0108119 0)
(1.00006 0.0166504 0)
(1.00039 0.0243784 0)
(1.0035 0.0348854 0)
(1.00599 0.0513758 0)
(0.87905 0.0303029 0)
(0.71199 -0.0327657 0)
(0.996635 -0.0630155 0)
(1.03328 -0.0561845 0)
(1.0248 -0.0464205 0)
(1.01583 -0.0361181 0)
(1.00969 -0.0263901 0)
(1.00592 -0.0181483 0)
(1.00375 -0.0114431 0)
(1.00256 -0.00610048 0)
(1.00207 -0.00161247 0)
(1.00214 0.0025718 0)
(1.00255 0.00710691 0)
(1.00349 0.0123874 0)
(1.00564 0.0190005 0)
(1.00943 0.0272283 0)
(1.01547 0.0369669 0)
(1.02456 0.0474368 0)
(1.03313 0.0579385 0)
(0.996696 0.0631448 0)
(0.711767 0.0330283 0)
(0.535574 -0.0238887 0)
(0.96991 -0.0569292 0)
(1.05646 -0.0546875 0)
(1.05234 -0.0487541 0)
(1.0363 -0.040405 0)
(1.02443 -0.0322355 0)
(1.0159 -0.0239649 0)
(1.01039 -0.0160978 0)
(1.00717 -0.0087693 0)
(1.00566 -0.00210285 0)
(1.00555 0.00424634 0)
(1.007 0.0106621 0)
(1.01032 0.0177483 0)
(1.01567 0.0253913 0)
(1.02415 0.0334142 0)
(1.03622 0.0413705 0)
(1.05227 0.0493766 0)
(1.05633 0.0533115 0)
(0.96922 0.0576265 0)
(0.534421 0.0239327 0)
(0.392266 -0.0136625 0)
(0.911728 -0.0464138 0)
(1.05747 -0.0469952 0)
(1.06942 -0.0443431 0)
(1.05483 -0.0382382 0)
(1.03935 -0.0315476 0)
(1.02758 -0.0247672 0)
(1.01911 -0.0175148 0)
(1.01374 -0.0100741 0)
(1.01108 -0.00254006 0)
(1.01084 0.00498335 0)
(1.01319 0.0125353 0)
(1.01822 0.019782 0)
(1.02666 0.0266572 0)
(1.0384 0.0330632 0)
(1.05387 0.0395174 0)
(1.0681 0.0456127 0)
(1.05551 0.0483009 0)
(0.909903 0.0469864 0)
(0.389964 0.0137764 0)
(0.307664 -0.00450921 0)
(0.846771 -0.032372 0)
(1.0495 -0.0399032 0)
(1.07955 -0.03814 0)
(1.06826 -0.0334918 0)
(1.05168 -0.02791 0)
(1.03828 -0.0225152 0)
(1.02805 -0.0165086 0)
(1.02096 -0.00955779 0)
(1.01718 -0.00186605 0)
(1.01712 0.00598004 0)
(1.02067 0.0131892 0)
(1.02748 0.0196522 0)
(1.03732 0.0253487 0)
(1.05037 0.0303302 0)
(1.06679 0.0356427 0)
(1.07785 0.0399615 0)
(1.04744 0.0416836 0)
(0.843105 0.0329384 0)
(0.30385 0.00472815 0)
(0.264211 0.000102355 0)
(0.788877 -0.0200734 0)
(1.03325 -0.0314818 0)
(1.08345 -0.0320747 0)
(1.07724 -0.028813 0)
(1.06082 -0.0238829 0)
(1.04722 -0.0194056 0)
(1.03638 -0.0142866 0)
(1.02859 -0.0082887 0)
(1.02408 -0.00137207 0)
(1.02344 0.00590588 0)
(1.02711 0.0127329 0)
(1.03444 0.01837 0)
(1.04508 0.0229561 0)
(1.05856 0.0269734 0)
(1.07482 0.0314343 0)
(1.08031 0.0342183 0)
(1.02913 0.0332762 0)
(0.782712 0.0207253 0)
(0.258873 0.000114566 0)
(0.240287 0.00106284 0)
(0.738326 -0.0123095 0)
(1.0137 -0.025022 0)
(1.08411 -0.026824 0)
(1.08307 -0.0245359 0)
(1.06783 -0.0204204 0)
(1.05424 -0.0163836 0)
(1.04335 -0.0118861 0)
(1.03515 -0.00647844 0)
(1.03025 -5.28962e-05 0)
(1.03007 0.00673471 0)
(1.03428 0.0125404 0)
(1.04167 0.0172778 0)
(1.05194 0.0212227 0)
(1.06503 0.0245573 0)
(1.07969 0.027993 0)
(1.08014 0.029549 0)
(1.00789 0.0271762 0)
(0.729228 0.0131162 0)
(0.233311 -0.000843994 0)
(0.225894 0.000958871 0)
(0.695303 -0.00805054 0)
(0.99291 -0.020771 0)
(1.08211 -0.0231576 0)
(1.08679 -0.0213094 0)
(1.07336 -0.0177613 0)
(1.05992 -0.0140032 0)
(1.04931 -0.00967546 0)
(1.04138 -0.00470682 0)
(1.03646 0.000916934 0)
(1.03535 0.00670739 0)
(1.0388 0.0121267 0)
(1.0459 0.0164617 0)
(1.0559 0.0199255 0)
(1.06918 0.0229967 0)
(1.08196 0.025767 0)
(1.0756 0.026718 0)
(0.983349 0.0233818 0)
(0.682105 0.00910074 0)
(0.216886 -0.000715618 0)
(0.21632 0.000620417 0)
(0.659909 -0.00569203 0)
(0.972455 -0.0176582 0)
(1.07948 -0.0202749 0)
(1.09018 -0.0187223 0)
(1.07815 -0.015605 0)
(1.0648 -0.0119464 0)
(1.05433 -0.00780055 0)
(1.04638 -0.00301874 0)
(1.04125 0.00240532 0)
(1.04071 0.00797789 0)
(1.0443 0.0125856 0)
(1.05087 0.0163537 0)
(1.06026 0.0195464 0)
(1.07279 0.0221676 0)
(1.08362 0.0243195 0)
(1.07132 0.0248505 0)
(0.95981 0.0209073 0)
(0.642349 0.00703273 0)
(0.204901 -0.00034296 0)
(0.209055 0.0002902 0)
(0.631183 -0.00424969 0)
(0.953408 -0.0150942 0)
(1.07621 -0.0180371 0)
(1.09323 -0.016689 0)
(1.08282 -0.0137339 0)
(1.06937 -0.0101637 0)
(1.05894 -0.00607729 0)
(1.05122 -0.00138804 0)
(1.04634 0.00360547 0)
(1.0447 0.00843786 0)
(1.04721 0.0130272 0)
(1.05332 0.0166895 0)
(1.06264 0.019502 0)
(1.07556 0.0219443 0)
(1.08455 0.0237339 0)
(1.06409 0.0236921 0)
(0.934824 0.0190076 0)
(0.607399 0.00587774 0)
(0.194488 3.00923e-05 0)
(0.20319 8.04775e-05 0)
(0.607848 -0.00317077 0)
(0.935495 -0.012618 0)
(1.07325 -0.0156821 0)
(1.09666 -0.0145519 0)
(1.08756 -0.0118161 0)
(1.07406 -0.0082719 0)
(1.06335 -0.00431415 0)
(1.05525 0.000258591 0)
(1.0498 0.00534109 0)
(1.04856 0.0103569 0)
(1.05139 0.014329 0)
(1.05721 0.0174037 0)
(1.06614 0.0200735 0)
(1.07824 0.0221692 0)
(1.08506 0.0233907 0)
(1.05767 0.0228252 0)
(0.911511 0.0174497 0)
(0.577522 0.0052184 0)
(0.185024 0.000314089 0)
(0.198553 5.17364e-08 0)
(0.589481 -0.00232264 0)
(0.919836 -0.0103199 0)
(1.06998 -0.0135929 0)
(1.09985 -0.0125841 0)
(1.09236 -0.00986556 0)
(1.07867 -0.00631906 0)
(1.06773 -0.00236986 0)
(1.05951 0.00213876 0)
(1.0541 0.00692784 0)
(1.05172 0.0115783 0)
(1.0532 0.0155004 0)
(1.05874 0.0186478 0)
(1.06792 0.0207451 0)
(1.08044 0.0225511 0)
(1.08482 0.0234076 0)
(1.04856 0.0221647 0)
(0.886905 0.0161621 0)
(0.55004 0.00480018 0)
(0.175675 0.000475403 0)
(0.194952 2.57773e-05 0)
(0.574745 -0.00157559 0)
(0.905265 -0.00815505 0)
(1.06724 -0.0110974 0)
(1.10338 -0.0100653 0)
(1.09724 -0.00745723 0)
(1.08355 -0.00395027 0)
(1.07213 3.10311e-06 0)
(1.06322 0.00456841 0)
(1.05678 0.00956763 0)
(1.05441 0.0141604 0)
(1.05669 0.0178355 0)
(1.06216 0.020071 0)
(1.07091 0.0220202 0)
(1.082 0.0233434 0)
(1.08409 0.023726 0)
(1.03972 0.0220139 0)
(0.863527 0.015283 0)
(0.525447 0.00462555 0)
(0.16675 0.000567215 0)
(0.192766 5.78351e-05 0)
(0.564055 -0.000820002 0)
(0.893848 -0.00601042 0)
(1.06468 -0.00891695 0)
(1.10682 -0.0077377 0)
(1.10236 -0.00489042 0)
(1.08868 -0.00122949 0)
(1.07708 0.00266631 0)
(1.06795 0.00709384 0)
(1.06145 0.0117797 0)
(1.05804 0.0162794 0)
(1.05828 0.0194422 0)
(1.06301 0.021999 0)
(1.07192 0.0232759 0)
(1.08306 0.0241649 0)
(1.08241 0.0242205 0)
(1.02795 0.0219038 0)
(0.838415 0.0146523 0)
(0.501421 0.00452962 0)
(0.157666 0.0006033 0)
(0.191826 9.79412e-05 0)
(0.556494 -0.000238893 0)
(0.883411 -0.00402556 0)
(1.06305 -0.00615572 0)
(1.11084 -0.00473446 0)
(1.10762 -0.00178328 0)
(1.09389 0.0019657 0)
(1.08166 0.00613537 0)
(1.07153 0.0108046 0)
(1.06359 0.015708 0)
(1.05969 0.0198242 0)
(1.06106 0.0228701 0)
(1.0661 0.0241121 0)
(1.07439 0.0252892 0)
(1.08316 0.0258343 0)
(1.07966 0.0253401 0)
(1.01657 0.0223439 0)
(0.814362 0.0144126 0)
(0.479076 0.00454432 0)
(0.148897 0.000622312 0)
(0.192357 9.17454e-05 0)
(0.552038 0.000792362 0)
(0.877053 -0.00160595 0)
(1.06219 -0.00353584 0)
(1.11501 -0.00172936 0)
(1.11329 0.0016128 0)
(1.09954 0.0057855 0)
(1.08711 0.0100053 0)
(1.07679 0.014567 0)
(1.06867 0.0190672 0)
(1.06359 0.0230639 0)
(1.06239 0.0254373 0)
(1.06571 0.0270777 0)
(1.07405 0.0275752 0)
(1.08303 0.0277175 0)
(1.07551 0.0268575 0)
(1.00152 0.0231105 0)
(0.787677 0.0144793 0)
(0.455903 0.00467743 0)
(0.139661 0.000649729 0)
(0.194341 0.000209521 0)
(0.552203 0.00149009 0)
(0.872054 0.000397113 0)
(1.06289 -0.000212136 0)
(1.12019 0.00194558 0)
(1.11949 0.0055078 0)
(1.10544 0.00984098 0)
(1.09208 0.0146095 0)
(1.08049 0.0196728 0)
(1.07079 0.0246878 0)
(1.06488 0.0282891 0)
(1.06432 0.0302365 0)
(1.06853 0.0311057 0)
(1.0759 0.0312997 0)
(1.08163 0.0306585 0)
(1.07043 0.0290199 0)
(0.986828 0.0243705 0)
(0.761849 0.0148902 0)
(0.433545 0.00492015 0)
(0.130454 0.000677391 0)
(0.198376 0.00065284 0)
(0.554733 0.0022756 0)
(0.872196 0.00324972 0)
(1.06517 0.00307046 0)
(1.12596 0.00581698 0)
(1.12645 0.0097948 0)
(1.11223 0.014757 0)
(1.09861 0.0198003 0)
(1.08679 0.0250147 0)
(1.07644 0.0297183 0)
(1.06881 0.0332543 0)
(1.06536 0.0350771 0)
(1.06634 0.0353088 0)
(1.07353 0.0347049 0)
(1.07987 0.0341097 0)
(1.06321 0.031749 0)
(0.967415 0.0260171 0)
(0.732233 0.0156906 0)
(0.408964 0.00527486 0)
(0.120297 0.0007157 0)
(0.204647 0.000866262 0)
(0.561212 0.00338701 0)
(0.875758 0.00572104 0)
(1.06965 0.0072918 0)
(1.13267 0.0106817 0)
(1.13395 0.0152124 0)
(1.11914 0.0205369 0)
(1.10413 0.0263096 0)
(1.09026 0.032256 0)
(1.07766 0.0376466 0)
(1.06881 0.0409985 0)
(1.06592 0.0417704 0)
(1.06842 0.0415147 0)
(1.07453 0.0408306 0)
(1.07605 0.0386078 0)
(1.05466 0.0351589 0)
(0.94822 0.0283176 0)
(0.702806 0.0168105 0)
(0.384272 0.0057238 0)
(0.109861 0.000754388 0)
(0.212998 0.00104815 0)
(0.572435 0.00471334 0)
(0.88383 0.00883691 0)
(1.0769 0.0118915 0)
(1.14066 0.016384 0)
(1.14253 0.0214666 0)
(1.12704 0.0276917 0)
(1.11143 0.0339603 0)
(1.09702 0.0401676 0)
(1.08342 0.0453525 0)
(1.0722 0.0480563 0)
(1.06567 0.0489036 0)
(1.06453 0.0480344 0)
(1.0694 0.0458553 0)
(1.07222 0.0438924 0)
(1.04322 0.0395217 0)
(0.922942 0.0310157 0)
(0.668038 0.01829 0)
(0.356049 0.00624492 0)
(0.0980751 0.000789803 0)
(0.225164 0.0013828 0)
(0.590297 0.00665455 0)
(0.898233 0.0131412 0)
(1.08745 0.0181028 0)
(1.15044 0.0235303 0)
(1.15243 0.0297265 0)
(1.13598 0.0368409 0)
(1.11846 0.0439958 0)
(1.10107 0.0509102 0)
(1.08386 0.0564195 0)
(1.07073 0.0592461 0)
(1.06491 0.0584274 0)
(1.06514 0.0566681 0)
(1.06909 0.0541016 0)
(1.06499 0.0503723 0)
(1.02965 0.0444642 0)
(0.897093 0.0345011 0)
(0.63255 0.0200607 0)
(0.326893 0.00681497 0)
(0.0858388 0.000822923 0)
(0.240804 0.00192907 0)
(0.613714 0.0084633 0)
(0.919063 0.0177854 0)
(1.10259 0.0250324 0)
(1.1627 0.0321853 0)
(1.16423 0.0393962 0)
(1.14593 0.0477797 0)
(1.12652 0.0556346 0)
(1.10739 0.0627765 0)
(1.08882 0.0680759 0)
(1.0729 0.0697972 0)
(1.06318 0.068841 0)
(1.05923 0.0657268 0)
(1.06081 0.0616813 0)
(1.05821 0.0576905 0)
(1.01252 0.0504719 0)
(0.863391 0.0382136 0)
(0.589905 0.0220151 0)
(0.293147 0.00735651 0)
(0.0720828 0.000831347 0)
(0.262477 0.00278369 0)
(0.646192 0.0122 0)
(0.947662 0.0245082 0)
(1.12203 0.0345511 0)
(1.17754 0.0429793 0)
(1.1778 0.0524698 0)
(1.15715 0.0621254 0)
(1.13494 0.0712036 0)
(1.11223 0.0790432 0)
(1.08911 0.084084 0)
(1.07007 0.0846301 0)
(1.06002 0.081478 0)
(1.05776 0.0772985 0)
(1.05893 0.0728221 0)
(1.04695 0.0665332 0)
(0.991762 0.057265 0)
(0.828269 0.0429385 0)
(0.54574 0.0242011 0)
(0.258208 0.00788764 0)
(0.0580668 0.000814982 0)
(0.293577 0.00367589 0)
(0.691143 0.0154299 0)
(0.986127 0.0328272 0)
(1.1481 0.0464812 0)
(1.19604 0.0577401 0)
(1.19372 0.0690387 0)
(1.16928 0.0802845 0)
(1.14352 0.0897596 0)
(1.11745 0.0969442 0)
(1.09171 0.100412 0)
(1.06998 0.0998764 0)
(1.05624 0.0959527 0)
(1.04906 0.0902587 0)
(1.04676 0.0831174 0)
(1.03511 0.0762106 0)
(0.966303 0.0650896 0)
(0.78234 0.0472481 0)
(0.49167 0.0262165 0)
(0.217629 0.00817951 0)
(0.0425706 0.000721669 0)
(0.329889 0.00707595 0)
(0.74932 0.0246436 0)
(1.03576 0.0465814 0)
(1.18024 0.0643942 0)
(1.2184 0.0771086 0)
(1.21187 0.0914482 0)
(1.18287 0.103422 0)
(1.15315 0.11312 0)
(1.12311 0.120132 0)
(1.09315 0.123096 0)
(1.06711 0.119793 0)
(1.05125 0.112652 0)
(1.04506 0.104757 0)
(1.04212 0.0976659 0)
(1.01817 0.0876114 0)
(0.934909 0.0730831 0)
(0.734411 0.0527561 0)
(0.437437 0.0284418 0)
(0.177312 0.00826166 0)
(0.028267 0.000610708 0)
(0.409651 0.010607 0)
(0.836513 0.035695 0)
(1.10092 0.0671016 0)
(1.21987 0.0896585 0)
(1.24469 0.105608 6.31041e-34)
(1.23105 0.121636 -2.844e-34)
(1.19556 0.133728 0)
(1.16061 0.142265 0)
(1.12538 0.146872 0)
(1.09016 0.145725 0)
(1.06113 0.139462 0)
(1.04353 0.131288 0)
(1.03388 0.122099 0)
(1.02526 0.110883 0)
(0.998314 0.099655 0)
(0.897221 0.0823891 0)
(0.671695 0.0569326 0)
(0.367246 0.0291651 0)
(0.12799 0.00785349 0)
(0.0120737 0.000742152 0)
(0.480496 0.0258672 4.66082e-20)
(0.938745 0.0594892 -3.52874e-20)
(1.17214 0.101812 0)
(1.26082 0.128547 2.72941e-20)
(1.27218 0.143767 -2.21344e-20)
(1.2492 0.161822 3.00068e-34)
(1.20679 0.17198 0)
(1.1666 0.178289 1.59855e-20)
(1.1263 0.180517 -5.25044e-20)
(1.08752 0.177748 1.0716e-20)
(1.0558 0.169647 0)
(1.03447 0.15648 -2.71969e-20)
(1.02262 0.143335 -3.26307e-20)
(1.01332 0.132575 5.70986e-20)
(0.966165 0.116608 -4.51024e-20)
(0.837128 0.092299 0)
(0.587157 0.0613499 -1.62517e-20)
(0.286683 0.028843 0)
(0.0776457 0.00750546 -8.96472e-20)
(-0.00497529 0.000539466 1.05652e-19)
(0.516819 0.0534697 -6.10946e-21)
(1.00311 0.102536 1.05456e-19)
(1.22204 0.15177 -5.8653e-21)
(1.29435 0.176118 -6.73079e-20)
(1.29668 0.193415 -4.68945e-20)
(1.26457 0.209648 7.62984e-20)
(1.21576 0.216975 0)
(1.16997 0.220637 0)
(1.12417 0.220138 8.35462e-20)
(1.07911 0.213183 0)
(1.03945 0.198284 9.81962e-20)
(1.01524 0.183799 2.91824e-20)
(1.00279 0.171196 4.51497e-22)
(0.980423 0.15531 -6.21951e-20)
(0.926625 0.136481 0)
(0.78045 0.108454 0)
(0.516933 0.0675606 -2.65173e-19)
(0.228906 0.0288766 6.66627e-19)
(0.0476502 0.00627423 -3.93976e-19)
(-0.015787 -0.00104967 -4.6441e-19)
(0.52462 0.0759966 -5.95143e-20)
(1.04065 0.159386 2.28151e-20)
(1.25876 0.212383 1.24955e-20)
(1.32051 0.235507 1.17369e-19)
(1.31555 0.251162 1.44717e-20)
(1.27615 0.262967 -1.98867e-19)
(1.22177 0.266367 6.78396e-20)
(1.17057 0.266714 0)
(1.11886 0.262495 -1.76605e-19)
(1.0681 0.251753 1.56849e-19)
(1.02821 0.236805 -2.6499e-19)
(1.00167 0.220659 1.24208e-19)
(0.980923 0.203522 -8.05603e-20)
(0.962632 0.186373 1.81538e-19)
(0.894827 0.163984 0)
(0.737502 0.12484 -6.63081e-20)
(0.476819 0.0765214 0)
(0.213719 0.0312926 3.65389e-19)
(0.0429642 0.00663823 -8.6478e-19)
(-0.0179691 -0.00268627 5.42034e-19)
(0.520474 0.107801 1.6308e-19)
(1.06136 0.215991 -7.16849e-20)
(1.28067 0.277295 -1.53386e-20)
(1.33768 0.299869 0)
(1.32783 0.313505 -8.69422e-20)
(1.28314 0.320249 1.07302e-19)
(1.22414 0.318836 -7.25686e-20)
(1.16829 0.314717 0)
(1.11259 0.306454 1.25464e-19)
(1.05865 0.291808 -1.10203e-19)
(1.01196 0.27243 2.29682e-19)
(0.978852 0.251636 0)
(0.959269 0.233026 -1.71233e-19)
(0.926972 0.213395 9.64476e-20)
(0.862565 0.185944 2.43205e-19)
(0.708975 0.145908 -2.13991e-19)
(0.460329 0.0897365 3.39019e-19)
(0.211811 0.0390869 -7.50703e-19)
(0.0472602 0.00833303 4.74503e-19)
(-0.0162584 -0.00337582 -5.93584e-19)
(0.508905 0.131963 -5.4515e-20)
(1.06873 0.269638 3.89014e-20)
(1.29147 0.342966 -5.10438e-20)
(1.34671 0.365518 1.02619e-19)
(1.33341 0.376915 -9.74481e-20)
(1.28509 0.378557 3.38542e-20)
(1.22255 0.372431 3.64583e-21)
(1.16265 0.364126 -1.41962e-19)
(1.10172 0.351419 -1.316e-19)
(1.04118 0.332628 -2.36882e-19)
(0.990225 0.309363 -4.93914e-19)
(0.957616 0.286239 -1.52289e-19)
(0.933401 0.265232 2.25876e-21)
(0.90967 0.244366 -3.30764e-19)
(0.838007 0.216629 -5.60495e-21)
(0.68619 0.166613 3.11651e-19)
(0.451291 0.104074 -9.38662e-20)
(0.217298 0.0483215 -5.43329e-20)
(0.0571197 0.0117233 0)
(-0.0115801 -0.00317549 1.2628e-18)
(0.49273 0.152833 0)
(1.06447 0.319721 -2.71835e-21)
(1.29409 0.406328 -8.26188e-21)
(1.34901 0.429469 -1.28387e-20)
(1.33326 0.439765 9.3916e-20)
(1.28236 0.437041 -7.9056e-20)
(1.21682 0.426554 7.91733e-20)
(1.1534 0.41391 2.33167e-19)
(1.08915 0.397061 -7.32937e-20)
(1.02704 0.37422 1.17094e-19)
(0.974478 0.347096 2.65523e-19)
(0.936052 0.320574 3.32039e-19)
(0.909701 0.298484 -2.00067e-19)
(0.874372 0.273349 3.58217e-19)
(0.808828 0.240266 -2.83939e-19)
(0.666824 0.191481 0)
(0.44748 0.122829 -7.1272e-19)
(0.228613 0.061026 9.5925e-19)
(0.0712973 0.0182023 7.16064e-20)
(-0.00469046 -0.00177108 -1.33616e-18)
(0.477761 0.172767 -5.08088e-21)
(1.05554 0.367177 -3.95326e-21)
(1.29092 0.466784 6.00716e-20)
(1.34632 0.491317 -8.24636e-20)
(1.32841 0.50054 7.8339e-20)
(1.27554 0.493842 -7.64675e-20)
(1.20795 0.479484 1.56847e-19)
(1.14228 0.462972 -6.9883e-20)
(1.07527 0.441717 -2.95543e-19)
(1.00891 0.414409 -1.73353e-22)
(0.950787 0.382695 -2.88837e-19)
(0.910272 0.35437 -3.57425e-19)
(0.882888 0.328874 2.21072e-19)
(0.855969 0.304912 -1.2894e-19)
(0.787056 0.272253 3.08902e-19)
(0.649449 0.213393 0)
(0.442759 0.142037 -4.42944e-19)
(0.236913 0.0741656 6.54222e-19)
(0.0832679 0.025665 1.23783e-18)
(0.00181863 0.000272554 -1.45583e-18)
(0.463933 0.190576 -6.96605e-20)
(1.04416 0.412334 2.91172e-20)
(1.28422 0.524665 -3.88325e-20)
(1.33963 0.550454 8.52352e-20)
(1.32011 0.559226 1.20457e-20)
(1.26596 0.549057 -1.49818e-19)
(1.19675 0.53111 -9.10818e-20)
(1.12899 0.510755 -8.95296e-20)
(1.05959 0.486056 -1.66928e-19)
(0.990447 0.455433 2.68573e-19)
(0.930583 0.420103 2.91852e-19)
(0.889053 0.388936 5.67148e-19)
(0.858905 0.360929 0)
(0.821208 0.333416 6.49653e-21)
(0.759647 0.294622 -8.49274e-19)
(0.631711 0.239433 1.98858e-19)
(0.438846 0.161489 9.60026e-19)
(0.244336 0.0885848 -2.83316e-19)
(0.0940952 0.0339934 5.8851e-19)
(0.0079034 0.00276396 -4.90548e-20)
(0.453648 0.208453 5.83134e-21)
(1.03173 0.454453 4.95798e-20)
(1.27461 0.57925 -1.49248e-20)
(1.3304 0.606945 9.08077e-20)
(1.30943 0.614843 -1.53634e-19)
(1.25412 0.601499 1.48581e-19)
(1.18368 0.580535 9.42691e-20)
(1.11445 0.557049 2.67384e-19)
(1.04283 0.5288 3.34928e-19)
(0.970799 0.493822 -3.1049e-19)
(0.908917 0.454922 0)
(0.863351 0.419839 -2.14711e-19)
(0.831737 0.3899 2.46513e-19)
(0.804534 0.362616 3.11426e-19)
(0.738731 0.326557 -1.80134e-19)
(0.614305 0.260173 -4.39094e-19)
(0.432177 0.180505 -1.30963e-19)
(0.248405 0.102519 -1.86063e-21)
(0.101748 0.0420317 0)
(0.0125075 0.00517019 0)
(0.445601 0.224606 -7.53173e-20)
(1.02032 0.4952 0)
(1.26376 0.631276 -1.48109e-22)
(1.31896 0.66055 -1.28794e-20)
(1.29682 0.667998 1.75126e-19)
(1.24074 0.651886 -4.43552e-20)
(1.16925 0.62809 9.57946e-20)
(1.09847 0.601495 -1.80888e-19)
(1.02499 0.57036 2.54044e-19)
(0.950969 0.532447 -1.02167e-19)
(0.885711 0.490263 1.6727e-19)
(0.839919 0.451554 6.81099e-19)
(0.809028 0.420603 1.43402e-20)
(0.770686 0.388675 -3.24794e-19)
(0.712149 0.345743 6.02045e-19)
(0.595031 0.284725 3.93224e-21)
(0.424059 0.19807 1.40112e-19)
(0.248251 0.115604 -6.68127e-19)
(0.105408 0.0487962 6.88712e-19)
(0.0155584 0.00720456 -8.11414e-19)
(0.438592 0.242352 2.60666e-23)
(1.00796 0.532642 0)
(1.2514 0.679759 0)
(1.3063 0.711446 -1.54599e-21)
(1.28315 0.717988 -5.16165e-20)
(1.22622 0.699248 6.94156e-20)
(1.15386 0.673108 -1.78125e-19)
(1.08218 0.644097 0)
(1.00724 0.610173 -3.74698e-19)
(0.930895 0.568812 4.4982e-19)
(0.863621 0.523285 4.77338e-19)
(0.815239 0.48166 -2.50055e-19)
(0.78178 0.447294 -3.02832e-19)
(0.753723 0.415078 7.10233e-19)
(0.690758 0.374842 -2.13968e-19)
(0.575759 0.301318 -2.55355e-19)
(0.411628 0.214001 -1.52792e-19)
(0.244204 0.125617 -7.21368e-19)
(0.104943 0.0542035 1.0575e-19)
(0.0169377 0.00841207 8.77565e-19)
(0.434342 0.260414 -3.72638e-20)
(0.997759 0.569581 -4.92876e-20)
(1.2387 0.725911 2.36289e-20)
(1.2925 0.759301 -1.99197e-22)
(1.26847 0.765467 -5.39287e-20)
(1.21099 0.744548 1.11718e-19)
(1.13804 0.716138 0)
(1.0654 0.684638 1.09406e-19)
(0.988974 0.648462 -8.62672e-20)
(0.910749 0.604745 7.50473e-19)
(0.840228 0.555665 -1.08429e-19)
(0.791562 0.510449 1.23884e-19)
(0.758832 0.475386 0)
(0.719823 0.438752 -3.84646e-19)
(0.663247 0.388746 4.66216e-19)
(0.55466 0.321647 0)
(0.399705 0.227224 -3.29141e-19)
(0.237721 0.134713 9.68349e-19)
(0.102179 0.057439 1.14733e-19)
(0.0167959 0.00922815 -1.08028e-18)
(0.431621 0.277403 -9.41636e-20)
(0.987044 0.603296 1.20625e-19)
(1.22532 0.768762 0)
(1.27839 0.804492 1.61682e-20)
(1.25361 0.809925 0)
(1.19559 0.786882 -1.45096e-19)
(1.12217 0.756606 0)
(1.04891 0.723291 0)
(0.97109 0.68502 -1.14349e-19)
(0.890466 0.638798 -7.1342e-19)
(0.818293 0.587164 -8.82145e-19)
(0.765879 0.540406 1.45006e-19)
(0.730032 0.499566 5.23444e-19)
(0.70215 0.460201 4.23831e-19)
(0.641283 0.414087 -1.49583e-18)
(0.534224 0.331905 -5.99435e-19)
(0.384027 0.23809 3.51204e-19)
(0.228499 0.140454 0)
(0.0977185 0.0590905 9.82865e-19)
(0.0157298 0.00948732 -1.16342e-18)
(0.430045 0.293044 1.12704e-19)
(0.978151 0.636604 -1.40328e-19)
(1.21234 0.809547 0)
(1.26395 0.846724 -1.11592e-20)
(1.23846 0.851901 -7.51999e-22)
(1.18006 0.827227 0)
(1.10629 0.795215 5.48448e-20)
(1.03222 0.759941 7.59453e-20)
(0.953083 0.720016 -2.14948e-19)
(0.871058 0.672072 9.44824e-20)
(0.795939 0.617484 0)
(0.742156 0.566589 6.00559e-19)
(0.707178 0.524574 5.46223e-21)
(0.667028 0.480687 2.28663e-19)
(0.613344 0.421141 2.71567e-19)
(0.512359 0.347214 0)
(0.36989 0.245195 -5.72946e-19)
(0.218331 0.143896 1.12309e-18)
(0.0922247 0.0595131 -1.18883e-18)
(0.0142722 0.00926397 2.50515e-18)
(0.428729 0.308036 0)
(0.968552 0.666854 0)
(1.19924 0.847157 -6.85923e-20)
(1.24975 0.886518 0)
(1.22362 0.891148 0)
(1.16483 0.864798 -1.18978e-19)
(1.09079 0.831336 5.61048e-20)
(1.01631 0.794747 1.77002e-20)
(0.936082 0.753315 -4.90827e-20)
(0.851455 0.703605 0)
(0.773562 0.647312 -1.34419e-19)
(0.716247 0.594782 -4.89903e-19)
(0.67667 0.545636 -5.90299e-19)
(0.6479 0.496379 -2.37517e-19)
(0.590292 0.441302 2.94077e-19)
(0.490988 0.350174 -6.93029e-19)
(0.352978 0.24967 1.23297e-18)
(0.208202 0.144531 1.89982e-21)
(0.0868616 0.0590448 -1.1372e-18)
(0.0129369 0.00895772 -1.68922e-19)
(0.427743 0.322539 0)
(0.960758 0.697233 -1.14493e-19)
(1.1869 0.883108 8.39237e-20)
(1.23565 0.923604 0)
(1.20886 0.928034 0)
(1.14977 0.900472 2.37936e-19)
(1.07556 0.865742 0)
(1.00047 0.82766 0)
(0.918972 0.785117 -4.71371e-19)
(0.832688 0.734345 1.30772e-19)
(0.752088 0.675936 -1.1916e-18)
(0.692699 0.619144 0)
(0.652758 0.568235 -6.41384e-19)
(0.610937 0.5137 1.05504e-20)
(0.560209 0.440171 -9.45679e-19)
(0.468484 0.358176 3.72811e-19)
(0.339621 0.248928 1.38721e-21)
(0.199789 0.14199 -1.29246e-18)
(0.0830404 0.0571556 6.1185e-19)
(0.0107561 0.00727301 1.8069e-19)
(0.426715 0.336767 0)
(0.952325 0.724622 -1.58181e-19)
(1.17459 0.916141 8.86062e-20)
(1.22201 0.958547 1.17255e-19)
(1.19464 0.962531 -1.03078e-20)
(1.13528 0.933634 2.37268e-20)
(1.06097 0.897791 -3.30271e-20)
(0.985602 0.858807 4.50118e-19)
(0.903067 0.815204 5.04234e-19)
(0.814315 0.76327 9.95757e-19)
(0.730687 0.704288 9.90059e-19)
(0.666525 0.646155 1.74152e-19)
(0.620708 0.587735 9.22764e-19)
(0.588962 0.524426 5.7047e-19)
(0.534362 0.455083 6.78823e-19)
(0.446387 0.350442 -4.08003e-19)
(0.323107 0.242295 -4.72517e-19)
(0.195731 0.13557 5.54317e-19)
(0.0860859 0.0612475 -3.28901e-19)
(0.0160816 0.0147034 5.85066e-19)
(0.425941 0.350508 2.2255e-19)
(0.945602 0.75229 2.47757e-19)
(1.16309 0.94793 5.14171e-20)
(1.20866 0.991054 1.58928e-20)
(1.18071 0.994817 -5.16476e-22)
(1.12117 0.965018 -6.58958e-20)
(1.04683 0.928301 3.17141e-20)
(0.970965 0.888224 -1.97738e-20)
(0.887263 0.843936 -5.86834e-19)
(0.797117 0.791797 -1.08073e-18)
(0.710569 0.731924 6.87313e-20)
(0.643263 0.669617 0)
(0.595626 0.609521 0)
(0.548284 0.540753 -2.97464e-19)
(0.498906 0.445587 -1.11151e-18)
(0.42118 0.347661 8.7899e-19)
(0.317387 0.223098 5.16733e-19)
(0.20438 0.116463 0)
(0.101157 0.0341458 1.05293e-18)
(0.00994948 -0.0109667 -6.24293e-19)
(0.425076 0.363754 -1.18038e-19)
(0.938089 0.776769 1.044e-19)
(1.15161 0.976933 -1.23587e-19)
(1.19588 1.02167 -1.01114e-19)
(1.16746 1.02504 -1.60732e-20)
(1.10776 0.994171 -2.10716e-20)
(1.03346 0.956618 0)
(0.957425 0.915981 -5.65657e-19)
(0.872876 0.871001 7.1592e-20)
(0.780487 0.818162 0)
(0.690681 0.758172 0)
(0.617813 0.696059 1.11307e-19)
(0.561645 0.629161 1.49778e-19)
(0.521836 0.548518 -3.21413e-19)
(0.466524 0.458057 7.97848e-19)
(0.390419 0.324583 -9.57853e-19)
(0.294413 0.199128 -1.1068e-18)
(0.218366 0.100483 9.80586e-19)
(0.162652 0.0804572 -3.74505e-19)
(0.112532 0.0782012 2.17897e-19)
(0.424359 0.376162 1.47893e-19)
(0.932093 0.801646 0)
(1.14094 1.00499 0)
(1.18347 1.05009 -2.796e-20)
(1.15459 1.05319 2.26361e-20)
(1.09483 1.02165 -2.03663e-20)
(1.02061 0.983544 1.42294e-19)
(0.944196 0.942163 5.78833e-19)
(0.858673 0.896859 1.06462e-18)
(0.765142 0.844402 -8.14223e-20)
(0.672522 0.784902 1.6845e-19)
(0.595834 0.720274 -9.95545e-19)
(0.536576 0.651918 -9.93555e-19)
(0.476035 0.568046 -1.72625e-19)
(0.417185 0.443253 0)
(0.351054 0.3195 -5.92597e-21)
(0.272123 0.128607 6.10359e-19)
(0.25345 -0.00161573 -1.0261e-18)
(0.218174 -0.097712 7.79921e-19)
(0.086598 -0.0973494 6.45984e-19)
(0.423349 0.388238 -3.26687e-19)
(0.925096 0.823253 -1.47337e-19)
(1.13019 1.03045 6.94249e-21)
(1.17155 1.07705 5.79959e-20)
(1.14227 1.07988 0)
(1.08241 1.04755 -6.26946e-20)
(1.00828 1.0089 -2.05384e-19)
(0.931789 0.967348 -2.00558e-21)
(0.845637 0.921818 -5.57771e-19)
(0.750019 0.86912 -7.99128e-20)
(0.654135 0.809895 7.42255e-20)
(0.571298 0.747119 8.74633e-19)
(0.499857 0.674378 9.69416e-19)
(0.443946 0.576414 1.68286e-19)
(0.376826 0.464602 8.59804e-19)
(0.284288 0.286406 0)
(0.161095 0.113508 0)
(-0.00297856 0.192305 7.0424e-19)
(-0.0782988 0.630091 -2.8612e-20)
(0.00819914 1.53991 -8.70112e-19)
(0.422575 0.399564 1.80485e-19)
(0.919651 0.845786 4.13955e-19)
(1.12024 1.05557 -5.69242e-19)
(1.15991 1.10239 2.86759e-19)
(1.13017 1.10514 -8.5e-21)
(1.07022 1.07252 -1.45632e-20)
(0.996173 1.03381 0)
(0.919323 0.992088 -4.82139e-19)
(0.832272 0.946906 0)
(0.735599 0.895428 1.1244e-18)
(0.636749 0.83812 -9.05629e-20)
(0.549412 0.775152 1.01548e-19)
(0.475491 0.703352 1.11206e-18)
(0.389872 0.611134 -3.65322e-19)
(0.285056 0.454526 -4.37076e-19)
(0.19116 0.339716 0)
(0.0820076 0.484797 0)
(0.0253335 1.34345 0)
(0.0718856 2.46727 -3.99884e-19)
(0.0989105 2.91266 -2.46516e-19)
(0.421213 0.410368 0)
(0.913073 0.864816 0)
(1.11016 1.07812 2.07579e-19)
(1.14879 1.12654 -2.33052e-19)
(1.11863 1.12931 1.0491e-19)
(1.05857 1.09627 2.22871e-20)
(0.984601 1.05743 2.66377e-20)
(0.907745 1.01608 -2.07393e-20)
(0.820249 0.971379 7.88148e-20)
(0.72155 0.920457 -1.29042e-18)
(0.619323 0.864074 1.6403e-19)
(0.525902 0.804846 8.75531e-19)
(0.435601 0.733252 -1.10762e-18)
(0.35408 0.622338 -1.21958e-18)
(0.26615 0.513696 4.10134e-19)
(0.186009 0.652642 0)
(0.118334 1.5704 5.64068e-19)
(0.121067 2.69665 6.1455e-19)
(0.128935 3.08908 -6.86871e-19)
(0.12104 3.22274 7.35045e-19)
(0.42017 0.420907 0)
(0.908126 0.885079 3.65312e-19)
(1.10094 1.10059 -5.20364e-20)
(1.138 1.14914 3.25866e-19)
(1.10739 1.15199 -1.1012e-19)
(1.04727 1.119 0)
(0.973405 1.08052 0)
(0.896254 1.03947 0)
(0.807966 0.995701 4.4271e-19)
(0.708527 0.946811 5.94421e-20)
(0.603967 0.893686 0)
(0.506078 0.836025 -8.70433e-19)
(0.419434 0.767714 0)
(0.301635 0.669786 8.72569e-19)
(0.202894 0.727252 -5.89522e-19)
(0.150507 1.46372 -4.73582e-19)
(0.153453 2.68394 -1.10025e-18)
(0.175986 3.12653 -5.79347e-19)
(0.16675 3.26648 -7.83541e-19)
(0.153255 3.3067 5.82119e-19)
(0.418644 0.430403 -1.27582e-19)
(0.901908 0.901566 1.52071e-20)
(1.09154 1.12043 -5.78849e-20)
(1.12776 1.17073 -2.52082e-19)
(1.09674 1.17385 0)
(1.03652 1.14074 0)
(0.962742 1.10242 0)
(0.885651 1.06213 3.37768e-20)
(0.797145 1.01938 -5.59744e-19)
(0.695999 0.971827 0)
(0.588429 0.920446 0)
(0.48701 0.867591 0)
(0.376602 0.79763 0)
(0.307518 0.761716 6.3862e-19)
(0.268955 1.15377 1.56947e-18)
(0.244048 2.39167 4.63136e-19)
(0.259236 3.08259 9.30728e-19)
(0.25386 3.28121 -7.13225e-19)
(0.205313 3.34674 2.62546e-19)
(0.173177 3.35964 0)
(0.417436 0.439723 1.31301e-19)
(0.897272 0.920259 -8.10964e-19)
(1.08285 1.14114 -2.18132e-19)
(1.1176 1.19147 -4.80943e-20)
(1.08616 1.19478 2.56088e-20)
(1.02593 1.16196 -9.36235e-20)
(0.952308 1.12429 -2.10505e-21)
(0.875009 1.08463 -3.73839e-19)
(0.785875 1.04324 0)
(0.684478 0.998327 -7.56096e-20)
(0.575916 0.951127 6.87817e-20)
(0.470653 0.899806 0)
(0.378709 0.844679 0)
(0.320448 0.950894 -7.99562e-19)
(0.26997 1.85428 9.91334e-20)
(0.266433 2.94429 -3.47902e-19)
(0.290056 3.28496 7.2704e-19)
(0.261943 3.38325 5.24664e-19)
(0.196883 3.4077 -7.1164e-19)
(0.172299 3.41752 3.52157e-19)
(0.415412 0.449284 2.57884e-19)
(0.890468 0.936026 7.90422e-19)
(1.07301 1.16056 2.6209e-19)
(1.10716 1.2129 0)
(1.07539 1.21661 0)
(1.01517 1.18369 7.28525e-20)
(0.941721 1.14619 6.26613e-20)
(0.864684 1.10739 3.33158e-19)
(0.775739 1.06724 2.18067e-20)
(0.673192 1.02413 9.65384e-19)
(0.562461 0.979193 -1.14419e-18)
(0.450758 0.929609 0)
(0.374193 0.916481 0)
(0.333779 1.32184 -5.44847e-19)
(0.332365 2.49222 -6.55122e-19)
(0.376036 3.19659 0)
(0.40066 3.36632 -7.34992e-19)
(0.330402 3.42902 4.9685e-20)
(0.261567 3.47411 3.42606e-19)
(0.239269 3.49945 -1.12437e-19)
(0.413556 0.459167 -4.90504e-19)
(0.885092 0.956655 -3.7952e-19)
(1.06315 1.18314 0)
(1.0958 1.23501 0)
(1.06372 1.23874 0)
(1.00366 1.206 0)
(0.93061 1.16912 -7.44472e-20)
(0.853647 1.13091 2.91305e-19)
(0.764418 1.09217 0)
(0.66242 1.05186 -8.789e-19)
(0.552716 1.01114 2.05221e-18)
(0.443724 0.972607 8.39096e-20)
(0.394913 1.04426 1.12407e-19)
(0.385745 1.7473 8.87946e-19)
(0.398077 2.90176 -4.77699e-19)
(0.436929 3.31738 0)
(0.420241 3.43964 2.06148e-19)
(0.334674 3.52829 9.14144e-20)
(0.260028 3.59204 1.49144e-19)
(0.184648 3.5715 -1.3566e-20)
(0.410562 0.469591 2.33275e-19)
(0.876439 0.973453 -3.87684e-19)
(1.05142 1.20423 0)
(1.08373 1.25838 -7.04632e-20)
(1.05142 1.26247 2.42386e-19)
(0.991555 1.22938 0)
(0.91893 1.19236 0)
(0.842606 1.15483 -5.05141e-19)
(0.754186 1.11723 -5.61886e-20)
(0.651954 1.07874 8.61273e-19)
(0.537451 1.03979 -9.75155e-19)
(0.446735 1.01829 5.70496e-19)
(0.408045 1.22379 0)
(0.420512 2.18722 -4.70767e-19)
(0.463754 3.14473 3.08858e-19)
(0.527842 3.42016 1.93687e-19)
(0.519314 3.51597 0)
(0.456744 3.5973 -3.7389e-20)
(0.387302 3.63769 -4.1098e-19)
(0.306832 3.60947 -9.6492e-20)
(0.407766 0.480161 -4.64796e-19)
(0.869773 0.997022 5.55174e-19)
(1.03979 1.22956 3.84555e-19)