/*--------------------------------*- C++ -*----------------------------------*\
  =========                 |
  \\      /  F ield         | OpenFOAM: The Open Source CFD Toolbox
   \\    /   O peration     | Website:  https://openfoam.org
    \\  /    A nd           | Version:  10
     \\/     M anipulation  |
\*---------------------------------------------------------------------------*/
FoamFile
{
    format      ascii;
    class       volScalarField;
    location    "53";
    object      p;
}
// * * * * * * * * * * * * * * * * * * * * * * * * * * * * * * * * * * * * * //

dimensions      [0 2 -2 0 0 0 0];

internalField   nonuniform List<scalar> 
8800
(
0.791262
0.743475
0.704785
0.675789
0.654924
0.640092
0.629495
0.622014
0.617193
0.615136
0.616404
0.620593
0.627238
0.636553
0.649332
0.667066
0.691842
0.725783
0.768332
0.827034
0.622514
0.630193
0.637667
0.640974
0.63947
0.634391
0.627903
0.621824
0.6171
0.614256
0.613976
0.616481
0.620969
0.626913
0.633681
0.63996
0.6436
0.642864
0.637443
0.628752
0.600922
0.607081
0.611207
0.61415
0.616197
0.616799
0.615691
0.613584
0.611567
0.610659
0.61162
0.614001
0.616798
0.618977
0.619583
0.618382
0.616039
0.612645
0.608086
0.604325
0.59512
0.59777
0.60052
0.602921
0.604553
0.605712
0.60645
0.606565
0.606268
0.606217
0.606968
0.608136
0.608973
0.609035
0.608422
0.607329
0.605511
0.602938
0.600534
0.59903
0.589751
0.591176
0.592952
0.594981
0.596762
0.598099
0.599083
0.599877
0.600489
0.601051
0.6017
0.602192
0.602287
0.601995
0.601294
0.600042
0.598343
0.596492
0.595184
0.594352
0.58469
0.58561
0.586849
0.588411
0.590039
0.591558
0.592838
0.593899
0.594859
0.595749
0.596435
0.596757
0.596708
0.596262
0.595375
0.59417
0.592838
0.591575
0.590751
0.590199
0.579803
0.580472
0.581431
0.582728
0.584131
0.585582
0.587014
0.588329
0.589521
0.590623
0.591437
0.591796
0.591703
0.591184
0.590369
0.589415
0.588396
0.587468
0.58688
0.586475
0.575043
0.575559
0.576339
0.577463
0.578733
0.580098
0.581535
0.582997
0.584415
0.585742
0.586738
0.587196
0.587156
0.586757
0.586142
0.585407
0.584624
0.583934
0.583498
0.583182
0.570341
0.570752
0.571403
0.572402
0.573599
0.574915
0.576348
0.577891
0.579498
0.581082
0.582311
0.582949
0.583093
0.582904
0.582505
0.581974
0.581391
0.580891
0.580565
0.580308
0.565612
0.565946
0.566509
0.567428
0.568574
0.569872
0.571337
0.572972
0.574759
0.576621
0.578155
0.579073
0.579481
0.579534
0.579355
0.57904
0.578645
0.578301
0.578059
0.577844
0.560769
0.561046
0.561547
0.562419
0.563545
0.564865
0.566399
0.568167
0.570173
0.572355
0.574273
0.575554
0.576279
0.576607
0.576668
0.576567
0.576359
0.576151
0.575976
0.575791
0.555726
0.555959
0.55642
0.557275
0.558421
0.559806
0.56145
0.563404
0.565692
0.568273
0.570662
0.572379
0.573474
0.574117
0.574444
0.574564
0.574538
0.574455
0.574336
0.574171
0.550394
0.550592
0.551034
0.551901
0.553108
0.554601
0.556411
0.558618
0.561268
0.564351
0.567312
0.569546
0.571072
0.572072
0.572695
0.573045
0.573219
0.573251
0.573178
0.573028
0.544677
0.544846
0.545285
0.546193
0.547503
0.549156
0.551198
0.553737
0.556849
0.560558
0.564213
0.567063
0.569095
0.570503
0.571462
0.572091
0.572456
0.572598
0.572564
0.572424
0.538459
0.538604
0.539055
0.540036
0.541493
0.543364
0.545715
0.548678
0.552373
0.556853
0.561349
0.564938
0.56757
0.569457
0.570797
0.571725
0.572309
0.572567
0.57257
0.572435
0.531608
0.531728
0.532206
0.53329
0.534948
0.537108
0.539853
0.543357
0.547776
0.553197
0.558716
0.563191
0.566535
0.568989
0.570775
0.572043
0.572873
0.57325
0.573287
0.573154
0.523955
0.52405
0.52457
0.525791
0.527707
0.530234
0.533487
0.537674
0.542996
0.549575
0.556326
0.561858
0.566043
0.569162
0.571482
0.573153
0.574253
0.574753
0.574823
0.574688
0.515268
0.515368
0.515942
0.51732
0.519565
0.522569
0.526468
0.531516
0.537962
0.545959
0.554197
0.560987
0.566163
0.570064
0.573017
0.575151
0.576559
0.577193
0.577294
0.577153
0.505256
0.505337
0.505999
0.507601
0.510277
0.513894
0.518613
0.524746
0.532595
0.54233
0.552352
0.560625
0.56697
0.571791
0.575475
0.57816
0.579916
0.580692
0.580821
0.580672
0.493552
0.493616
0.494377
0.496291
0.499521
0.503926
0.509693
0.517201
0.526791
0.538644
0.550804
0.560832
0.568547
0.574448
0.578978
0.582305
0.584447
0.585372
0.585527
0.585365
0.479621
0.479673
0.480576
0.482901
0.486861
0.492304
0.499442
0.508721
0.520508
0.534951
0.549643
0.561708
0.570993
0.578135
0.583649
0.587703
0.590265
0.591338
0.591513
0.591335
0.462701
0.462741
0.463859
0.466766
0.471728
0.478576
0.487542
0.499127
0.513684
0.531272
0.548937
0.563341
0.574406
0.582964
0.589579
0.594451
0.597453
0.598665
0.598849
0.598652
0.441676
0.441714
0.443172
0.446946
0.453351
0.462178
0.473651
0.488285
0.506333
0.527706
0.548801
0.565836
0.578894
0.589017
0.596842
0.602607
0.606044
0.60737
0.607547
0.607328
0.414812
0.414868
0.416907
0.422088
0.430721
0.442455
0.457456
0.476138
0.498553
0.524406
0.549394
0.569312
0.584533
0.596365
0.60549
0.612172
0.615995
0.617382
0.617533
0.61729
0.379098
0.379251
0.382485
0.390263
0.402669
0.418842
0.438883
0.462897
0.490679
0.521713
0.55097
0.573946
0.591416
0.605026
0.615531
0.623066
0.62716
0.628525
0.628623
0.628358
0.328796
0.329753
0.336185
0.349293
0.368256
0.391289
0.418267
0.448997
0.483084
0.519875
0.553675
0.579816
0.599578
0.614961
0.62683
0.635077
0.639264
0.640502
0.640522
0.640238
0.255037
0.26221
0.277105
0.300186
0.328938
0.361159
0.396628
0.435124
0.47625
0.519333
0.558026
0.587589
0.609866
0.627231
0.640553
0.649457
0.653678
0.654788
0.654758
0.654515
0.175605
0.192631
0.216794
0.250514
0.289443
0.331008
0.37506
0.421537
0.470127
0.52024
0.564834
0.598764
0.624267
0.644109
0.659285
0.668793
0.672797
0.673671
0.673659
0.673512
0.109434
0.129516
0.161358
0.204084
0.252008
0.302373
0.354746
0.409054
0.464978
0.521933
0.572164
0.610175
0.638693
0.660728
0.677156
0.686849
0.690651
0.691457
0.691515
0.691433
0.055237
0.0769709
0.11431
0.163436
0.218464
0.276253
0.336001
0.397506
0.460318
0.523781
0.579362
0.621191
0.652409
0.676324
0.693902
0.704054
0.708135
0.709016
0.709054
0.709003
0.0100675
0.0329935
0.0741201
0.128331
0.189076
0.252991
0.319062
0.386952
0.456065
0.525608
0.586234
0.631661
0.665448
0.691229
0.710021
0.721008
0.725422
0.72628
0.726402
0.726395
-0.0283241
-0.00471479
0.0392672
0.0975234
0.163069
0.232197
0.303762
0.377333
0.45218
0.527361
0.592722
0.641547
0.677764
0.705356
0.725344
0.73711
0.741893
0.742863
0.743009
0.743025
-0.0619449
-0.0378735
0.00838379
0.069957
0.139561
0.21322
0.289652
0.368337
0.44844
0.528874
0.59869
0.650711
0.689207
0.718434
0.739501
0.751951
0.757142
0.758327
0.75852
0.758545
-0.0922719
-0.0677904
-0.0196704
0.0447356
0.117837
0.195459
0.276249
0.359593
0.444568
0.529948
0.603989
0.659014
0.699603
0.73024
0.752279
0.76531
0.770837
0.772251
0.772461
0.772481
-0.120251
-0.0953922
-0.045668
0.0211642
0.0973444
0.178475
0.263181
0.350792
0.440318
0.530394
0.608488
0.666381
0.708909
0.740841
0.763625
0.777098
0.782872
0.784444
0.784677
0.784686
-0.14667
-0.121387
-0.0701636
-0.00124459
0.0776718
0.16193
0.250174
0.341706
0.435494
0.530067
0.612121
0.672829
0.717202
0.750307
0.773689
0.787467
0.793416
0.795092
0.795323
0.795308
-0.171881
-0.146162
-0.0937609
-0.0228077
0.0585272
0.14559
0.237036
0.332176
0.429968
0.528885
0.614869
0.678401
0.724611
0.758822
0.78278
0.796696
0.802692
0.804414
0.804611
0.804565
-0.19629
-0.170005
-0.116551
-0.0437749
0.0397166
0.129295
0.223647
0.322105
0.423654
0.526774
0.616708
0.683143
0.731244
0.766575
0.790988
0.804953
0.81095
0.812638
0.81283
0.812756
-0.220022
-0.193308
-0.138671
-0.0642963
0.0211256
0.112959
0.209935
0.311436
0.416498
0.523686
0.617616
0.687098
0.737233
0.77373
0.798514
0.812437
0.818359
0.819976
0.820121
0.820025
-0.243194
-0.215941
-0.160271
-0.0844476
0.00270447
0.0965492
0.195881
0.300147
0.408476
0.51958
0.617549
0.690287
0.742679
0.780417
0.805504
0.8193
0.825045
0.826544
0.826618
0.826485
-0.26593
-0.238087
-0.181413
-0.10426
-0.0155695
0.0800669
0.181503
0.288263
0.399593
0.514423
0.616451
0.692698
0.747659
0.78677
0.812101
0.825638
0.831064
0.832363
0.83236
0.832201
-0.288239
-0.259721
-0.202108
-0.123729
-0.0336642
0.0635448
0.166848
0.275826
0.389877
0.508191
0.61426
0.694286
0.752197
0.792919
0.818486
0.83157
0.83648
0.837502
0.837424
0.837251
-0.309961
-0.280807
-0.222295
-0.142827
-0.0515449
0.0470492
0.151975
0.26291
0.379386
0.500908
0.610913
0.694967
0.756248
0.798994
0.824957
0.837363
0.841421
0.842018
0.841853
0.841682
-0.331075
-0.301316
-0.24196
-0.161505
-0.0691528
0.0306392
0.136976
0.249596
0.3682
0.492602
0.606367
0.69461
0.759703
0.805059
0.831893
0.843524
0.846212
0.846001
0.845689
0.845563
-0.351648
-0.321213
-0.261073
-0.179728
-0.0864254
0.0143975
0.121938
0.235985
0.35641
0.483337
0.60058
0.693066
0.762356
0.811004
0.839616
0.850917
0.851781
0.849879
0.849059
0.849193
-0.371506
-0.340473
-0.279579
-0.197433
-0.103304
-0.00159281
0.106956
0.22219
0.344134
0.473212
0.593547
0.690167
0.763924
0.816467
0.848046
0.860501
0.860167
0.855752
0.852896
0.852341
-0.390744
-0.359086
-0.297495
-0.214648
-0.119821
-0.0173746
0.0919745
0.208153
0.331303
0.462156
0.585136
0.685634
0.764087
0.820902
0.856464
0.872457
0.873687
0.867733
0.859243
0.844886
-0.409286
-0.377038
-0.314937
-0.231572
-0.13626
-0.0332777
0.0765825
0.193397
0.317387
0.449536
0.574699
0.678676
0.762251
0.82352
0.863017
0.884303
0.887934
0.875904
0.856448
0.844206
-0.426956
-0.394462
-0.331712
-0.247994
-0.152283
-0.0489586
0.0610053
0.178245
0.302691
0.435615
0.562314
0.668841
0.757652
0.823198
0.863344
0.884439
0.891175
0.868584
0.800685
0.770092
-0.443084
-0.412594
-0.347483
-0.263386
-0.167122
-0.0639157
0.0455532
0.162926
0.287433
0.420519
0.547924
0.655836
0.748955
0.819312
0.852648
0.867862
0.85907
0.805752
0.736716
0.694196
-0.499093
-0.428577
-0.361844
-0.278843
-0.182369
-0.0795967
0.0301624
0.147161
0.271247
0.403802
0.530934
0.639058
0.732411
0.809351
0.81524
0.819314
0.77167
0.702498
0.626234
0.583762
-0.460154
-0.444022
-0.383261
-0.299602
-0.204791
-0.102132
0.00659295
0.122898
0.245915
0.376929
0.501921
0.608032
0.693288
0.774121
0.762339
0.650941
0.546892
0.474483
0.401509
0.432653
-0.491356
-0.461796
-0.400055
-0.317174
-0.222365
-0.119892
-0.0109217
0.104718
0.226626
0.355784
0.477923
0.579664
0.656244
0.698663
0.651127
0.503817
0.376992
0.2863
0.187935
0.238556
-0.515374
-0.48286
-0.419827
-0.336744
-0.241847
-0.139483
-0.0306061
0.0841795
0.204661
0.331393
0.449781
0.545362
0.612796
0.621586
0.516063
0.344274
0.192416
0.0742567
-0.0564184
-0.0232874
-0.538892
-0.504806
-0.440561
-0.35656
-0.261536
-0.159313
-0.0509597
0.0628493
0.181715
0.305651
0.419385
0.507457
0.559465
0.537407
0.379877
0.1845
-0.00510123
-0.172419
-0.360583
-0.378532
-0.561795
-0.527241
-0.46208
-0.377295
-0.282087
-0.18007
-0.0723634
0.0403495
0.157351
0.278119
0.386515
0.466951
0.500073
0.442022
0.250445
0.0408044
-0.175804
-0.364567
-0.606211
-0.904558
-0.584978
-0.55041
-0.484682
-0.399385
-0.303963
-0.202099
-0.0949656
0.0166233
0.131664
0.249024
0.351793
0.423967
0.436634
0.327628
0.137847
-0.0711801
-0.274817
-0.446632
-0.515463
-0.594758
-0.609394
-0.574756
-0.508712
-0.423157
-0.32766
-0.22604
-0.11957
-0.00927434
0.103497
0.216942
0.313726
0.375064
0.36306
0.220475
0.0378615
-0.152216
-0.314319
-0.406767
-0.430755
-0.446705
-0.635351
-0.60059
-0.53434
-0.448693
-0.353306
-0.252098
-0.146529
-0.0378263
0.072266
0.181165
0.271462
0.31893
0.289496
0.121094
-0.0527279
-0.217756
-0.343619
-0.382563
-0.395464
-0.396773
-0.66305
-0.628082
-0.561623
-0.47598
-0.380842
-0.280272
-0.175856
-0.0690775
0.0379046
0.141695
0.22462
0.257927
0.209286
0.0292476
-0.135566
-0.283288
-0.358899
-0.376164
-0.377528
-0.377339
-0.692545
-0.657281
-0.590575
-0.505004
-0.410274
-0.31054
-0.207547
-0.103038
0.00042385
0.0985903
0.173246
0.19513
0.110588
-0.0547551
-0.211423
-0.333141
-0.369757
-0.368051
-0.367043
-0.366438
-0.723539
-0.688006
-0.621081
-0.535668
-0.441502
-0.342837
-0.24156
-0.139675
-0.0401433
0.0519481
0.118173
0.123329
0.020398
-0.133196
-0.271846
-0.346468
-0.357073
-0.360058
-0.360877
-0.360548
-0.75546
-0.719779
-0.652873
-0.567726
-0.474325
-0.376989
-0.27773
-0.17885
-0.0836289
0.00211256
0.0597536
0.0502977
-0.0607349
-0.200214
-0.316083
-0.347533
-0.355643
-0.357384
-0.357303
-0.357025
-0.787827
-0.752042
-0.685473
-0.600766
-0.508375
-0.412655
-0.31576
-0.220264
-0.129764
-0.0502947
-0.00305208
-0.0190534
-0.134968
-0.255509
-0.348468
-0.362404
-0.35572
-0.35473
-0.354658
-0.354498
-0.819737
-0.784061
-0.717986
-0.634158
-0.543083
-0.449334
-0.355174
-0.26343
-0.178077
-0.104767
-0.0671978
-0.0834495
-0.198838
-0.300055
-0.35469
-0.363716
-0.358132
-0.354665
-0.353344
-0.352949
-0.849543
-0.814616
-0.749424
-0.66695
-0.577645
-0.486288
-0.395281
-0.307645
-0.227744
-0.160841
-0.126669
-0.157126
-0.248833
-0.333756
-0.352727
-0.362134
-0.360005
-0.355262
-0.353451
-0.352574
-0.875663
-0.841807
-0.778628
-0.697925
-0.610977
-0.522524
-0.435158
-0.351997
-0.277653
-0.217718
-0.184005
-0.23076
-0.293345
-0.325782
-0.375566
-0.366531
-0.364939
-0.365183
-0.365406
-0.364875
-0.895917
-0.863827
-0.803434
-0.725616
-0.641728
-0.556819
-0.473621
-0.395341
-0.326666
-0.27403
-0.244233
-0.301383
-0.340475
-0.316188
-0.339877
-0.379704
-0.405085
-0.416653
-0.417658
-0.416065
-0.908033
-0.878676
-0.821973
-0.748076
-0.668311
-0.587739
-0.509308
-0.436281
-0.373514
-0.328357
-0.3042
-0.382066
-0.444092
-0.418824
-0.408382
-0.466917
-0.50076
-0.508988
-0.503994
-0.502918
-0.90931
-0.884041
-0.832207
-0.763425
-0.688935
-0.613716
-0.540636
-0.473166
-0.41651
-0.378645
-0.35804
-0.468865
-0.660248
-0.824709
-0.750295
-0.638529
-0.575655
-0.547762
-0.53744
-0.535332
-0.897635
-0.877238
-0.831914
-0.769984
-0.702006
-0.633094
-0.565996
-0.504124
-0.453309
-0.421682
-0.407991
-0.519868
-0.727163
-1.11859
-1.00715
-0.687017
-0.542264
-0.496697
-0.482238
-0.476921
-0.870867
-0.855414
-0.819283
-0.766474
-0.706456
-0.644707
-0.583878
-0.527322
-0.480648
-0.452105
-0.429147
-0.412358
-0.353893
-0.400671
-0.39812
-0.331067
-0.306665
-0.30042
-0.297367
-0.293269
-0.831341
-0.821299
-0.79493
-0.753028
-0.702232
-0.648219
-0.59352
-0.541351
-0.496352
-0.46649
-0.434232
-0.230286
0.133358
0.541432
0.449725
0.13549
-0.0955184
-0.175401
-0.194054
-0.196344
-0.785538
-0.779824
-0.763628
-0.73237
-0.691299
-0.644555
-0.595388
-0.546017
-0.500774
-0.46534
-0.427637
-0.294966
-0.0775125
0.190176
0.059931
-0.194446
-0.309721
-0.328874
-0.339546
-0.363405
-0.743038
-0.7396
-0.731538
-0.710017
-0.676811
-0.636115
-0.591046
-0.543282
-0.495321
-0.457256
-0.433532
-0.530449
-0.98529
-1.78931
-2.3555
-2.57651
-2.459
-2.1802
-1.81233
-1.65416
-0.711152
-0.708918
-0.704845
-0.690954
-0.663563
-0.626331
-0.582943
-0.533782
-0.481851
-0.430255
-0.404783
-0.542005
-1.0745
-1.70112
-2.02853
-1.92902
-1.63428
-1.32424
-1.06566
-0.946361
-0.686511
-0.685643
-0.68435
-0.677062
-0.654684
-0.618884
-0.573766
-0.521067
-0.460018
-0.385766
-0.319676
-0.281267
-0.288837
-0.170544
-0.00182615
0.279952
0.581295
0.770227
0.877007
0.916043
-0.671538
-0.671173
-0.670675
-0.667436
-0.650132
-0.6142
-0.565568
-0.507452
-0.437195
-0.35398
-0.252663
-0.133366
0.0624137
0.475934
0.968124
1.42834
1.77038
1.94554
2.01256
2.02742
-0.661151
-0.660926
-0.660386
-0.659622
-0.647556
-0.612111
-0.560045
-0.495811
-0.418329
-0.31888
-0.197914
-0.0719305
0.190164
0.671794
1.19362
1.65871
1.98168
2.14282
2.19838
2.20903
-0.65384
-0.653959
-0.654095
-0.654023
-0.645193
-0.612397
-0.55868
-0.489397
-0.402665
-0.295828
-0.176256
-0.0482938
0.153793
0.587913
1.02961
1.41619
1.67943
1.81127
1.85689
1.86648
-0.64893
-0.648409
-0.646388
-0.643467
-0.638913
-0.615491
-0.564274
-0.489767
-0.397073
-0.289435
-0.173985
-0.0563126
0.0954342
0.430349
0.766212
1.04301
1.2367
1.33343
1.36953
1.37829
-0.662465
-0.658411
-0.645964
-0.632898
-0.634748
-0.631139
-0.580413
-0.496797
-0.397534
-0.28927
-0.1845
-0.0816276
0.0312583
0.268898
0.511352
0.700563
0.831427
0.898967
0.926791
0.934613
-0.721544
-0.717611
-0.712461
-0.713642
-0.717205
-0.695657
-0.612901
-0.507515
-0.397711
-0.289273
-0.196906
-0.116923
-0.0312993
0.141095
0.311474
0.439494
0.529659
0.577973
0.599707
0.606128
-0.819552
-0.829874
-0.856195
-0.873094
-0.86214
-0.788387
-0.649576
-0.511569
-0.391918
-0.287686
-0.211383
-0.153981
-0.0960401
0.0380981
0.168471
0.264421
0.331327
0.36843
0.385294
0.389596
-0.855118
-0.875239
-0.90647
-0.924383
-0.903336
-0.801534
-0.637106
-0.490218
-0.372062
-0.277804
-0.215538
-0.17904
-0.146813
-0.0395142
0.0621418
0.139275
0.193564
0.223884
0.236541
0.239261
-0.707863
-0.726369
-0.754653
-0.772666
-0.750714
-0.659749
-0.538122
-0.424958
-0.329791
-0.253431
-0.204226
-0.182026
-0.164909
-0.0687245
0.0134512
0.0685989
0.108325
0.130198
0.139205
0.140333
-0.419586
-0.430546
-0.448804
-0.466004
-0.465177
-0.43086
-0.379095
-0.322215
-0.266993
-0.214507
-0.175451
-0.152736
-0.123553
-0.061319
-0.00846842
0.0293716
0.0536334
0.0678822
0.0739443
0.074905
-0.147548
-0.152144
-0.164089
-0.183894
-0.205317
-0.221004
-0.22539
-0.217196
-0.197601
-0.168286
-0.136468
-0.105853
-0.068486
-0.0305984
-0.00108137
0.0189078
0.0343157
0.0445165
0.0490259
0.0490841
0.0142009
0.0118339
0.00283748
-0.0179836
-0.0513511
-0.0875502
-0.116488
-0.133616
-0.136649
-0.1242
-0.0981548
-0.0627432
-0.0274354
-0.00567231
0.00912748
0.0216608
0.0332786
0.0412416
0.0446171
0.0439108
0.0764255
0.0748452
0.0676166
0.0494037
0.0187473
-0.0176018
-0.0517614
-0.0776322
-0.0911068
-0.0886996
-0.0687364
-0.0371219
-0.00656449
0.00265757
0.00841613
0.0177071
0.0281376
0.0353789
0.0370151
0.0355089
0.0850338
0.0838319
0.0784688
0.064832
0.0413782
0.0120436
-0.0181455
-0.0441762
-0.0616658
-0.0661624
-0.0538321
-0.0309065
-0.0110231
-0.0107025
-0.00650868
0.00241823
0.0120816
0.0180119
0.0191795
0.0172995
0.0716718
0.0708337
0.0671263
0.0576418
0.0409893
0.0191185
-0.00519307
-0.0282061
-0.0462996
-0.0555372
-0.0514864
-0.0396706
-0.0322503
-0.0395116
-0.0383173
-0.0286438
-0.0204763
-0.0164682
-0.016641
-0.0183764
0.0518742
0.0513178
0.0488189
0.0423783
0.0307964
0.0148755
-0.00401107
-0.0234971
-0.0411974
-0.0544806
-0.0593805
-0.0587804
-0.0608439
-0.0718668
-0.0738651
-0.0683884
-0.0638887
-0.0636729
-0.0641744
-0.0652111
0.0321648
0.0317909
0.0300932
0.0256985
0.0176182
0.00598321
-0.00873367
-0.0254064
-0.0429878
-0.0603522
-0.0750326
-0.0873906
-0.100363
-0.112576
-0.112106
-0.108316
-0.106785
-0.108092
-0.109254
-0.109863
0.0151479
0.0148662
0.0136975
0.0106407
0.00488673
-0.00380218
-0.0154945
-0.030053
-0.0476398
-0.06908
-0.0939219
-0.119591
-0.140291
-0.148751
-0.146627
-0.143316
-0.143037
-0.144288
-0.14515
-0.145551
0.00187872
0.00164424
0.000775151
-0.00139334
-0.00557215
-0.0121785
-0.0216773
-0.0346369
-0.0521748
-0.0770659
-0.11098
-0.149591
-0.176569
-0.179268
-0.172581
-0.16863
-0.168386
-0.169988
-0.170521
-0.170713
-0.00741144
-0.00759982
-0.00826112
-0.00980458
-0.0128328
-0.0179147
-0.025676
-0.0370436
-0.0540418
-0.0806337
-0.120811
-0.167883
-0.197784
-0.193647
-0.183452
-0.179907
-0.181043
-0.182963
-0.183272
-0.183191
-0.012778
-0.0129469
-0.0134358
-0.0145075
-0.0166319
-0.0204288
-0.0266213
-0.0363695
-0.051605
-0.0770666
-0.117015
-0.165704
-0.191929
-0.18293
-0.174514
-0.172987
-0.176233
-0.178802
-0.178933
-0.178621
-0.0143817
-0.0145326
-0.0148836
-0.0155624
-0.0169486
-0.0196039
-0.0242412
-0.0319119
-0.0444854
-0.0659441
-0.0995481
-0.139734
-0.157263
-0.147901
-0.142981
-0.146861
-0.152034
-0.154875
-0.155005
-0.154704
-0.0126654
-0.0127912
-0.0130223
-0.013386
-0.0141455
-0.0157751
-0.0188467
-0.0241534
-0.033046
-0.0481783
-0.0708246
-0.0964874
-0.105326
-0.099336
-0.099989
-0.106958
-0.113333
-0.116002
-0.115988
-0.115703
-0.00822908
-0.00832129
-0.00844068
-0.00856693
-0.00884144
-0.00958564
-0.0111721
-0.0140271
-0.0188187
-0.026699
-0.0374043
-0.0473313
-0.0449413
-0.0446417
-0.0505539
-0.0591602
-0.0646637
-0.0662748
-0.0660132
-0.0657879
-0.00182836
-0.00184763
-0.00185737
-0.00186335
-0.00174607
-0.00164186
-0.00173795
-0.00208708
-0.00272763
-0.00361771
-0.00414975
-0.00225911
-0.00296711
-0.00884937
-0.0105998
-0.0133715
-0.0132576
-0.0123614
-0.0120761
-0.0120379
-0.130985
0.0361871
0.231421
0.401906
0.538304
0.64594
0.735067
0.810928
0.845453
0.822172
0.172671
0.293612
0.423792
0.536375
0.631355
0.710022
0.773737
0.818968
0.841611
0.853682
0.392192
0.475205
0.56421
0.642859
0.710539
0.767177
0.812223
0.845131
0.868906
0.886882
0.553444
0.612847
0.674698
0.731945
0.781752
0.824056
0.858803
0.886519
0.909338
0.927636
0.679198
0.722426
0.768494
0.812405
0.851195
0.885083
0.914087
0.938224
0.958626
0.976461
0.783712
0.816655
0.85484
0.89045
0.923138
0.952438
0.978042
0.999563
1.01743
1.03477
0.876378
0.905111
0.939129
0.971305
1.00129
1.0285
1.05227
1.07201
1.08753
1.1046
0.965038
0.994266
1.0283
1.06037
1.09
1.11661
1.13949
1.15799
1.17137
1.1884
1.06039
1.09362
1.13028
1.16387
1.19393
1.22013
1.24209
1.25938
1.27125
1.28865
1.17542
1.21325
1.25191
1.28616
1.31552
1.34027
1.36065
1.37654
1.38801
1.40608
1.32037
1.35892
1.39507
1.42576
1.45144
1.47354
1.4926
1.50813
1.52056
1.53856
1.49546
1.52708
1.55327
1.57572
1.5957
1.61442
1.63214
1.64862
1.66397
1.68204
1.68408
1.70128
1.71632
1.73255
1.74846
1.76299
1.7762
1.79013
1.80767
1.82782
1.8658
1.87534
1.88688
1.89769
1.90698
1.91656
1.92734
1.93871
1.95007
1.96543
2.07304
2.0767
2.06175
2.04695
2.04067
2.04635
2.06483
2.09514
2.12731
2.15397
2.37936
2.24449
2.16786
2.12548
2.10805
2.11202
2.13941
2.19583
2.29845
2.52281
0.681863
0.679734
0.67525
0.666624
0.654398
0.642267
0.632034
0.624135
0.618512
0.615252
0.614889
0.617619
0.622715
0.629932
0.639315
0.650851
0.6635
0.674533
0.680644
0.683697
0.606318
0.612165
0.618497
0.622988
0.625456
0.625129
0.622388
0.618574
0.615058
0.612791
0.612635
0.614823
0.618477
0.622759
0.626561
0.62844
0.627501
0.624017
0.618853
0.612232
0.597896
0.600193
0.603595
0.606589
0.608662
0.610155
0.610906
0.610584
0.609552
0.608662
0.608826
0.610242
0.612047
0.613344
0.613518
0.612622
0.611069
0.60873
0.605464
0.602543
0.592392
0.593478
0.595309
0.597685
0.599705
0.601128
0.602144
0.602889
0.603283
0.603496
0.603974
0.604768
0.605353
0.605409
0.604988
0.604133
0.602658
0.60057
0.598481
0.597097
0.587196
0.587859
0.588965
0.590667
0.592444
0.59407
0.595359
0.596367
0.597241
0.598019
0.598733
0.599268
0.599446
0.599265
0.598687
0.597624
0.596188
0.594639
0.593318
0.592537
0.58223
0.58269
0.583474
0.584768
0.58625
0.587761
0.589218
0.590506
0.59163
0.59267
0.593566
0.594113
0.594238
0.593947
0.593235
0.592234
0.591099
0.589959
0.58904
0.588522
0.577413
0.577758
0.578367
0.57943
0.580718
0.582083
0.583512
0.584945
0.586303
0.587565
0.588651
0.589315
0.589466
0.589168
0.588551
0.587759
0.586895
0.58602
0.585343
0.584964
0.572693
0.572961
0.573452
0.574355
0.575517
0.576803
0.578186
0.579659
0.581181
0.582677
0.583994
0.584828
0.585096
0.584947
0.58453
0.583951
0.583286
0.582636
0.582138
0.581849
0.567988
0.568202
0.56861
0.569402
0.570482
0.571718
0.573088
0.574604
0.576252
0.577978
0.579571
0.580654
0.58115
0.581232
0.581037
0.58067
0.580206
0.579744
0.579384
0.579157
0.563213
0.563385
0.563734
0.564453
0.565485
0.566697
0.568092
0.569687
0.571485
0.573455
0.575377
0.576801
0.577605
0.577961
0.578007
0.577861
0.577601
0.577307
0.577061
0.576881
0.558281
0.55842
0.558728
0.559401
0.560415
0.56165
0.563107
0.564822
0.566821
0.569088
0.571413
0.573263
0.574438
0.575112
0.575431
0.575517
0.575458
0.575323
0.575174
0.575029
0.553106
0.553218
0.553498
0.554151
0.555181
0.556482
0.558046
0.559934
0.562201
0.564847
0.567669
0.570031
0.571643
0.572682
0.573308
0.573645
0.57379
0.573818
0.573753
0.573635
0.547594
0.547683
0.547946
0.548604
0.549687
0.551096
0.552821
0.554951
0.557564
0.560694
0.564129
0.567104
0.569229
0.57069
0.571659
0.572289
0.572661
0.572836
0.572845
0.572749
0.541641
0.54171
0.541966
0.542651
0.543824
0.545389
0.547339
0.54979
0.552844
0.556579
0.560763
0.564476
0.567213
0.569169
0.570531
0.571485
0.572105
0.572442
0.57252
0.572441
0.535124
0.535172
0.53543
0.536164
0.537469
0.539245
0.541492
0.544353
0.547968
0.552452
0.55755
0.562155
0.56562
0.568161
0.569982
0.571295
0.572202
0.572712
0.572858
0.572794
0.527892
0.527922
0.528185
0.528992
0.530472
0.532525
0.535153
0.538536
0.542854
0.548261
0.554471
0.560151
0.564483
0.567713
0.570081
0.57182
0.573053
0.573747
0.573962
0.57391
0.519762
0.51978
0.520042
0.520948
0.522657
0.525052
0.528173
0.532221
0.537423
0.543972
0.551537
0.558501
0.563862
0.567901
0.57091
0.573162
0.574761
0.575658
0.575943
0.5759
0.510425
0.510411
0.510737
0.511779
0.513774
0.51662
0.520369
0.525258
0.531566
0.539529
0.548738
0.557233
0.563809
0.568804
0.572566
0.575419
0.577442
0.578564
0.578921
0.578884
0.499608
0.499569
0.499938
0.501172
0.503535
0.506966
0.511518
0.517473
0.525168
0.534872
0.546071
0.556391
0.564394
0.570513
0.575163
0.578712
0.581222
0.58259
0.583019
0.582986
0.486837
0.486771
0.487217
0.488701
0.491546
0.495737
0.501327
0.508652
0.518102
0.529961
0.54356
0.556035
0.565701
0.573121
0.578811
0.583158
0.586223
0.587853
0.588351
0.588317
0.471476
0.471381
0.47195
0.473783
0.477274
0.482484
0.489454
0.498574
0.510271
0.524801
0.541272
0.55626
0.567837
0.576739
0.583623
0.588874
0.592549
0.594448
0.595008
0.594967
0.452601
0.452478
0.453243
0.455585
0.459988
0.466612
0.475469
0.486983
0.501573
0.519411
0.53929
0.557154
0.570889
0.581467
0.589668
0.595943
0.600271
0.602431
0.603035
0.60298
0.428821
0.428681
0.429775
0.432907
0.438679
0.447373
0.458902
0.473672
0.491994
0.51387
0.537728
0.558844
0.574967
0.58738
0.597024
0.604414
0.609398
0.611783
0.612403
0.612325
0.397835
0.397713
0.399414
0.403917
0.411971
0.423877
0.439328
0.458571
0.481688
0.508446
0.53685
0.56152
0.580185
0.59455
0.605735
0.614287
0.619858
0.622387
0.62298
0.622872
0.355533
0.355571
0.358605
0.365962
0.378241
0.395405
0.416661
0.441931
0.471013
0.503457
0.536886
0.565338
0.586649
0.603025
0.615779
0.625462
0.631463
0.633992
0.634503
0.634359
0.29423
0.295408
0.302834
0.316557
0.336545
0.362057
0.391474
0.424411
0.460552
0.499351
0.538114
0.570428
0.594374
0.612721
0.626975
0.637601
0.643834
0.646137
0.646475
0.646299
0.221363
0.223085
0.237314
0.260911
0.291731
0.327111
0.365464
0.406612
0.450362
0.496213
0.541208
0.57835
0.605786
0.626715
0.642852
0.654627
0.661051
0.663242
0.663551
0.663462
0.146081
0.152188
0.173222
0.206969
0.248119
0.293083
0.340332
0.389739
0.441183
0.494214
0.545655
0.587828
0.618887
0.642606
0.660895
0.673587
0.679826
0.681658
0.681894
0.681863
0.0845089
0.0929055
0.1185
0.159227
0.208444
0.261587
0.316864
0.374012
0.432816
0.492765
0.550377
0.597286
0.631684
0.657827
0.677716
0.691091
0.697341
0.699014
0.699362
0.699392
0.0344081
0.0433997
0.0725346
0.11848
0.173815
0.233553
0.29562
0.359599
0.425107
0.49152
0.554965
0.606346
0.643848
0.672226
0.693645
0.707868
0.714371
0.716462
0.71693
0.716998
-0.00758944
0.00168921
0.0332801
0.0832199
0.143569
0.208778
0.276598
0.346544
0.41808
0.490447
0.559351
0.614948
0.65539
0.685922
0.708892
0.724117
0.731291
0.733765
0.734279
0.734363
-0.0438258
-0.0344247
-0.000977874
0.0521638
0.116649
0.186525
0.259359
0.334589
0.411573
0.48942
0.56343
0.622991
0.66621
0.69877
0.723224
0.739411
0.747274
0.74997
0.750576
0.750664
-0.0759558
-0.0665037
-0.0316257
0.0242189
0.0921744
0.166067
0.243331
0.323309
0.405276
0.488214
0.567033
0.630335
0.676148
0.710533
0.736268
0.7533
0.76184
0.764791
0.765421
0.765504
-0.105241
-0.0957337
-0.0596829
-0.00150384
0.0694351
0.14684
0.228037
0.312319
0.398878
0.486602
0.56999
0.636854
0.685083
0.721144
0.747952
0.765663
0.774703
0.777869
0.778532
0.778592
-0.132535
-0.122968
-0.0858629
-0.0256947
0.0479062
0.128416
0.213129
0.301321
0.392139
0.48438
0.572166
0.642482
0.693024
0.730614
0.758367
0.776611
0.785923
0.789265
0.789974
0.790022
-0.158392
-0.148747
-0.110655
-0.0487903
0.027204
0.110476
0.198353
0.29011
0.384878
0.48141
0.573483
0.647222
0.700049
0.73909
0.767717
0.786339
0.795788
0.799226
0.799958
0.799976
-0.1833
-0.17347
-0.134524
-0.0710394
0.00706393
0.092804
0.183534
0.278543
0.376986
0.477601
0.573887
0.651089
0.706237
0.746733
0.776151
0.79506
0.804551
0.807968
0.808676
0.808671
-0.20748
-0.197416
-0.157701
-0.0926512
-0.0126812
0.0752628
0.168565
0.266541
0.368385
0.472887
0.573338
0.65409
0.71167
0.753697
0.783873
0.80295
0.812405
0.815766
0.816423
0.816379
-0.231033
-0.220753
-0.180197
-0.113776
-0.0321292
0.0577924
0.153396
0.254061
0.359039
0.467219
0.571789
0.656225
0.716426
0.760122
0.791032
0.810179
0.819527
0.822767
0.82335
0.823285
-0.254098
-0.243505
-0.20219
-0.134477
-0.0513207
0.0403613
0.138019
0.241104
0.348949
0.460585
0.569189
0.657461
0.720555
0.766121
0.79777
0.816889
0.82602
0.829056
0.829526
0.829417
-0.276646
-0.265764
-0.223693
-0.15478
-0.0702581
0.0229849
0.12247
0.227709
0.338142
0.452976
0.565492
0.657743
0.724074
0.771789
0.804236
0.823206
0.831926
0.834641
0.834968
0.834824
-0.298724
-0.287524
-0.244647
-0.174662
-0.0889176
0.00569995
0.106792
0.213937
0.326673
0.444417
0.560662
0.656999
0.726935
0.777183
0.810632
0.829355
0.837392
0.839594
0.839746
0.839574
-0.32015
-0.308704
-0.265047
-0.194081
-0.107249
-0.0114192
0.0910535
0.199861
0.314617
0.434967
0.55468
0.655147
0.729031
0.782304
0.8172
0.835733
0.842711
0.844039
0.843906
0.843719
-0.341066
-0.329265
-0.284873
-0.213014
-0.125217
-0.028332
0.0753483
0.185565
0.302064
0.424707
0.547561
0.652085
0.730196
0.787036
0.824105
0.842908
0.848553
0.848332
0.847522
0.84731
-0.361304
-0.349179
-0.304094
-0.231411
-0.142742
-0.0449529
0.0597587
0.171169
0.289125
0.413705
0.53935
0.647717
0.730223
0.791121
0.831252
0.851461
0.856245
0.853761
0.851146
0.850101
-0.380924
-0.368488
-0.322654
-0.249219
-0.159785
-0.0612113
0.0443696
0.156755
0.275914
0.402101
0.530123
0.641951
0.728881
0.794158
0.838093
0.861359
0.867307
0.863544
0.856973
0.848317
-0.399841
-0.387149
-0.340647
-0.266592
-0.176554
-0.0773812
0.0288478
0.141925
0.261983
0.389391
0.519345
0.634214
0.725643
0.795726
0.843853
0.871707
0.881912
0.878863
0.868822
0.863019
-0.418006
-0.405084
-0.358061
-0.283495
-0.193048
-0.093459
0.0132095
0.126661
0.247288