/*--------------------------------*- C++ -*----------------------------------*\
  =========                 |
  \\      /  F ield         | OpenFOAM: The Open Source CFD Toolbox
   \\    /   O peration     | Website:  https://openfoam.org
    \\  /    A nd           | Version:  10
     \\/     M anipulation  |
\*---------------------------------------------------------------------------*/
FoamFile
{
    format      ascii;
    class       volVectorField;
    location    "53";
    object      U;
}
// * * * * * * * * * * * * * * * * * * * * * * * * * * * * * * * * * * * * * //

dimensions      [0 1 -1 0 0 0 0];

internalField   nonuniform List<vector> 
8800
(
(0.98014 -0.0915214 0)
(1.00234 -0.058731 0)
(0.999575 -0.0321316 0)
(0.999968 -0.0165269 0)
(1.00006 -0.00884779 0)
(1.00007 -0.00510256 0)
(1.00005 -0.00299858 0)
(1.00001 -0.00168698 0)
(0.999997 -0.000785149 0)
(1.00006 -8.71049e-05 0)
(0.999988 0.000620213 0)
(0.999995 0.00137291 0)
(1.00001 0.00239743 0)
(1.00003 0.00400196 0)
(1.00004 0.00674954 0)
(0.999993 0.0120513 0)
(0.999789 0.0230954 0)
(0.999028 0.0431576 0)
(1.00723 0.0790263 0)
(0.775024 0.0478395 0)
(0.358984 -0.0147487 0)
(1.0465 -0.0724858 0)
(1.08846 -0.0660247 0)
(1.04942 -0.0509218 0)
(1.02552 -0.0377049 0)
(1.01272 -0.0259 0)
(1.00656 -0.0167037 0)
(1.00362 -0.0102124 0)
(1.00218 -0.00558096 0)
(1.00151 -0.00198773 0)
(1.00138 0.00122522 0)
(1.00173 0.00453337 0)
(1.0027 0.00842265 0)
(1.00474 0.0137375 0)
(1.00897 0.021414 0)
(1.01795 0.0319054 0)
(1.03578 0.0446773 0)
(1.0674 0.058118 0)
(1.09469 0.0699599 0)
(0.845623 0.055508 0)
(0.217789 -0.00138099 0)
(1.07566 -0.0506534 0)
(1.0994 -0.0489373 0)
(1.06437 -0.0400236 0)
(1.03988 -0.0325659 0)
(1.02379 -0.0253513 0)
(1.01401 -0.0181298 0)
(1.00851 -0.0115061 0)
(1.00565 -0.00574804 0)
(1.00448 -0.000456689 0)
(1.00479 0.00465438 0)
(1.00663 0.00994074 0)
(1.01056 0.0159101 0)
(1.01788 0.0226664 0)
(1.03049 0.0297677 0)
(1.05047 0.0368531 0)
(1.08002 0.0446263 0)
(1.10563 0.0519485 0)
(0.943246 0.0410154 0)
(0.217181 0.00140569 0)
(0.176645 -0.000628663 0)
(1.01939 -0.035462 0)
(1.1057 -0.0414089 0)
(1.07796 -0.0363955 0)
(1.05243 -0.0303518 0)
(1.03521 -0.0244734 0)
(1.02336 -0.0186742 0)
(1.01555 -0.0126738 0)
(1.01094 -0.0065773 0)
(1.00891 -0.000337974 0)
(1.00943 0.00581994 0)
(1.01251 0.0117327 0)
(1.01846 0.0175006 0)
(1.02805 0.0230745 0)
(1.04225 0.0286191 0)
(1.06306 0.0343974 0)
(1.09383 0.0402791 0)
(1.09439 0.0417983 0)
(0.830149 0.0227846 0)
(0.175606 0.00064851 0)
(0.154738 -0.000462466 0)
(0.958183 -0.0256889 0)
(1.1044 -0.0351139 0)
(1.08807 -0.0326671 0)
(1.06124 -0.0281617 0)
(1.04321 -0.0231983 0)
(1.03083 -0.0178923 0)
(1.02224 -0.0123474 0)
(1.01668 -0.0064359 0)
(1.01403 1.87632e-05 0)
(1.01466 0.006478 0)
(1.01844 0.0123476 0)
(1.02521 0.0176623 0)
(1.03535 0.0226658 0)
(1.05009 0.0274829 0)
(1.07201 0.0319197 0)
(1.10097 0.0357944 0)
(1.06963 0.0339954 0)
(0.742456 0.0144619 0)
(0.153182 0.00048472 0)
(0.140056 -0.000334352 0)
(0.901178 -0.019325 0)
(1.09681 -0.0302217 0)
(1.09621 -0.0293463 0)
(1.06895 -0.0255662 0)
(1.05013 -0.0214823 0)
(1.03717 -0.0167814 0)
(1.02819 -0.0115298 0)
(1.02225 -0.00580577 0)
(1.01925 0.0005505 0)
(1.01987 0.0069232 0)
(1.02385 0.0125692 0)
(1.03087 0.0175479 0)
(1.04137 0.0220157 0)
(1.05674 0.0259514 0)
(1.07953 0.0294614 0)
(1.10326 0.0321745 0)
(1.03783 0.0281602 0)
(0.67561 0.0103166 0)
(0.137865 0.000360798 0)
(0.12932 -0.000252915 0)
(0.851305 -0.0149293 0)
(1.08446 -0.0261247 0)
(1.10189 -0.0264742 0)
(1.07577 -0.0231591 0)
(1.05644 -0.0195096 0)
(1.04307 -0.0153144 0)
(1.03372 -0.0104521 0)
(1.02749 -0.00495332 0)
(1.02428 0.00121533 0)
(1.02478 0.00737102 0)
(1.02878 0.0127344 0)
(1.03595 0.0172914 0)
(1.04674 0.0211552 0)
(1.06247 0.0244901 0)
(1.08571 0.0275217 0)
(1.10248 0.0293388 0)
(1.00312 0.0236215 0)
(0.623535 0.00791529 0)
(0.126353 0.00028515 0)
(0.121134 -0.000194194 0)
(0.808801 -0.0117464 0)
(1.06914 -0.0225357 0)
(1.1054 -0.0238538 0)
(1.08201 -0.0209951 0)
(1.06223 -0.0175775 0)
(1.04858 -0.0136702 0)
(1.03897 -0.00913382 0)
(1.03248 -0.00391271 0)
(1.02904 0.00201769 0)
(1.02938 0.00789947 0)
(1.03334 0.0129077 0)
(1.04056 0.0170069 0)
(1.05146 0.0203995 0)
(1.06744 0.0233389 0)
(1.09106 0.0260559 0)
(1.09882 0.0269671 0)
(0.968012 0.020049 0)
(0.581742 0.00634845 0)
(0.117225 0.000233319 0)
(0.114785 -0.000149709 0)
(0.772945 -0.00936538 0)
(1.05225 -0.0193778 0)
(1.10773 -0.021438 0)
(1.08787 -0.0189687 0)
(1.06767 -0.0157174 0)
(1.05376 -0.011982 0)
(1.04397 -0.00765372 0)
(1.03726 -0.00268026 0)
(1.03356 0.0029847 0)
(1.0337 0.00855535 0)
(1.03753 0.0131849 0)
(1.0447 0.0168837 0)
(1.05561 0.0199035 0)
(1.07183 0.0225095 0)
(1.09515 0.0248773 0)
(1.09237 0.0249935 0)
(0.933855 0.0172788 0)
(0.54723 0.0052722 0)
(0.109729 0.000197212 0)
(0.109824 -0.000114575 0)
(0.742811 -0.00752133 0)
(1.03487 -0.0165785 0)
(1.10909 -0.0191675 0)
(1.09342 -0.0170157 0)
(1.07293 -0.0138675 0)
(1.05873 -0.0102388 0)
(1.04875 -0.00604549 0)
(1.04183 -0.0012525 0)
(1.03786 0.00415091 0)
(1.03773 0.00938823 0)
(1.04136 0.0136498 0)
(1.04839 0.0169832 0)
(1.05931 0.0196584 0)
(1.07575 0.0219802 0)
(1.09797 0.0239868 0)
(1.08351 0.0233565 0)
(0.901254 0.0151584 0)
(0.517943 0.0045169 0)
(0.103375 0.00017219 0)
(0.105957 -8.56178e-05 0)
(0.717579 -0.00603775 0)
(1.01784 -0.0140672 0)
(1.10959 -0.0169787 0)
(1.09885 -0.0151222 0)
(1.07808 -0.0120022 0)
(1.06358 -0.00841895 0)
(1.05338 -0.00430017 0)
(1.04622 0.000366745 0)
(1.04195 0.00554884 0)
(1.04148 0.0104778 0)
(1.04482 0.0143973 0)
(1.05168 0.0173921 0)
(1.06258 0.0197367 0)
(1.07922 0.021788 0)
(1.09945 0.023397 0)
(1.07262 0.0220493 0)
(0.870352 0.0135735 0)
(0.492425 0.00399073 0)
(0.0978161 0.000155701 0)
(0.102994 -6.06642e-05 0)
(0.696603 -0.00479673 0)
(1.00176 -0.011777 0)
(1.10939 -0.014826 0)
(1.1041 -0.0131823 0)
(1.08321 -0.010042 0)
(1.06839 -0.00644843 0)
(1.05793 -0.00235403 0)
(1.05048 0.00223185 0)
(1.04584 0.00723428 0)
(1.04495 0.011877 0)
(1.04794 0.0154597 0)
(1.05459 0.0181096 0)
(1.06546 0.0201242 0)
(1.08225 0.0219199 0)
(1.09996 0.0231251 0)
(1.06002 0.021071 0)
(0.841022 0.0124304 0)
(0.469595 0.00363575 0)
(0.0927943 0.000145815 0)
(0.100811 -3.77771e-05 0)
(0.679411 -0.00370989 0)
(0.987088 -0.00963826 0)
(1.10869 -0.0126325 0)
(1.10915 -0.011123 0)
(1.0884 -0.00794575 0)
(1.07322 -0.00428832 0)
(1.06245 -0.000152153 0)
(1.05464 0.00440295 0)
(1.04954 0.00927043 0)
(1.04815 0.0136477 0)
(1.05073 0.016904 0)
(1.05712 0.019216 0)
(1.06793 0.0208927 0)
(1.0848 0.0224138 0)
(1.09949 0.0232391 0)
(1.0459 0.0204429 0)
(0.812968 0.011659 0)
(0.448614 0.00341465 0)
(0.0881089 0.000141332 0)
(0.0993443 -1.52194e-05 0)
(0.665697 -0.00270666 0)
(0.97419 -0.0075737 0)
(1.10778 -0.0103336 0)
(1.11411 -0.00888528 0)
(1.09371 -0.00564358 0)
(1.07815 -0.0018602 0)
(1.06701 0.00237733 0)
(1.05875 0.00695813 0)
(1.05308 0.0117391 0)
(1.05109 0.0158769 0)
(1.05317 0.0188023 0)
(1.05926 0.0207638 0)
(1.06998 0.0220795 0)
(1.08689 0.0233273 0)
(1.09783 0.0237029 0)
(1.03034 0.0201353 0)
(0.785805 0.0111997 0)
(0.428806 0.00329981 0)
(0.0836002 0.000140997 0)
(0.0985776 8.81206e-06 0)
(0.655306 -0.00173246 0)
(0.963384 -0.00551272 0)
(1.10701 -0.00786166 0)
(1.11911 -0.00637368 0)
(1.09923 -0.00300946 0)
(1.08325 0.00095934 0)
(1.07166 0.00534578 0)
(1.06287 0.0100117 0)
(1.05651 0.0147382 0)
(1.05378 0.0186359 0)
(1.05525 0.0212182 0)
(1.06097 0.0227967 0)
(1.07159 0.0237198 0)
(1.08845 0.0246822 0)
(1.09493 0.0245707 0)
(1.01337 0.0201847 0)
(0.759118 0.0110213 0)
(0.409621 0.00327689 0)
(0.0791396 0.000144509 0)
(0.09853 3.02336e-05 0)
(0.648212 -0.00074136 0)
(0.954966 -0.0033821 0)
(1.1067 -0.00515135 0)
(1.12431 -0.00353008 0)
(1.10505 7.56009e-06 0)
(1.0886 0.00422579 0)
(1.07648 0.00884221 0)
(1.06703 0.013663 0)
(1.05983 0.0183798 0)
(1.05621 0.0220494 0)
(1.05697 0.0242718 0)
(1.06223 0.0254504 0)
(1.07273 0.0259501 0)
(1.0893 0.0265414 0)
(1.09056 0.0258843 0)
(0.994869 0.0206104 0)
(0.732434 0.0111075 0)
(0.390557 0.00333803 0)
(0.0746072 0.000151436 0)
(0.0992376 6.90698e-05 0)
(0.644498 0.000281367 0)
(0.949259 -0.00110368 0)
(1.10721 -0.00210903 0)
(1.12989 -0.000240001 0)
(1.11127 0.0035404 0)
(1.09431 0.00809251 0)
(1.08155 0.0130172 0)
(1.07128 0.0180535 0)
(1.06305 0.0228044 0)
(1.05837 0.0262514 0)
(1.05827 0.0280717 0)
(1.06299 0.028799 0)
(1.07333 0.028861 0)
(1.08925 0.0290235 0)
(1.08459 0.0276837 0)
(0.974659 0.0214326 0)
(0.705243 0.0114457 0)
(0.371147 0.00347552 0)
(0.0698955 0.000161315 0)
(0.100906 9.59086e-05 0)
(0.644545 0.00144266 0)
(0.946615 0.00140178 0)
(1.10895 0.00136868 0)
(1.13606 0.00361135 0)
(1.11802 0.00776969 0)
(1.10047 0.0127495 0)
(1.08693 0.0180583 0)
(1.07566 0.0233744 0)
(1.06619 0.0281765 0)
(1.0602 0.0313723 0)
(1.05909 0.0327387 0)
(1.06319 0.0329687 0)
(1.0733 0.0325448 0)
(1.08813 0.0322152 0)
(1.07679 0.0300333 0)
(0.952447 0.0226885 0)
(0.677003 0.0120349 0)
(0.350952 0.00368635 0)
(0.0649067 0.000173899 0)
(0.103594 0.000142961 0)
(0.648704 0.00286592 0)
(0.947523 0.00428375 0)
(1.11245 0.00538768 0)
(1.14305 0.00815288 0)
(1.12545 0.0128215 0)
(1.10721 0.0183358 0)
(1.09272 0.0241451 0)
(1.08022 0.0298215 0)
(1.06921 0.0346996 0)
(1.06168 0.0376036 0)
(1.05938 0.0384427 0)
(1.06271 0.0381197 0)
(1.07257 0.0371402 0)
(1.08573 0.0362457 0)
(1.06684 0.0330419 0)
(0.927822 0.024415 0)
(0.647124 0.0128788 0)
(0.329536 0.00396768 0)
(0.0595501 0.000188805 0)
(0.107581 0.00020417 0)
(0.657566 0.00454399 0)
(0.952446 0.0076966 0)
(1.11816 0.010139 0)
(1.1511 0.0136209 0)
(1.13375 0.0189571 0)
(1.11469 0.0251481 0)
(1.09903 0.03157 0)
(1.08501 0.037669 0)
(1.07216 0.0426224 0)
(1.06278 0.0451534 0)
(1.05907 0.0453758 0)
(1.06146 0.044411 0)
(1.07103 0.0427981 0)
(1.082 0.0412719 0)
(1.05437 0.0367982 0)
(0.900277 0.026656 0)
(0.614963 0.013976 0)
(0.306472 0.00431366 0)
(0.0537456 0.000205148 0)
(0.113198 0.000287415 0)
(0.671818 0.00663266 0)
(0.962059 0.0118343 0)
(1.12669 0.0158566 0)
(1.16058 0.020296 0)
(1.14319 0.0265446 0)
(1.12307 0.0335574 0)
(1.10592 0.0406924 0)
(1.09001 0.0472564 0)
(1.07489 0.052228 0)
(1.06334 0.0542591 0)
(1.05803 0.0537338 0)
(1.05935 0.0520016 0)
(1.06854 0.0496689 0)
(1.07678 0.047394 0)
(1.03889 0.0414184 0)
(0.869167 0.0294407 0)
(0.579835 0.0153171 0)
(0.281353 0.00471301 0)
(0.0474322 0.000221809 0)
(0.120943 0.000404522 0)
(0.692395 0.00935911 0)
(0.977225 0.0170062 0)
(1.13868 0.0228762 0)
(1.17198 0.0285286 0)
(1.15403 0.0359511 0)
(1.13253 0.0439762 0)
(1.11348 0.0519496 0)
(1.09519 0.058971 0)
(1.07734 0.0638315 0)
(1.06326 0.0651658 0)
(1.05606 0.0636854 0)
(1.05625 0.0610808 0)
(1.06499 0.0579232 0)
(1.06979 0.0547302 0)
(1.01976 0.0469647 0)
(0.833746 0.0327723 0)
(0.541034 0.0168683 0)
(0.253829 0.00514357 0)
(0.0405829 0.000236795 0)
(0.131554 0.000575498 0)
(0.720635 0.0131 0)
(0.999094 0.0236853 0)
(1.15488 0.0317573 0)
(1.18584 0.0389282 0)
(1.16664 0.0478689 0)
(1.14324 0.0571059 0)
(1.12168 0.0659678 0)
(1.10041 0.0733266 0)
(1.07932 0.0778051 0)
(1.06233 0.078127 0)
(1.05302 0.0754555 0)
(1.05195 0.0718314 0)
(1.06013 0.0676892 0)
(1.06052 0.0633742 0)
(0.996226 0.0534991 0)
(0.79316 0.0366308 0)
(0.497883 0.018568 0)
(0.223672 0.00557186 0)
(0.0332224 0.000247885 0)
(0.146304 0.000850892 0)
(0.758555 0.0184584 0)
(1.02931 0.0326532 0)
(1.17627 0.0434377 0)
(1.20292 0.0525865 0)
(1.18133 0.0634066 0)
(1.15526 0.0739354 0)
(1.13041 0.0835254 0)
(1.10547 0.0908803 0)
(1.08057 0.0945296 0)
(1.06034 0.093423 0)
(1.04879 0.0892722 0)
(1.04635 0.0843849 0)
(1.05356 0.0791018 0)
(1.04829 0.0735247 0)
(0.967313 0.0610203 0)
(0.74651 0.0409203 0)
(0.449845 0.0202999 0)
(0.19088 0.00594171 0)
(0.0254541 0.000251424 0)
(0.167357 0.00132487 0)
(0.809369 0.0266102 0)
(1.07042 0.0454653 0)
(1.20395 0.0597199 0)
(1.22393 0.0715787 0)
(1.19818 0.0840858 0)
(1.16828 0.0957124 0)
(1.13916 0.10555 0)
(1.10978 0.11225 0)
(1.08057 0.114362 0)
(1.05687 0.111238 0)
(1.04302 0.105217 0)
(1.03928 0.0988451 0)
(1.04509 0.0925178 0)
(1.03234 0.0851511 0)
(0.9318 0.0693439 0)
(0.692987 0.0454344 0)
(0.396795 0.0218898 0)
(0.155893 0.00617648 0)
(0.0175086 0.000242123 0)
(0.198086 0.00237723 0)
(0.878738 0.0402537 0)
(1.12598 0.0659423 0)
(1.23835 0.0841516 0)
(1.24855 0.0985854 0)
(1.21661 0.112216 0)
(1.18156 0.124033 0)
(1.14724 0.133026 0)
(1.11281 0.137971 0)
(1.07896 0.137554 0)
(1.05169 0.131659 0)
(1.03555 0.123334 0)
(1.03055 0.115268 0)
(1.03455 0.107794 0)
(1.0117 0.09809 0)
(0.888265 0.078135 0)
(0.63218 0.0498362 0)
(0.339672 0.0231864 0)
(0.120116 0.00623797 0)
(0.00988562 0.00021432 0)
(0.239997 0.0085748 3.73854e-20)
(0.970733 0.0674645 3.28047e-20)
(1.1938 0.100229 -1.15623e-20)
(1.27635 0.120356 0)
(1.27405 0.137227 -3.05203e-34)
(1.23456 0.150189 4.48793e-21)
(1.19358 0.160455 -8.23864e-21)
(1.15347 0.167204 0)
(1.11358 0.169334 1.72361e-34)
(1.07474 0.165602 -1.04885e-20)
(1.04366 0.156465 0)
(1.02504 0.145596 -1.25741e-20)
(1.01869 0.135876 -3.71674e-20)
(1.02054 0.127655 -1.7592e-20)
(0.983468 0.115304 -5.30671e-21)
(0.831705 0.0896404 -3.15677e-21)
(0.558408 0.0550649 0)
(0.276353 0.0246582 2.21053e-21)
(0.0839331 0.00657227 2.6101e-21)
(0.00281581 0.00025146 4.69786e-20)
(0.269415 0.023939 2.51211e-20)
(1.04666 0.109954 5.26792e-22)
(1.24969 0.149097 2.985e-21)
(1.31027 0.169393 0)
(1.29636 0.186138 -1.52082e-20)
(1.24983 0.196932 -1.74753e-20)
(1.20291 0.204861 -8.24772e-21)
(1.15689 0.209096 -2.98634e-20)
(1.11125 0.208391 0)
(1.06689 0.201411 4.46936e-20)
(1.03123 0.189138 4.45676e-20)
(1.00954 0.175801 1.33046e-20)
(1.001 0.164037 4.87287e-20)
(0.996476 0.153379 6.86923e-20)
(0.94025 0.137151 0)
(0.756864 0.103755 9.7094e-20)
(0.472465 0.0614785 1.39367e-19)
(0.20993 0.0262063 1.54822e-19)
(0.0487761 0.00611432 -1.77029e-19)
(-0.00398666 -0.000294095 -3.32805e-21)
(0.270545 0.0396494 0)
(1.09461 0.165059 3.90859e-21)
(1.28719 0.209205 0)
(1.33658 0.229003 -1.83343e-20)
(1.31376 0.242719 0)
(1.26129 0.249685 -3.37963e-20)
(1.2088 0.253916 1.67453e-20)
(1.15718 0.254603 -5.96443e-20)
(1.10604 0.250279 -1.56868e-21)
(1.05635 0.23953 2.30796e-20)
(1.01628 0.223776 9.84779e-20)
(0.991535 0.207787 -2.68908e-22)
(0.980451 0.194084 -3.55235e-20)
(0.970059 0.181259 -6.50481e-20)
(0.901183 0.1602 7.71011e-20)
(0.704837 0.118518 -1.36637e-19)
(0.425206 0.0683899 -1.80877e-20)
(0.180137 0.0283777 0)
(0.0347224 0.00568622 -1.78211e-24)
(-0.00670293 -0.000983589 0)
(0.264369 0.0532771 3.69621e-20)
(1.1205 0.223506 -2.0217e-20)
(1.31026 0.273829 -1.84077e-20)
(1.3539 0.29377 8.30337e-21)
(1.32485 0.303622 -1.41934e-20)
(1.26789 0.306132 7.06407e-20)
(1.21081 0.306044 3.48666e-20)
(1.15433 0.302586 0)
(1.09823 0.294135 -1.1459e-19)
(1.04361 0.279206 0)
(0.999351 0.25975 -5.1686e-20)
(0.971676 0.241039 -6.4318e-20)
(0.958249 0.225316 -3.88375e-20)
(0.943291 0.210019 -4.7405e-20)
(0.868066 0.184446 0)
(0.671008 0.135691 0)
(0.402645 0.0785939 -1.18056e-19)
(0.171151 0.0327827 2.33805e-20)
(0.0313542 0.00595735 -1.36629e-20)
(-0.00784745 -0.00161711 -1.59914e-20)
(0.257048 0.06536 -4.18624e-21)
(1.13197 0.281854 0)
(1.3229 0.339442 3.22484e-20)
(1.36317 0.359988 2.21542e-20)
(1.32972 0.366037 3.381e-20)
(1.26951 0.364098 0)
(1.20882 0.359604 3.35894e-20)
(1.1483 0.351829 6.58507e-20)
(1.08791 0.339071 5.84188e-20)
(1.02887 0.319839 1.0949e-19)
(0.980754 0.296661 0)
(0.950219 0.275193 -1.39097e-19)
(0.934302 0.257284 -8.41768e-20)
(0.915819 0.23948 -4.9859e-20)
(0.839187 0.209797 3.07393e-19)
(0.648537 0.155109 3.66395e-20)
(0.394614 0.0919715 1.72019e-19)
(0.174737 0.0396382 -8.15141e-19)
(0.0357501 0.00773381 4.82613e-19)
(-0.00716833 -0.00183006 -5.81639e-19)
(0.250072 0.0763038 1.1304e-20)
(1.13427 0.338278 3.85803e-22)
(1.32799 0.404133 -2.12834e-21)
(1.366 0.425769 -1.80996e-20)
(1.32936 0.428251 -2.60236e-20)
(1.26672 0.422056 1.79506e-21)
(1.20315 0.41331 -3.65325e-20)
(1.1393 0.401297 6.78419e-20)
(1.07523 0.384293 -1.26012e-19)
(1.01228 0.360786 0)
(0.960639 0.333784 -6.28068e-20)
(0.927357 0.309379 -1.61984e-21)
(0.909037 0.289337 -9.24263e-20)
(0.887884 0.269411 0)
(0.81232 0.236053 -6.68527e-20)
(0.631383 0.176621 -1.59002e-19)
(0.393581 0.107658 4.24737e-19)
(0.183484 0.0489562 -4.17987e-19)
(0.0446479 0.0114815 5.9422e-19)
(-0.00494952 -0.00152656 -6.17405e-19)
(0.244264 0.0864544 -4.10174e-22)
(1.13092 0.39212 3.94957e-21)
(1.32764 0.466906 1.29125e-21)
(1.36381 0.489898 5.19961e-21)
(1.32479 0.489213 -1.27407e-20)
(1.26032 0.479049 0)
(1.19443 0.466295 -3.29796e-20)
(1.12779 0.450255 -7.08393e-20)
(1.06054 0.42918 -6.52717e-20)
(0.994103 0.401478 0)
(0.939204 0.370612 -6.50643e-20)
(0.903387 0.343367 -8.1325e-20)
(0.882941 0.321463 1.00531e-19)
(0.859716 0.299632 -6.13458e-20)
(0.785609 0.263016 -2.93145e-19)
(0.615853 0.199409 1.74654e-19)
(0.393882 0.124601 5.2172e-20)
(0.193396 0.0598791 0)
(0.0547072 0.01666 -5.769e-19)
(-0.00215093 -0.000810373 -2.11763e-20)
(0.239714 0.0961222 4.81495e-21)
(1.12418 0.443183 -6.98128e-21)
(1.32338 0.527272 -1.99729e-21)
(1.35784 0.551661 2.17292e-20)
(1.31696 0.548238 -4.30751e-20)
(1.2511 0.534464 6.13492e-20)
(1.18332 0.518001 7.12224e-20)
(1.11432 0.498213 -1.1317e-19)
(1.04428 0.473302 4.11328e-20)
(0.974657 0.441555 -2.70023e-19)
(0.916765 0.407041 -7.40675e-20)
(0.878681 0.377282 0)
(0.856339 0.353585 1.09273e-19)
(0.831349 0.329708 1.31458e-19)
(0.758787 0.289978 1.57934e-19)
(0.59969 0.222732 -1.90306e-19)
(0.392027 0.142436 -5.64315e-20)
(0.201055 0.0719749 6.62404e-20)
(0.0637245 0.0226939 0)
(0.000655 0.000195442 -4.61004e-20)
(0.236316 0.105465 -7.40867e-20)
(1.11563 0.491566 4.13535e-20)
(1.31647 0.58532 3.7997e-21)
(1.34911 0.610709 1.02567e-20)
(1.30668 0.60491 -1.69442e-20)
(1.23973 0.587882 -4.06079e-21)
(1.17041 0.568069 -7.82805e-20)
(1.09939 0.54486 -4.10721e-20)
(1.02685 0.516373 -1.13739e-19)
(0.954312 0.480826 2.92269e-22)
(0.893702 0.442957 -2.31431e-19)
(0.853558 0.410764 1.97424e-19)
(0.829384 0.385031 -1.20437e-19)
(0.802789 0.358866 1.45414e-19)
(0.731768 0.31621 0)
(0.581956 0.2451 -1.03539e-19)
(0.386972 0.159911 -8.58902e-23)
(0.205105 0.0838349 -2.89621e-19)
(0.0702061 0.0286403 -4.25182e-20)
(0.00295771 0.00122094 0)
(0.233931 0.114615 0)
(1.10619 0.537482 4.76918e-20)
(1.30765 0.64072 1.95708e-20)
(1.33838 0.666914 -6.24526e-21)
(1.2946 0.659008 -2.46808e-20)
(1.22679 0.639075 0)
(1.15621 0.616272 -3.40104e-20)
(1.08344 0.589979 -1.08144e-21)
(1.00864 0.558214 2.43867e-19)
(0.933408 0.519152 -3.69095e-20)
(0.870272 0.478061 -1.67342e-19)
(0.828173 0.443165 1.02375e-19)
(0.802276 0.415087 -2.1877e-21)
(0.774371 0.386706 1.54495e-19)
(0.704465 0.340913 9.59573e-20)
(0.562392 0.265504 -2.23847e-19)
(0.378559 0.175955 2.65313e-19)
(0.204733 0.0944379 7.8537e-20)
(0.0733718 0.0337353 3.2404e-19)
(0.00448635 0.00209683 -8.65407e-19)
(0.23251 0.123704 -2.47907e-20)
(1.09649 0.581121 3.34969e-20)
(1.29768 0.693214 -2.26687e-20)
(1.32623 0.720244 -1.44973e-21)
(1.28129 0.710424 0)
(1.21279 0.687918 -2.46931e-20)
(1.14116 0.662482 1.15854e-19)
(1.06685 0.633435 8.93173e-20)
(0.98997 0.5987 0)
(0.912195 0.5564 -5.33843e-19)
(0.846609 0.512044 4.53052e-19)
(0.802603 0.474147 0)
(0.775196 0.443713 1.40934e-19)
(0.746108 0.413271 -2.2006e-21)
(0.676513 0.363656 -3.06378e-19)
(0.540865 0.283733 1.20006e-19)
(0.366942 0.189938 0)
(0.200441 0.102982 4.23903e-19)
(0.0731525 0.0373727 0)
(0.00519818 0.00267153 -4.09712e-19)
(0.231868 0.13281 2.98412e-20)
(1.08702 0.622606 4.37351e-20)
(1.28679 0.742893 -2.24692e-20)
(1.31316 0.770694 0)
(1.26718 0.759143 -1.59058e-20)
(1.19814 0.734376 0)
(1.12563 0.706627 -1.11562e-19)
(1.04993 0.675144 -4.02533e-20)
(0.971114 0.637759 4.24631e-20)
(0.89089 0.592474 -2.64097e-19)
(0.822808 0.54479 4.65908e-20)
(0.776926 0.50384 0)
(0.748255 0.471288 -3.00748e-19)
(0.717844 0.438524 2.193e-21)
(0.647824 0.384281 0)
(0.517444 0.299525 1.61215e-21)
(0.352112 0.201182 3.87552e-19)
(0.192504 0.108949 -3.66406e-19)
(0.0702658 0.0392636 1.07999e-19)
(0.00512499 0.00284298 0)
(0.231689 0.14179 0)
(1.07801 0.662048 5.29344e-20)
(1.27534 0.789902 3.32929e-20)
(1.29955 0.818321 -2.47049e-21)
(1.25263 0.805198 -1.34856e-21)
(1.18317 0.77845 -5.49007e-20)
(1.10991 0.748685 4.24776e-20)
(1.03295 0.715064 -4.85231e-20)
(0.952322 0.675344 1.90805e-19)
(0.869664 0.627332 -4.21667e-19)
(0.798978 0.57638 -3.74204e-21)
(0.751223 0.532594 -1.3091e-19)
(0.721369 0.498043 4.88314e-19)
(0.689282 0.462116 -2.5673e-21)
(0.618358 0.402296 -2.37784e-19)
(0.49227 0.312501 -4.24834e-19)
(0.334537 0.209433 0)
(0.181391 0.112159 0)
(0.0652062 0.0395727 1.16506e-19)
(0.00455183 0.00270442 -6.84097e-20)
(0.232093 0.150792 4.21681e-20)
(1.06946 0.699286 -1.2074e-19)
(1.26365 0.834304 -3.58247e-20)
(1.28569 0.863215 0)
(1.23791 0.848651 -1.53883e-21)
(1.16813 0.82017 -4.51595e-20)
(1.09425 0.78866 9.9188e-20)
(1.01614 0.753183 1.87595e-19)
(0.933796 0.711447 2.46718e-19)
(0.84869 0.660983 -3.43465e-19)
(0.77527 0.607011 -3.88928e-19)
(0.725558 0.560711 3.49984e-19)
(0.694355 0.523874 0)
(0.660183 0.483533 -1.07842e-19)
(0.588249 0.417474 -2.5734e-19)
(0.465914 0.322612 -3.05161e-19)
(0.314559 0.214494 -3.6154e-19)
(0.167538 0.112564 1.06849e-19)
(0.0582092 0.0382382 -6.28205e-20)
(0.00361232 0.00230281 2.67469e-22)
(0.23263 0.159711 0)
(1.06156 0.73489 0)
(1.25192 0.876208 2.53864e-21)
(1.27178 0.905456 0)
(1.22324 0.889591 -9.845e-21)
(1.15323 0.859596 2.62361e-20)
(1.07883 0.826573 0)
(0.99969 0.789506 2.16155e-20)
(0.915711 0.746066 4.09688e-19)
(0.828139 0.69347 -7.89666e-19)
(0.751849 0.636892 0)
(0.699981 0.588311 -2.25085e-19)
(0.667022 0.548463 -3.0479e-21)
(0.630413 0.502432 -2.4277e-21)
(0.557708 0.429869 2.74845e-19)
(0.438686 0.329824 -2.48399e-22)
(0.292432 0.21623 -7.78322e-19)
(0.151604 0.110134 2.29792e-19)
(0.0501097 0.0354522 6.79068e-20)
(0.00245681 0.00167927 0)
(0.233216 0.168475 -1.69103e-19)
(1.05402 0.768812 -8.18815e-20)
(1.24022 0.91568 -1.06658e-19)
(1.258 0.94515 1.04369e-19)
(1.2088 0.928096 -3.32847e-20)
(1.13864 0.896789 0)
(1.06379 0.862464 5.70706e-20)
(0.983733 0.824057 -4.86342e-20)
(0.898212 0.779218 3.86779e-21)
(0.80818 0.724856 5.83788e-20)
(0.728882 0.666172 5.02436e-19)
(0.674514 0.615373 -7.88088e-20)
(0.639236 0.571548 -3.00687e-19)
(0.599958 0.518759 -1.25625e-19)
(0.526895 0.439519 1.49484e-19)
(0.410859 0.333835 -6.30304e-23)
(0.269004 0.214462 2.0963e-19)
(0.134634 0.10512 -4.94209e-19)
(0.0416629 0.0315856 5.84144e-19)
(0.00123828 0.000925283 8.51656e-20)
(0.233678 0.176966 6.44236e-20)
(1.04686 0.801165 -4.62793e-20)
(1.22871 0.952819 6.23097e-21)
(1.24447 0.98242 6.77136e-20)
(1.1947 0.964274 1.3896e-20)
(1.12446 0.931817 -4.09645e-20)
(1.04927 0.896378 1.49335e-20)
(0.968389 0.856859 -2.01283e-19)
(0.881423 0.810906 -4.47993e-19)
(0.788954 0.755176 -4.68711e-19)
(0.706527 0.69492 0)
(0.649196 0.641824 -3.46555e-19)
(0.610947 0.593076 4.33473e-19)
(0.56877 0.532695 0)
(0.495698 0.446274 -3.19912e-19)
(0.382639 0.334089 1.91006e-19)
(0.245318 0.208972 -2.25222e-19)
(0.117966 0.0979368 -2.65828e-19)
(0.0336695 0.027131 -4.70319e-19)
(0.000101775 0.000153824 -3.66671e-19)
(0.23446 0.185318 -7.30089e-20)
(1.03995 0.831926 4.95195e-20)
(1.21743 0.987698 1.13121e-19)
(1.23128 1.01735 9.93437e-20)
(1.18104 0.998218 -2.57204e-20)
(1.11078 0.964764 -1.609e-20)
(1.03534 0.928366 5.09411e-20)
(0.953739 0.887955 -2.04402e-19)
(0.865424 0.841157 -2.64328e-19)
(0.770591 0.784462 4.88597e-19)
(0.684914 0.723139 1.10102e-18)
(0.624109 0.667625 0)
(0.582165 0.613237 0)
(0.536686 0.544614 -1.44619e-19)
(0.463655 0.449877 0)
(0.354009 0.329704 4.10704e-19)
(0.222545 0.199038 4.84269e-19)
(0.10354 0.0886884 0)
(0.0273869 0.0225691 0)
(-0.000792335 -0.000530058 3.93859e-19)
(0.234883 0.193223 8.32668e-20)
(1.0333 0.861082 6.7308e-20)
(1.20645 1.02044 8.23548e-20)
(1.2185 1.05007 -9.64164e-20)
(1.16788 1.03003 -3.48339e-20)
(1.09766 0.995702 8.01866e-21)
(1.02205 0.95849 -6.83037e-20)
(0.939845 0.917374 -2.08188e-22)
(0.850293 0.869978 -5.01725e-21)
(0.753188 0.812719 -5.08164e-21)
(0.664179 0.75079 5.66449e-19)
(0.599379 0.692793 0)
(0.552985 0.632405 4.38542e-19)
(0.503474 0.555033 3.0812e-19)
(0.429903 0.450277 7.46281e-19)
(0.324303 0.319501 2.21048e-19)
(0.20181 0.182416 -2.60703e-19)
(0.0951997 0.0750612 -1.53073e-19)
(0.0279907 0.0169969 0)
(0.000280887 -0.00042082 4.23008e-19)
(0.235599 0.20113 -1.88282e-19)
(1.02688 0.888731 0)
(1.19575 1.0511 9.7388e-20)
(1.20614 1.08067 -8.21354e-20)
(1.15527 1.05981 4.85832e-20)
(1.08514 1.02471 6.51747e-21)
(1.00945 0.986806 1.24191e-19)
(0.926738 0.945156 -1.74064e-20)
(0.83607 0.89738 0)
(0.736822 0.839915 -5.35549e-19)
(0.644445 0.777802 -1.22771e-18)
(0.575177 0.717415 5.0825e-20)
(0.523604 0.651046 6.04077e-19)
(0.468962 0.5646 0)
(0.393258 0.448029 5.03421e-19)
(0.291302 0.302665 0)
(0.181471 0.15422 0)
(0.0969057 0.0442716 -1.65605e-19)
(0.0556812 -0.000447618 0)
(0.0284638 0.011881 1.13311e-19)
(0.235932 0.208432 -2.10944e-19)
(1.02065 0.915205 0)
(1.18534 1.07988 1.62464e-19)
(1.19416 1.10939 0)
(1.14317 1.08782 -2.99242e-20)
(1.07316 1.05209 0)
(0.997478 1.01363 4.76907e-21)
(0.914324 0.971639 2.75741e-20)
(0.822636 0.923729 3.29324e-20)
(0.72133 0.866433 -5.85079e-19)
(0.625529 0.804562 3.65646e-20)
(0.551306 0.742136 4.0983e-19)
(0.493716 0.670053 5.88908e-19)
(0.432328 0.574123 7.97728e-20)
(0.351773 0.444643 3.94462e-19)
(0.250295 0.280314 0)
(0.150118 0.111095 5.5011e-19)
(0.0799965 -0.0066326 -3.22154e-19)
(0.0435395 0.0457705 3.732e-19)
(-0.0689791 0.435141 -4.39776e-19)
(0.23624 0.21553 1.75036e-19)
(1.01436 0.940284 2.69534e-19)
(1.17514 1.10711 0)
(1.18243 1.13667 5.07473e-21)
(1.13139 1.11462 8.90132e-20)
(1.06145 1.07851 -5.13729e-20)
(0.985822 1.03976 3.79981e-20)
(0.902196 0.997763 0)
(0.809464 0.950117 2.14426e-19)
(0.706049 0.893574 -3.0105e-20)
(0.606515 0.83251 0)
(0.526552 0.76866 0)
(0.461548 0.691107 5.26514e-19)
(0.391429 0.584528 -2.46762e-19)
(0.302292 0.442227 -3.99176e-19)
(0.196454 0.256419 0)
(0.0874641 0.111313 2.77242e-19)
(0.00496124 0.43997 -3.20637e-19)
(0.0340486 1.88723 -1.74772e-19)
(0.0634465 2.81013 -2.24006e-19)
(0.236359 0.221781 -1.31862e-19)
(1.0082 0.964148 -3.46505e-19)
(1.16516 1.13276 9.69097e-20)
(1.17093 1.16236 8.05937e-20)
(1.11995 1.13999 0)
(1.05009 1.10367 -4.71233e-20)
(0.974678 1.06489 4.42672e-20)
(0.890543 1.0231 -1.28724e-20)
(0.796821 0.976026 3.20679e-20)
(0.691348 0.920705 5.53734e-19)
(0.587983 0.860925 6.16035e-19)
(0.501868 0.796627 4.56234e-19)
(0.428041 0.714385 5.28457e-19)
(0.347944 0.594787 -5.78123e-19)
(0.250581 0.444095 -6.0177e-19)
(0.130724 0.292804 0)
(0.0459194 0.829547 0)
(0.102779 2.54937 1.5237e-19)
(0.103726 3.20031 0)
(0.106751 3.38779 3.62136e-19)
(0.239042 0.227468 0)
(1.00277 0.986991 0)
(1.15515 1.15668 0)
(1.15945 1.1863 2.43457e-20)
(1.10854 1.1637 8.20677e-20)
(1.03885 1.12747 -4.79257e-20)
(0.963943 1.08891 2.54079e-20)
(0.879324 1.04754 -1.22753e-20)
(0.784675 1.00133 2.62025e-19)
(0.677256 0.947675 -9.44395e-21)
(0.570067 0.88967 1.21123e-18)
(0.4776 0.825954 -5.26762e-20)
(0.39343 0.741068 6.36824e-20)
(0.3045 0.602523 8.35159e-20)
(0.188016 0.458029 -4.38057e-21)
(0.103184 0.960957 1.83909e-21)
(0.142407 2.71678 -8.01573e-19)
(0.150849 3.29204 -3.00687e-19)
(0.13931 3.42619 1.54273e-19)
(0.126259 3.44849 -1.70796e-19)
(0.156753 0.183874 7.82278e-20)
(0.992087 1.01158 0)
(1.14483 1.17911 -1.95731e-19)
(1.1485 1.20894 -2.17837e-19)
(1.098 1.18655 1.93531e-19)
(1.02867 1.15057 5.55075e-20)
(0.953593 1.11187 -2.18856e-20)
(0.86867 1.0712 1.24164e-19)
(0.773208 1.02618 -2.11426e-19)
(0.664057 0.974638 0)
(0.553161 0.91892 5.91374e-19)
(0.454335 0.856592 -3.7036e-19)
(0.35836 0.774248 0)
(0.255564 0.610266 7.74139e-20)
(0.150064 0.769357 1.86353e-19)
(0.158211 2.48714 -2.17699e-19)
(0.215866 3.32342 2.44033e-19)
(0.195287 3.43991 1.30322e-19)
(0.162244 3.46147 1.46509e-19)
(0.140161 3.47174 2.29646e-19)
(0.282516 0.266436 -1.42714e-19)
(0.977161 1.02178 0)
(1.12689 1.20465 2.12552e-19)
(1.13405 1.24051 2.40452e-19)
(1.08104 1.21974 -2.14833e-19)
(1.01108 1.18417 -7.92951e-20)
(0.935091 1.14708 -1.45277e-22)
(0.849705 1.10771 9.8747e-21)
(0.753007 1.06491 1.95582e-19)
(0.641336 1.0174 4.66524e-19)
(0.525224 0.966769 3.28775e-20)
(0.415636 0.90806 3.26212e-19)
(0.296451 0.819422 5.89717e-20)
(0.215053 0.943714 -7.55941e-20)
(0.231641 2.33696 -1.7234e-19)
(0.29308 3.32667 1.62401e-19)
(0.27621 3.46993 -1.77843e-19)
(0.240521 3.49163 -1.02555e-19)
(0.203098 3.5192 -8.22085e-20)
(0.151501 3.51304 -9.78757e-21)
(0.270492 0.263353 0)
(0.97503 1.04469 6.14724e-20)
(1.11885 1.22825 -4.38642e-20)
(1.12378 1.26417 -2.8652e-20)
(1.07053 1.24304 -1.48797e-19)
(1.00059 1.20767 8.20259e-20)
(0.924311 1.17076 8.39731e-21)
(0.838775 1.13223 8.45602e-21)
(0.741635 1.09094 -2.00048e-19)
(0.628832 1.04625 -1.4014e-20)
(0.510018 0.999405 -1.05528e-18)
(0.395821 0.944651 4.65024e-20)
(0.283618 0.886397 -5.53381e-20)
(0.256414 1.48356 -6.93551e-20)
(0.331758 3.09742 1.7951e-20)
(0.35197 3.46801 5.79537e-22)
(0.311431 3.5244 2.42912e-19)
(0.273906 3.55068 1.13634e-19)
(0.225028 3.57409 -1.83184e-20)
(0.165916 3.57002 -4.11101e-20)
(0.254129 0.261747 1.55983e-19)
(0.971317 1.07029 4.19878e-19)
(1.11038 1.25398 -1.26012e-19)
(1.11294 1.28926 -1.08444e-19)
(1.05945 1.26769 0)
(0.989691 1.23236 1.45822e-19)
(0.913411 1.1957 2.73688e-20)
(0.827999 1.15799 6.92729e-21)
(0.730733 1.11829 -2.24437e-20)
(0.617286 1.07656 -4.10449e-19)
(0.496561 1.03371 -4.81356e-19)
(0.379762 0.983216 -3.77071e-19)
(0.281837 1.01594 -4.15636e-19)
(0.325254 2.19333 4.30578e-19)
(0.418309 3.37658 3.52954e-19)
(0.396189 3.52614 0)
(0.350383 3.57099 0)
(0.312163 3.61177 -1.2433e-20)
(0.260981 3.6721 0)
(0.178073 3.64822 -9.757e-22)
(0.243292 0.263615 -2.34043e-19)
(0.965622 1.09699 -3.56959e-19)
(1.1005 1.28095 0)
(1.10077 1.31512 6.07844e-21)
(1.04712 1.29295 -1.60666e-19)
(0.977676 1.25753 2.3516e-19)
(0.901736 1.22118 2.65634e-20)
(0.816648 1.18418 2.05354e-21)
(0.719496 1.14598 -1.31904e-19)
(0.605798 1.10712 1.98252e-20)
(0.484 1.06828 0)
(0.363803 1.02481 0)
(0.306147 1.26931 -3.75185e-19)
(0.408285 2.87259 1.51628e-19)
(0.490166 3.48549 1.87273e-19)
(0.442469 3.55901 0)
(0.40188 3.62251 1.62726e-20)
(0.366701 3.68184 -7.75871e-20)