/*--------------------------------*- C++ -*----------------------------------*\
  =========                 |
  \\      /  F ield         | OpenFOAM: The Open Source CFD Toolbox
   \\    /   O peration     | Website:  https://openfoam.org
    \\  /    A nd           | Version:  10
     \\/     M anipulation  |
\*---------------------------------------------------------------------------*/
FoamFile
{
    format      ascii;
    class       volVectorField;
    location    "39";
    object      U;
}
// * * * * * * * * * * * * * * * * * * * * * * * * * * * * * * * * * * * * * //

dimensions      [0 1 -1 0 0 0 0];

internalField   nonuniform List<vector> 
8800
(
(0.980152 -0.0915212 0)
(1.00234 -0.0587241 0)
(0.999601 -0.0321255 0)
(0.999993 -0.016518 0)
(1.00006 -0.00883351 0)
(1.00005 -0.00508491 0)
(1.00003 -0.00299172 0)
(1.00001 -0.00169666 0)
(0.999988 -0.000801224 0)
(1.00006 -0.000105169 0)
(0.999986 0.000597259 0)
(0.999998 0.00134668 0)
(1.00001 0.00237736 0)
(1.00002 0.00399072 0)
(1.00003 0.00674185 0)
(0.999987 0.0120453 0)
(0.999802 0.0230936 0)
(0.999039 0.0431582 0)
(1.00723 0.079028 0)
(0.775023 0.0478396 0)
(0.358977 -0.014749 0)
(1.04649 -0.0724929 0)
(1.08848 -0.0660299 0)
(1.04946 -0.0509241 0)
(1.02554 -0.0377038 0)
(1.0127 -0.0258957 0)
(1.00654 -0.0167115 0)
(1.00361 -0.0102464 0)
(1.00218 -0.00563011 0)
(1.00151 -0.00204591 0)
(1.00138 0.00116079 0)
(1.00174 0.00446246 0)
(1.00271 0.00835389 0)
(1.00473 0.0136809 0)
(1.00896 0.0213743 0)
(1.01794 0.0318736 0)
(1.03579 0.044651 0)
(1.06742 0.0580979 0)
(1.09471 0.0699644 0)
(0.845653 0.0555044 0)
(0.21776 -0.00138155 0)
(1.07567 -0.0506666 0)
(1.09942 -0.0489531 0)
(1.06438 -0.0400386 0)
(1.03986 -0.0325775 0)
(1.02375 -0.0253663 0)
(1.01398 -0.0181745 0)
(1.00849 -0.011582 0)
(1.00564 -0.00584378 0)
(1.00448 -0.000564936 0)
(1.00479 0.00453717 0)
(1.00665 0.0098214 0)
(1.01057 0.0158011 0)
(1.01788 0.0225766 0)
(1.0305 0.0297011 0)
(1.05049 0.0367969 0)
(1.08005 0.0445772 0)
(1.10568 0.0519103 0)
(0.943322 0.0409978 0)
(0.217234 0.00140354 0)
(0.176601 -0.000629285 0)
(1.01936 -0.035481 0)
(1.10571 -0.0414357 0)
(1.07796 -0.036422 0)
(1.05239 -0.0303754 0)
(1.03515 -0.0245089 0)
(1.02331 -0.018749 0)
(1.01551 -0.01278 0)
(1.01092 -0.00670924 0)
(1.0089 -0.000495491 0)
(1.00944 0.00564521 0)
(1.01253 0.0115536 0)
(1.01847 0.017334 0)
(1.02806 0.0229319 0)
(1.04228 0.0285058 0)
(1.0631 0.0343027 0)
(1.09389 0.0401978 0)
(1.09448 0.0417372 0)
(0.83033 0.0227577 0)
(0.175701 0.000646716 0)
(0.154673 -0.000463176 0)
(0.958084 -0.0257113 0)
(1.10436 -0.0351513 0)
(1.08804 -0.0327113 0)
(1.06117 -0.0282107 0)
(1.04312 -0.0232648 0)
(1.03075 -0.0180014 0)
(1.02217 -0.0124953 0)
(1.01664 -0.00662189 0)
(1.014 -0.000198278 0)
(1.01467 0.00624465 0)
(1.01847 0.012106 0)
(1.02525 0.0174282 0)
(1.03538 0.0224665 0)
(1.05014 0.0273266 0)
(1.07208 0.0317872 0)
(1.10106 0.0356745 0)
(1.06981 0.0339046 0)
(0.742791 0.0144243 0)
(0.153328 0.000482744 0)
(0.139968 -0.000335315 0)
(0.900998 -0.0193503 0)
(1.09672 -0.0302689 0)
(1.09614 -0.0294026 0)
(1.06884 -0.0256262 0)
(1.04999 -0.0215642 0)
(1.03705 -0.0169173 0)
(1.02808 -0.0117153 0)
(1.02217 -0.00603895 0)
(1.01921 0.000269472 0)
(1.01986 0.00660762 0)
(1.02389 0.0122433 0)
(1.03092 0.0172307 0)
(1.04143 0.0217238 0)
(1.05683 0.0257093 0)
(1.07964 0.0292594 0)
(1.10343 0.0319989 0)
(1.03816 0.0280343 0)
(0.67616 0.0102663 0)
(0.138079 0.00035844 0)
(0.129207 -0.000254048 0)
(0.851034 -0.0149544 0)
(1.08429 -0.0261785 0)
(1.10176 -0.0265533 0)
(1.07561 -0.0232614 0)
(1.05624 -0.0196507 0)
(1.04288 -0.0155121 0)
(1.03356 -0.0106986 0)
(1.02737 -0.00525678 0)
(1.0242 0.000852164 0)
(1.02476 0.00696419 0)
(1.02883 0.0123102 0)
(1.03603 0.0168803 0)
(1.04682 0.0207928 0)
(1.06261 0.0241858 0)
(1.08588 0.0272517 0)
(1.10275 0.0290952 0)
(1.00369 0.0234477 0)
(0.624379 0.00784839 0)
(0.126656 0.000282101 0)
(0.121 -0.000195313 0)
(0.808445 -0.0117659 0)
(1.06887 -0.0225829 0)
(1.10518 -0.0239258 0)
(1.08176 -0.0210886 0)
(1.06194 -0.0177133 0)
(1.04832 -0.0138797 0)
(1.03873 -0.00942633 0)
(1.03229 -0.00429311 0)
(1.02891 0.00155833 0)
(1.02934 0.0073848 0)
(1.03338 0.0123599 0)
(1.04065 0.016459 0)
(1.05157 0.0198896 0)
(1.06762 0.0228773 0)
(1.09129 0.0256529 0)
(1.09923 0.0266151 0)
(0.968943 0.0198097 0)
(0.582987 0.00625913 0)
(0.117644 0.000229292 0)
(0.114631 -0.000150985 0)
(0.772523 -0.00937599 0)
(1.05189 -0.0194163 0)
(1.10743 -0.0215161 0)
(1.08753 -0.0190791 0)
(1.06728 -0.0158871 0)
(1.05338 -0.0122365 0)
(1.04363 -0.00799769 0)
(1.03697 -0.00312963 0)
(1.03336 0.00241292 0)
(1.03361 0.00788458 0)
(1.03756 0.0124589 0)
(1.04479 0.0161617 0)
(1.05577 0.0192353 0)
(1.0721 0.0218936 0)
(1.0955 0.0243345 0)
(1.09302 0.0245075 0)
(0.935292 0.0169551 0)
(0.549009 0.0051545 0)
(0.110296 0.000192128 0)
(0.109656 -0.000115873 0)
(0.742367 -0.00751624 0)
(1.03441 -0.0165869 0)
(1.10863 -0.0192239 0)
(1.09291 -0.0171373 0)
(1.07239 -0.0140775 0)
(1.05824 -0.0105483 0)
(1.04829 -0.00646589 0)
(1.04143 -0.00181702 0)
(1.03757 0.00343883 0)
(1.0376 0.00856058 0)
(1.04139 0.0127377 0)
(1.04852 0.0160583 0)
(1.0595 0.0187925 0)
(1.07606 0.0211599 0)
(1.09845 0.0232408 0)
(1.08447 0.0226887 0)
(0.903394 0.0147237 0)
(0.520431 0.00436383 0)
(0.104132 0.000165993 0)
(0.105785 -8.71033e-05 0)
(0.717178 -0.00601254 0)
(1.01731 -0.0140387 0)
(1.109 -0.0169927 0)
(1.09817 -0.0151921 0)
(1.07736 -0.0121608 0)
(1.06291 -0.00871061 0)
(1.05276 -0.00476516 0)
(1.04569 -0.000294385 0)
(1.04157 0.00468089 0)
(1.04129 0.00943163 0)
(1.04482 0.0132286 0)
(1.0518 0.0161796 0)
(1.0628 0.0185536 0)
(1.0796 0.0206333 0)
(1.10013 0.0223747 0)
(1.07407 0.0211504 0)
(0.873464 0.0130027 0)
(0.495844 0.00379454 0)
(0.0988149 0.000148173 0)
(0.10283 -6.20194e-05 0)
(0.696343 -0.0047395 0)
(1.0012 -0.0116851 0)
(1.10862 -0.014795 0)
(1.10322 -0.0132632 0)
(1.08227 -0.0102599 0)
(1.06749 -0.00682405 0)
(1.05709 -0.00291709 0)
(1.04974 0.00143443 0)
(1.04528 0.00616996 0)
(1.04464 0.0105743 0)
(1.04788 0.0139928 0)
(1.05469 0.016584 0)
(1.06569 0.0186371 0)
(1.08267 0.0204343 0)
(1.10086 0.0217646 0)
(1.06214 0.019882 0)
(0.845434 0.0116815 0)
(0.474221 0.0033856 0)
(0.0940928 0.000136808 0)
(0.100673 -3.85708e-05 0)
(0.679433 -0.00360772 0)
(0.986588 -0.00945046 0)
(1.10767 -0.0124827 0)
(1.10792 -0.0111138 0)
(1.08716 -0.00811948 0)
(1.07205 -0.0046727 0)
(1.06134 -0.000801901 0)
(1.05363 0.00343952 0)
(1.04874 0.00797731 0)
(1.04765 0.0120685 0)
(1.05055 0.015101 0)
(1.05716 0.0173126 0)
(1.06814 0.0190222 0)
(1.08521 0.0204821 0)
(1.10055 0.0213867 0)
(1.04895 0.018863 0)
(0.819124 0.0106903 0)
(0.454795 0.00310042 0)
(0.0897805 0.00013084 0)
(0.0992566 -1.53801e-05 0)
(0.666189 -0.00254845 0)
(0.973889 -0.00726587 0)
(1.10657 -0.0100375 0)
(1.11252 -0.00872957 0)
(1.0921 -0.00568984 0)
(1.0766 -0.00219768 0)
(1.06553 0.00167522 0)
(1.05742 0.00585375 0)
(1.05201 0.0101842 0)
(1.05038 0.0139075 0)
(1.05284 0.0165093 0)
(1.05917 0.0182617 0)
(1.07012 0.0195598 0)
(1.08729 0.0207364 0)
(1.09923 0.0212543 0)
(1.03473 0.0180895 0)
(0.794288 0.00996743 0)
(0.436975 0.00291047 0)
(0.0857323 0.000128625 0)
(0.0985656 9.01413e-06 0)
(0.656485 -0.0015042 0)
(0.963406 -0.00505558 0)
(1.10556 -0.00742526 0)
(1.11707 -0.00615927 0)
(1.09714 -0.00309404 0)
(1.08124 0.000524602 0)
(1.06976 0.00450683 0)
(1.06113 0.00868975 0)
(1.05507 0.0128704 0)
(1.05278 0.0162662 0)
(1.05471 0.0184485 0)
(1.06071 0.0197972 0)
(1.07158 0.0206833 0)
(1.08876 0.0214381 0)
(1.09679 0.0214112 0)
(1.01955 0.0175863 0)
(0.770612 0.00947792 0)
(0.420272 0.00280468 0)
(0.0818158 0.000131097 0)
(0.0986198 2.84503e-05 0)
(0.650324 -0.000418912 0)
(0.955512 -0.00273701 0)
(1.10493 -0.00448492 0)
(1.1216 -0.00313705 0)
(1.10236 1.17835e-05 0)
(1.08606 0.00380399 0)
(1.07406 0.00790276 0)
(1.0648 0.012115 0)
(1.05797 0.0161612 0)
(1.05484 0.0191984 0)
(1.0561 0.0208712 0)
(1.0617 0.0216692 0)
(1.07245 0.0220399 0)
(1.08941 0.0223757 0)
(1.09298 0.0218209 0)
(1.00349 0.0173016 0)
(0.747839 0.00919935 0)
(0.404287 0.00276957 0)
(0.0779332 0.000135844 0)
(0.0994987 7.01644e-05 0)
(0.647869 0.000728894 0)
(0.950564 -0.000260252 0)
(1.10521 -0.0012047 0)
(1.12646 0.000411549 0)
(1.10782 0.00372941 0)
(1.09102 0.00770767 0)
(1.0784 0.0119618 0)
(1.06836 0.0162586 0)
(1.06053 0.0201868 0)
(1.05641 0.0228379 0)
(1.0569 0.0239793 0)
(1.062 0.0241772 0)
(1.0726 0.0239647 0)
(1.08906 0.0237817 0)
(1.08777 0.0225779 0)
(0.986557 0.0173566 0)
(0.725578 0.00914918 0)
(0.388602 0.00281486 0)
(0.0739718 0.000145142 0)
(0.101351 9.81204e-05 0)
(0.649327 0.00192057 0)
(0.948826 0.00241565 0)
(1.10672 0.00243209 0)
(1.13182 0.00431119 0)
(1.11365 0.00788287 0)
(1.09632 0.0122007 0)
(1.08304 0.0167831 0)
(1.07212 0.0212761 0)
(1.06311 0.0251184 0)
(1.05775 0.027348 0)
(1.05721 0.0279103 0)
(1.06161 0.0274758 0)
(1.07194 0.0266738 0)
(1.08765 0.0258005 0)
(1.08111 0.0237972 0)
(0.968524 0.0177302 0)
(0.703439 0.00932655 0)
(0.372824 0.00293437 0)
(0.0698261 0.000157666 0)
(0.104275 0.000146423 0)
(0.655309 0.00340653 0)
(0.950836 0.00541775 0)
(1.10984 0.00665265 0)
(1.13768 0.0089499 0)
(1.12 0.0128979 0)
(1.1021 0.017667 0)
(1.0879 0.0226496 0)
(1.07575 0.0273728 0)
(1.06524 0.0311675 0)
(1.05838 0.0329654 0)
(1.05671 0.0328224 0)
(1.06035 0.0316353 0)
(1.07028 0.0301485 0)
(1.08484 0.028507 0)
(1.07257 0.025492 0)
(0.949256 0.0185387 0)
(0.680942 0.0097715 0)
(0.356526 0.00313263 0)
(0.0654082 0.000171485 0)
(0.108579 0.000211949 0)
(0.666109 0.00512532 0)
(0.956958 0.00887883 0)
(1.11519 0.0115259 0)
(1.14448 0.0145361 0)
(1.12707 0.0190991 0)
(1.10847 0.0244071 0)
(1.09318 0.029848 0)
(1.07959 0.0348565 0)
(1.06729 0.0385673 0)
(1.05859 0.0398045 0)
(1.05549 0.038882 0)
(1.05809 0.0368214 0)
(1.06747 0.0344949 0)
(1.08049 0.0320652 0)
(1.06204 0.0279591 0)
(0.928392 0.0199807 0)
(0.657413 0.0105772 0)
(0.339154 0.00343652 0)
(0.0606193 0.000186991 0)
(0.114569 0.000296715 0)
(0.682309 0.00717117 0)
(0.96786 0.0129364 0)
(1.12334 0.0170969 0)
(1.15275 0.0209945 0)
(1.13515 0.0263933 0)
(1.11558 0.0324462 0)
(1.09893 0.0385413 0)
(1.08354 0.0439677 0)
(1.06903 0.047632 0)
(1.05813 0.0482585 0)
(1.05331 0.0464052 0)
(1.05472 0.0433679 0)
(1.06347 0.0401316 0)
(1.07457 0.0368604 0)
(1.04924 0.0314613 0)
(0.905346 0.0222064 0)
(0.631966 0.01185 0)
(0.319973 0.00386912 0)
(0.0553373 0.000204737 0)
(0.122668 0.000413064 0)
(0.704602 0.00977224 0)
(0.984055 0.0178577 0)
(1.13467 0.0237451 0)
(1.16279 0.0287052 0)
(1.14456 0.0352354 0)
(1.12372 0.042355 0)
(1.10528 0.04935 0)
(1.08757 0.0552391 0)
(1.07031 0.0587166 0)
(1.05684 0.0585109 0)
(1.05003 0.055559 0)
(1.05007 0.0514791 0)
(1.05805 0.0472865 0)
(1.06691 0.0430028 0)
(1.03373 0.0361209 0)
(0.879515 0.0253785 0)
(0.603451 0.0136265 0)
(0.29814 0.00442867 0)
(0.0494131 0.000225765 0)
(0.133575 0.000582428 0)
(0.734044 0.013298 0)
(1.00655 0.0241036 0)
(1.14999 0.0320894 0)
(1.17524 0.0385112 0)
(1.15582 0.0466486 0)
(1.13328 0.0550687 0)
(1.1124 0.0629845 0)
(1.09172 0.0691761 0)
(1.07117 0.072199 0)
(1.05467 0.0708595 0)
(1.04562 0.0665482 0)
(1.04417 0.0612373 0)
(1.05116 0.0559961 0)
(1.05727 0.0506265 0)
(1.01522 0.0421321 0)
(0.850025 0.0295638 0)
(0.570592 0.0158524 0)
(0.272913 0.00508245 0)
(0.0427332 0.000248677 0)
(0.14847 0.000850414 0)
(0.772408 0.0183892 0)
(1.03687 0.0324778 0)
(1.17043 0.0430934 0)
(1.19114 0.0517607 0)
(1.1693 0.0617505 0)
(1.14414 0.0715276 0)
(1.11994 0.0801731 0)
(1.09553 0.0863467 0)
(1.07108 0.0884848 0)
(1.05119 0.0855813 0)
(1.03972 0.0795893 0)
(1.03667 0.072795 0)
(1.04269 0.0662916 0)
(1.04533 0.0598114 0)
(0.993167 0.0496284 0)
(0.815633 0.0346467 0)
(0.532229 0.0183817 0)
(0.243831 0.00576242 0)
(0.035258 0.000269738 0)
(0.169493 0.00131849 0)
(0.822878 0.0262579 0)
(1.07777 0.0447113 0)
(1.19705 0.0585401 0)
(1.21111 0.0699791 0)
(1.18509 0.081777 0)
(1.15607 0.0927239 0)
(1.12762 0.101678 0)
(1.09875 0.107315 0)
(1.06986 0.107997 0)
(1.04625 0.103077 0)
(1.03215 0.095057 0)
(1.02748 0.0864873 0)
(1.03232 0.0786144 0)
(1.03076 0.0707693 0)
(0.966451 0.0584166 0)
(0.775095 0.0403971 0)
(0.487667 0.0210368 0)
(0.210976 0.0063839 0)
(0.0271228 0.000280761 0)
(0.200041 0.00236903 0)
(0.891191 0.0397629 0)
(1.13189 0.0646491 0)
(1.22994 0.0818679 0)
(1.23479 0.0959962 0)
(1.20261 0.108994 0)
(1.16841 0.120261 0)
(1.13475 0.128602 0)
(1.10076 0.132722 0)
(1.06701 0.131073 0)
(1.03953 0.123499 0)
(1.02273 0.113151 0)
(1.01632 0.102645 0)
(1.01966 0.093172 0)
(1.01262 0.0835263 0)
(0.933799 0.0682023 0)
(0.727406 0.0465717 0)
(0.437185 0.0236934 0)
(0.175483 0.0069271 0)
(0.0187798 0.000275754 0)
(0.241761 0.00862495 5.5743e-20)
(0.981474 0.0670807 4.85127e-20)
(1.19702 0.0986204 -1.68519e-20)
(1.26632 0.11705 0)
(1.25933 0.133843 -4.17782e-34)
(1.21989 0.146232 6.07502e-21)
(1.1798 0.156164 -1.07579e-20)
(1.14032 0.162549 0)
(1.1007 0.164034 2.16652e-34)
(1.06168 0.159133 -1.29178e-20)
(1.02995 0.148212 0)
(1.01019 0.135229 -1.51482e-20)
(1.00169 0.122875 -4.45509e-20)
(1.00273 0.111924 -2.10062e-20)
(0.98914 0.100611 -6.30409e-21)
(0.89147 0.0820627 -3.74043e-21)
(0.667057 0.0549 0)
(0.378093 0.0273293 2.62109e-21)
(0.138189 0.00829859 3.09645e-21)
(0.0109511 0.000490976 5.57115e-20)
(0.270584 0.0240911 4.31883e-20)
(1.05568 0.109736 5.19816e-22)
(1.24999 0.147304 4.61102e-21)
(1.29946 0.16601 0)
(1.28094 0.182315 -2.16161e-20)
(1.23484 0.192818 -2.43207e-20)
(1.18885 0.200704 -1.09638e-20)
(1.14326 0.204769 -3.84538e-20)
(1.0975 0.203469 0)
(1.05232 0.195202 5.52168e-20)
(1.01519 0.180782 5.44357e-20)
(0.991523 0.164842 1.61267e-20)
(0.98031 0.150281 5.84262e-20)
(0.977337 0.137791 8.17263e-20)
(0.953407 0.124264 0)
(0.834145 0.100658 1.15154e-19)
(0.596314 0.0659231 1.65405e-19)
(0.318463 0.0326961 1.83821e-19)
(0.105162 0.010165 -2.10315e-19)
(0.00447821 0.000454538 -3.94661e-21)
(0.271055 0.0397146 0)
(1.1021 0.165172 8.17106e-21)
(1.28587 0.207288 0)
(1.32539 0.225893 -2.97597e-20)
(1.29804 0.238858 0)
(1.24626 0.245885 -4.85219e-20)
(1.19462 0.250281 2.25861e-20)
(1.14313 0.250878 -7.81353e-20)
(1.09145 0.246051 -1.56598e-21)
(1.04037 0.234278 2.87617e-20)
(0.998026 0.21698 1.19826e-19)
(0.970516 0.199101 -3.01681e-22)
(0.956705 0.183297 -4.25136e-20)
(0.950127 0.169266 -7.73006e-20)
(0.916814 0.151714 9.15781e-20)
(0.790119 0.121652 -1.62134e-19)
(0.558259 0.0800534 -2.14302e-20)
(0.297427 0.0409632 0)
(0.099424 0.0133535 5.17264e-24)
(0.00383377 0.0005622 0)
(0.264407 0.053265 1.20335e-19)
(1.1266 0.223821 -5.67652e-20)
(1.30841 0.271981 -4.1068e-20)
(1.34272 0.29066 1.44431e-20)
(1.30923 0.299758 -2.41105e-20)
(1.25306 0.302622 1.02187e-19)
(1.19662 0.302798 4.74031e-20)
(1.14004 0.299329 0)
(1.0832 0.29071 -1.45805e-19)
(1.02697 0.275576 0)
(0.980019 0.255933 -6.31789e-20)
(0.948808 0.236616 -7.74375e-20)
(0.931549 0.219366 -4.64063e-20)
(0.919708 0.202381 -5.62511e-20)
(0.880092 0.180161 0)
(0.757276 0.145211 0)
(0.541438 0.0988745 -1.40464e-19)
(0.298946 0.0536581 2.77569e-20)
(0.106934 0.0190863 -1.62747e-20)
(0.00623807 0.00118217 -1.90273e-20)
(0.256793 0.0652936 -5.78719e-20)
(1.13686 0.282207 0)
(1.32106 0.337547 8.9024e-20)
(1.35244 0.35664 4.18857e-20)
(1.31462 0.361968 5.49462e-20)
(1.25505 0.360502 0)
(1.19476 0.356326 4.70122e-20)
(1.13409 0.348739 8.70875e-20)
(1.07301 0.336355 7.51282e-20)
(1.01244 0.317914 1.35649e-19)
(0.961519 0.295633 0)
(0.926641 0.274121 -1.67275e-19)
(0.905045 0.25445 -1.00442e-19)
(0.887254 0.234321 -5.92731e-20)
(0.844303 0.208972 3.6356e-19)
(0.731438 0.17162 4.33558e-20)
(0.534078 0.121208 2.04241e-19)
(0.307663 0.0694986 -9.6528e-19)
(0.119592 0.027213 5.73032e-19)
(0.0103147 0.00247801 -6.90628e-19)
(0.249602 0.0761582 -3.9795e-20)
(1.13794 0.338473 1.0888e-20)
(1.3262 0.402062 -1.08113e-20)
(1.35597 0.421994 -4.63223e-20)
(1.31504 0.423696 -4.86988e-20)
(1.25277 0.417951 1.75463e-21)
(1.18948 0.409601 -5.08608e-20)
(1.12558 0.398111 9.04998e-20)
(1.06105 0.382108 -1.6168e-19)
(0.996805 0.360194 0)
(0.942241 0.33461 -7.60285e-20)
(0.903771 0.310011 -1.61419e-21)
(0.877761 0.287375 -1.09799e-19)
(0.85504 0.264708 0)
(0.81165 0.237734 -7.87259e-20)
(0.709005 0.199382 -1.87432e-19)
(0.52895 0.145144 5.02251e-19)
(0.316927 0.0870523 -4.93632e-19)
(0.131791 0.036617 7.02407e-19)
(0.0142533 0.00414945 -7.29873e-19)
(0.243616 0.0862172 -4.10305e-22)
(1.13328 0.391989 -7.27121e-21)
(1.32581 0.464543 -3.58166e-20)
(1.35448 0.485572 2.02972e-20)
(1.31137 0.483924 -2.48126e-20)
(1.24702 0.474138 0)
(1.1814 0.461938 -4.82943e-20)
(1.11492 0.446849 -9.49878e-20)
(1.0475 0.427357 -8.42915e-20)
(0.979953 0.401755 0)
(0.921982 0.372334 -7.90774e-20)
(0.880106 0.344266 -9.73269e-20)
(0.850316 0.318759 1.18976e-19)
(0.824149 0.294213 -7.20848e-20)
(0.781491 0.266336 -3.42975e-19)
(0.688393 0.226964 2.05039e-19)
(0.522794 0.169395 6.14752e-20)
(0.323174 0.104929 0)
(0.141159 0.0463538 -6.78289e-19)
(0.0174747 0.00594559 -2.48632e-20)
(0.238916 0.0957913 -2.47974e-21)
(1.12518 0.442619 4.99856e-21)
(1.32124 0.524606 1.78252e-20)
(1.34906 0.54672 6.98607e-20)
(1.30439 0.542081 -9.4616e-20)
(1.23855 0.528639 1.0247e-19)
(1.17117 0.512986 1.03777e-19)
(1.10257 0.494604 -1.51759e-19)
(1.03259 0.471744 5.12639e-20)
(0.961964 0.442302 -3.33442e-19)
(0.900768 0.408829 -8.90412e-20)
(0.855887 0.377277 0)
(0.823166 0.349243 1.28806e-19)
(0.794836 0.323291 1.53929e-19)
(0.753285 0.294927 1.84188e-19)
(0.666872 0.254244 -2.22135e-19)
(0.513821 0.193322 -6.57776e-20)
(0.324285 0.122232 7.73858e-20)
(0.146057 0.0554441 0)
(0.0195427 0.00758697 -5.3836e-20)
(0.235408 0.105046 3.68089e-21)
(1.11526 0.49054 -9.81902e-21)
(1.31379 0.582495 -1.72771e-20)
(1.34061 0.605146 4.44096e-20)
(1.29482 0.597887 -4.444e-20)
(1.228 0.581206 -4.05023e-21)
(1.15929 0.562527 -1.12896e-19)
(1.0889 0.54115 -5.47732e-20)
(1.01658 0.51504 -1.46134e-19)
(0.943012 0.481745 2.50936e-22)
(0.878779 0.444215 -2.79025e-19)
(0.831292 0.409305 2.3356e-19)
(0.796407 0.378916 -1.41003e-19)
(0.766826 0.351587 1.69027e-19)
(0.72641 0.322224 0)
(0.645078 0.279637 -1.19996e-19)
(0.501646 0.215278 -5.86016e-22)
(0.32041 0.137392 -3.36056e-19)
(0.146019 0.062787 -4.94062e-20)
(0.0202396 0.00877981 0)
(0.232967 0.114134 0)
(1.10458 0.536011 -6.88262e-21)
(1.30409 0.637363 -2.54123e-20)
(1.32984 0.66071 -4.26521e-20)
(1.2833 0.651196 -5.39079e-20)
(1.2159 0.631725 0)
(1.14619 0.610404 -5.2508e-20)
(1.07424 0.586303 -1.15093e-21)
(0.999729 0.557103 3.12783e-19)
(0.92333 0.520054 -4.58898e-20)
(0.856218 0.478581 -2.01182e-19)
(0.806449 0.440412 1.21665e-19)
(0.769929 0.407676 -2.0791e-21)
(0.739553 0.378774 1.79585e-19)
(0.69996 0.347894 1.10587e-19)
(0.622531 0.302812 -2.58854e-19)
(0.486533 0.234417 3.07181e-19)
(0.311684 0.149709 9.08629e-20)
(0.142168 0.067927 3.74935e-19)
(0.0198209 0.00943085 -1.00276e-18)
(0.231545 0.123178 -7.07314e-21)
(1.09383 0.5792 4.38439e-21)
(1.29303 0.689319 1.28766e-21)
(1.31741 0.713375 3.72935e-20)
(1.27036 0.70193 0)
(1.2027 0.680108 -4.95274e-20)
(1.13223 0.656498 1.74752e-19)
(1.05888 0.629923 1.20315e-19)
(0.982296 0.597825 0)
(0.903157 0.557217 -6.58137e-19)
(0.833278 0.511961 5.42858e-19)
(0.781438 0.470576 0)
(0.743596 0.435377 1.64032e-19)
(0.712683 0.404643 -2.0468e-21)
(0.673658 0.371868 -3.52549e-19)
(0.598859 0.323771 1.38181e-19)
(0.468242 0.250531 0)
(0.298679 0.158834 4.89425e-19)
(0.134657 0.0706899 0)
(0.0183372 0.00947961 -4.73314e-19)
(0.230944 0.13227 1.09329e-20)
(1.08349 0.620304 1.26358e-20)
(1.28111 0.738414 3.11303e-21)
(1.30385 0.763171 0)
(1.25647 0.750089 -4.89558e-20)
(1.18878 0.726307 0)
(1.11773 0.700707 -1.74403e-19)
(1.0431 0.671902 -5.67949e-20)
(0.964542 0.637141 5.54698e-20)
(0.882738 0.593229 -3.25286e-19)
(0.810128 0.544374 5.61605e-20)
(0.756287 0.499765 0)
(0.717287 0.461923 -3.49995e-19)
(0.685942 0.429026 2.07158e-21)
(0.647252 0.393864 0)
(0.574143 0.342115 2.06158e-21)
(0.447044 0.263153 4.45924e-19)
(0.281853 0.164306 -4.2252e-19)
(0.12429 0.0711562 1.24502e-19)
(0.0161872 0.00906225 0)
(0.230832 0.141264 0)
(1.07383 0.659402 1.97154e-20)
(1.26865 0.784789 6.02199e-21)
(1.28963 0.810134 -2.40472e-21)
(1.24204 0.79569 -1.90558e-20)
(1.17445 0.770293 -1.10912e-19)
(1.10294 0.742965 6.47098e-20)
(1.02715 0.712166 -6.61041e-20)
(0.94671 0.674998 2.46231e-19)
(0.862288 0.628096 -5.19102e-19)
(0.786909 0.575846 -3.54024e-21)
(0.731029 0.527981 -1.53983e-19)
(0.69088 0.487277 5.66829e-19)
(0.659119 0.451871 -2.42421e-21)
(0.62051 0.413833 -2.72626e-19)
(0.548177 0.357715 -4.87531e-19)
(0.423297 0.272278 0)
(0.261895 0.166253 0)
(0.111692 0.0693265 1.34482e-19)
(0.0136221 0.00817826 -7.87477e-20)
(0.231337 0.150298 2.06032e-20)
(1.06484 0.696321 -4.97313e-20)
(1.25602 0.828537 -6.76552e-21)
(1.27514 0.85434 0)
(1.22735 0.838774 -1.57142e-21)
(1.15997 0.812045 -1.04817e-19)
(1.08809 0.783229 1.58453e-19)
(1.01124 0.750668 2.62557e-19)
(0.929018 0.711379 3.20445e-19)
(0.842013 0.661828 -4.241e-19)
(0.763778 0.60643 -4.64678e-19)
(0.705693 0.555294 4.11506e-19)
(0.664292 0.511478 0)
(0.632043 0.473175 -1.2373e-19)
(0.593285 0.431728 -2.94788e-19)
(0.521004 0.370463 -3.49799e-19)
(0.397242 0.277714 -4.15587e-19)
(0.239508 0.164706 1.22927e-19)
(0.0974489 0.0652411 -7.23118e-20)
(0.0107079 0.00686589 2.85637e-22)
(0.231978 0.159254 0)
(1.05664 0.731651 0)
(1.24347 0.869791 2.56843e-21)
(1.26062 0.895901 0)
(1.21266 0.879409 5.01672e-20)
(1.14555 0.85158 7.38642e-20)
(1.07338 0.82148 0)
(0.995567 0.787385 3.15807e-20)
(0.911659 0.74627 5.35107e-19)
(0.822108 0.694442 -9.73805e-19)
(0.740888 0.636194 0)
(0.680346 0.581819 -2.64287e-19)
(0.637453 0.534632 -2.93967e-21)
(0.604563 0.492972 -2.37958e-21)
(0.565454 0.447469 3.14697e-19)
(0.492637 0.3802 -3.68017e-22)
(0.368948 0.279385 -8.94046e-19)
(0.215063 0.159634 2.64358e-19)
(0.0826182 0.0594187 7.81263e-20)
(0.00778246 0.0053116 0)
(0.232663 0.168066 -9.55256e-20)
(1.04893 0.765349 -4.13611e-20)
(1.23109 0.908612 -4.05845e-20)
(1.24629 0.934939 -2.15673e-21)
(1.19818 0.917653 7.31247e-20)
(1.13137 0.888922 0)
(1.05896 0.857725 9.72253e-20)
(0.980282 0.822319 -6.98391e-20)
(0.894795 0.779678 3.86793e-21)
(0.80275 0.725961 7.14373e-20)
(0.718397 0.665211 6.00392e-19)
(0.655066 0.607705 -9.27343e-20)
(0.610309 0.556915 -3.48295e-19)
(0.576494 0.511323 -1.43835e-19)
(0.536839 0.460904 1.71114e-19)
(0.463165 0.386624 -1.88621e-22)
(0.339331 0.277138 2.40945e-19)
(0.189848 0.151476 -5.68439e-19)
(0.0678692 0.0523023 6.72115e-19)
(0.00499566 0.00364054 9.79742e-20)
(0.233209 0.176605 3.82265e-20)
(1.0417 0.797511 -2.46772e-20)
(1.21901 0.945119 6.16698e-21)
(1.23229 0.971578 1.09909e-20)
(1.18405 0.953601 -8.81633e-21)
(1.11753 0.924117 -1.30993e-19)
(1.04496 0.891988 2.92258e-20)
(0.965515 0.855474 -2.9163e-19)
(0.878568 0.811594 -5.90033e-19)
(0.784086 0.756384 -5.79946e-19)
(0.696466 0.693547 0)
(0.629957 0.633113 -4.05516e-19)
(0.582833 0.578563 5.00852e-19)
(0.5476 0.528357 0)
(0.507139 0.471813 -3.66059e-19)
(0.432603 0.389207 2.19055e-19)
(0.309033 0.270637 -2.58758e-19)
(0.165073 0.140572 -3.05935e-19)
(0.0541106 0.0444524 -5.41288e-19)
(0.00252427 0.00199877 -4.21995e-19)
(0.234061 0.184999 -4.5142e-20)
(1.03477 0.8281 2.64461e-20)
(1.20728 0.9794 5.67659e-20)
(1.21871 1.00591 2.36824e-20)
(1.17036 0.987333 2.24883e-20)
(1.10415 0.957229 -7.34367e-20)
(1.03147 0.924302 9.6576e-20)
(0.951363 0.886884 -3.00545e-19)
(0.863071 0.84204 -3.49267e-19)
(0.766244 0.78572 6.06562e-19)
(0.675241 0.721251 1.31558e-18)
(0.605161 0.658202 0)
(0.555049 0.599855 0)
(0.517595 0.544339 -1.65423e-19)
(0.475793 0.480004 0)
(0.400691 0.387078 4.71392e-19)
(0.278972 0.259033 5.56914e-19)
(0.142554 0.127003 0)
(0.0426211 0.0364738 0)
(0.000542341 0.000586796 4.53505e-19)
(0.23454 0.192938 5.34875e-20)
(1.02815 0.8571 4.26708e-20)
(1.19596 1.01158 4.23137e-20)
(1.20562 1.03807 -3.2034e-20)
(1.15719 1.01895 1.65165e-20)
(1.09128 0.988319 7.92584e-20)
(1.01856 0.954716 -1.33015e-19)
(0.937897 0.91657 3.42139e-24)
(0.848392 0.871016 -5.0101e-21)
(0.749322 0.813961 -5.40059e-21)
(0.654887 0.748353 6.76851e-19)
(0.580858 0.683103 0)
(0.527058 0.6211 5.04861e-19)
(0.486225 0.559692 3.52328e-19)
(0.441919 0.485588 8.53316e-19)
(0.3665 0.379147 2.535e-19)
(0.249859 0.240171 -3.00287e-19)
(0.125822 0.108864 -1.76333e-19)
(0.0380392 0.0277338 0)
(0.000466362 -3.84978e-05 4.87272e-19)
(0.235295 0.200867 -1.25029e-19)
(1.02178 0.884624 0)
(1.18501 1.04171 5.47224e-20)
(1.19303 1.06814 -3.07785e-20)
(1.14458 1.04853 -6.02702e-21)
(1.07898 1.01746 -9.10688e-20)
(1.00629 0.983283 2.61796e-19)
(0.925161 0.944569 -2.44037e-20)
(0.834577 0.898531 0)
(0.733404 0.841077 -6.68916e-19)
(0.635556 0.774849 -1.46954e-18)
(0.557258 0.707921 5.96346e-20)
(0.499084 0.642584 6.93659e-19)
(0.453399 0.574993 0)
(0.40445 0.489281 5.74807e-19)
(0.327736 0.364906 0)
(0.21962 0.209971 0)
(0.118068 0.074793 -1.91046e-19)
(0.0597987 0.00711117 0)
(0.0268485 0.0108859 1.30595e-19)
(0.235654 0.208181 -1.435e-19)
(1.01561 0.910956 0)
(1.17442 1.07 9.51362e-20)
(1.18089 1.09635 0)
(1.1325 1.07635 -1.66093e-21)
(1.06719 1.04494 0)
(0.99459 1.01031 1.35555e-20)
(0.913071 0.971221 4.13085e-20)
(0.82152 0.924955 4.36247e-20)
(0.718347 0.86746 -7.33604e-19)
(0.617107 0.801175 4.42177e-20)
(0.534201 0.733246 4.78092e-19)
(0.470866 0.664985 6.7556e-19)
(0.418468 0.591148 9.09381e-20)
(0.361599 0.492775 4.49581e-19)
(0.279926 0.346007 0)
(0.176949 0.167162 6.34224e-19)
(0.0908035 0.0165491 -3.71629e-19)
(0.0438006 0.0441662 4.30712e-19)
(-0.0690294 0.429432 -5.08153e-19)
(0.235976 0.21528 1.21034e-19)
(1.00939 0.9359 1.81041e-19)
(1.1641 1.09676 0)
(1.16906 1.12315 5.13527e-21)
(1.12076 1.10296 1.48673e-20)
(1.05566 1.07144 1.23024e-19)
(0.983172 1.03661 9.26397e-20)
(0.901237 0.997471 0)
(0.808709 0.951377 2.91263e-19)
(0.703499 0.894404 -3.85235e-20)
(0.598651 0.828782 0)
(0.510553 0.760821 0)
(0.440918 0.690066 6.03014e-19)
(0.379719 0.609611 -2.80326e-19)
(0.310424 0.498788 -4.53772e-19)
(0.218242 0.32769 0)
(0.102659 0.156691 3.19353e-19)
(0.00679324 0.435772 -3.70132e-19)
(0.0357686 1.87516 -2.03622e-19)
(0.0657539 2.80339 -2.59654e-19)
(0.236099 0.221522 -9.35755e-20)
(1.0033 0.95963 -2.3721e-19)
(1.15404 1.12198 5.9422e-20)
(1.15752 1.14838 4.09574e-20)
(1.10939 1.12813 0)
(1.04445 1.09666 7.39036e-20)
(0.972229 1.06185 1.29095e-19)
(0.889846 1.02288 -2.01587e-20)
(0.796407 0.977278 4.32741e-20)
(0.689235 0.921293 6.99024e-19)
(0.580786 0.856999 7.4051e-19)
(0.487285 0.790225 5.32526e-19)
(0.410266 0.7176 6.04155e-19)
(0.339054 0.629112 -6.54344e-19)
(0.256906 0.510233 -6.82417e-19)
(0.144234 0.35629 0)
(0.0507555 0.826089 0)
(0.107051 2.54139 1.76808e-19)
(0.108144 3.19477 0)
(0.111091 3.38541 4.25773e-19)
(0.238767 0.227199 0)
(0.99792 0.982323 0)
(1.14401 1.1455 0)
(1.14603 1.17185 1.39017e-20)
(1.09807 1.15164 1.74527e-20)
(1.03333 1.12048 3.99826e-20)
(0.961658 1.08594 8.3866e-20)
(0.878857 1.04736 -1.97694e-20)
(0.784584 1.00253 3.65216e-19)
(0.675587 0.94799 -9.77715e-21)
(0.563662 0.885719 1.46125e-18)
(0.464765 0.821302 -6.10672e-20)
(0.379305 0.748448 7.30685e-20)
(0.298903 0.647 9.41406e-20)
(0.195029 0.529771 -2.26928e-21)
(0.110855 0.958294 1.79234e-21)
(0.148198 2.69968 -9.18488e-19)
(0.158521 3.28798 -3.47758e-19)
(0.145959 3.4258 1.81537e-19)
(0.131671 3.44868 -2.02545e-19)
(0.15669 0.183766 5.74189e-20)
(0.987317 1.00674 0)
(1.13373 1.16758 -1.28212e-19)
(1.13511 1.19401 -1.20134e-19)
(1.0876 1.17428 6.64059e-20)
(1.02322 1.14354 -3.62516e-20)
(0.951364 1.10898 -8.74148e-20)
(0.868377 1.07102 2.25252e-19)
(0.773436 1.02725 -3.00023e-19)
(0.662879 0.974608 0)
(0.547712 0.915097 7.18068e-19)
(0.443587 0.853907 -4.33213e-19)
(0.348537 0.785573 0)
(0.257838 0.667445 8.73056e-20)
(0.162269 0.801325 2.0891e-19)
(0.163388 2.46148 -2.4852e-19)
(0.225766 3.32175 2.80269e-19)
(0.20355 3.44118 1.52018e-19)
(0.168801 3.46309 1.72581e-19)
(0.1458 3.47352 2.7581e-19)
(0.282117 0.266033 -1.03085e-19)
(0.972588 1.01688 0)
(1.11566 1.1926 1.44084e-19)
(1.12028 1.22588 1.43565e-19)
(1.07096 1.20749 -8.95108e-20)
(1.0061 1.17744 1.1206e-20)
(0.933458 1.14441 8.96292e-20)
(0.849877 1.10754 1.75141e-20)
(0.753628 1.06572 2.88532e-19)
(0.6404 1.01659 6.06184e-19)
(0.520303 0.962878 4.07169e-20)
(0.407823 0.908585 3.84613e-19)
(0.294581 0.845551 6.82203e-20)
(0.221566 0.969471 -8.57795e-20)
(0.237687 2.30948 -1.97176e-19)
(0.301542 3.32593 1.91303e-19)
(0.285316 3.47336 -2.12896e-19)
(0.248141 3.49525 -1.23567e-19)
(0.209752 3.52274 -1.05676e-19)
(0.157103 3.51615 -1.24371e-20)
(0.270055 0.262906 0)
(0.970489 1.03959 4.5194e-20)
(1.10766 1.21582 -3.08515e-20)
(1.1101 1.24913 -1.83573e-20)
(1.06052 1.23063 -6.90288e-20)
(0.995809 1.20096 -4.82264e-21)
(0.922873 1.16813 -4.92191e-20)
(0.839173 1.13201 1.58521e-20)
(0.742538 1.09155 -3.01786e-19)
(0.628285 1.04504 -1.42473e-20)
(0.505969 0.995824 -1.29954e-18)
(0.389889 0.94721 5.46238e-20)
(0.282759 0.91298 -6.4509e-20)
(0.261969 1.47499 -7.9603e-20)
(0.338733 3.08519 1.78379e-20)
(0.361436 3.47143 8.32787e-22)
(0.320492 3.53038 3.11424e-19)
(0.282142 3.55489 1.53727e-19)
(0.231889 3.57885 -4.0624e-20)
(0.171479 3.57446 -5.92933e-20)
(0.253663 0.261255 1.17836e-19)
(0.966805 1.06496 3.12177e-19)
(1.09921 1.24115 -8.91776e-20)
(1.09937 1.27376 -6.94683e-20)
(1.04957 1.25512 0)
(0.985091 1.22562 2.69578e-20)
(0.912151 1.19305 -5.59116e-20)
(0.828609 1.15765 1.40812e-20)
(0.731905 1.11863 -3.34223e-20)
(0.617135 1.07494 -5.51915e-19)
(0.493383 1.0305 -6.0107e-19)
(0.375478 0.9883 -4.50915e-19)
(0.284438 1.0405 -4.86058e-19)
(0.330478 2.16184 5.02098e-19)
(0.425944 3.37606 4.23238e-19)
(0.406243 3.532 0)
(0.359206 3.57655 0)
(0.321519 3.61851 -3.16936e-20)
(0.267964 3.67913 0)
(0.183542 3.65418 -3.72581e-20)
(0.24276 0.26303 -1.80368e-19)
(0.961128 1.09141 -2.69845e-19)
(1.08938 1.26769 0)
(1.08736 1.29922 6.13775e-21)
(1.03741 1.28022 -8.79641e-20)
(0.973273 1.25075 6.44603e-20)
(0.900656 1.21847 -2.68015e-20)
(0.817472 1.18369 8.98763e-21)
(0.720937 1.14602 -2.17359e-19)
(0.606046 1.1051 2.79935e-20)
(0.481683 1.06554 0)
(0.364121 1.03266 0)
(0.310799 1.28104 -4.45878e-19)
(0.414096 2.84093 1.8188e-19)
(0.498932 3.48891 2.34541e-19)
(0.452509 3.56598 0)
(0.411941 3.62773 -1.51979e-20)
(0.37458 3.69024 -4.35935e-20)