/*--------------------------------*- C++ -*----------------------------------*\
  =========                 |
  \\      /  F ield         | OpenFOAM: The Open Source CFD Toolbox
   \\    /   O peration     | Website:  https://openfoam.org
    \\  /    A nd           | Version:  10
     \\/     M anipulation  |
\*---------------------------------------------------------------------------*/
FoamFile
{
    format      ascii;
    class       volScalarField;
    location    "4.5";
    object      p;
}
// * * * * * * * * * * * * * * * * * * * * * * * * * * * * * * * * * * * * * //

dimensions      [1 -1 -2 0 0 0 0];

internalField   nonuniform List<scalar> 
16128
(
1
1
1
1
1
1
1
1
1
1
1
1
1
1
1
1
1
1
1
1
1
1
1
1
4.83888
10.273
10.5125
10.6069
10.7228
10.8303
10.9343
11.034
11.1304
11.2237
11.3138
11.3988
11.4757
11.5454
11.6132
11.6814
11.7459
11.8016
11.8499
11.8942
11.9386
11.9742
11.9963
12.0148
1
1
1
1
1
1
1
1
1
1
1
1
1
1
1
1
1
1
1
1
1
1
1
1
4.75659
10.2303
10.508
10.6039
10.7198
10.8269
10.9304
11.0295
11.1254
11.2182
11.3073
11.3913
11.468
11.5381
11.6058
11.6721
11.734
11.7882
11.8373
11.8831
11.9273
11.9604
11.9795
11.9966
1
1
1
1
1
1
1
1
1
1
1
1
1
1
1
1
1
1
1
1
1
1
1
1
4.58017
10.1792
10.4968
10.5928
10.7091
10.8164
10.9199
11.019
11.1148
11.2072
11.2953
11.3785
11.4557
11.5268
11.594
11.6576
11.7166
11.7701
11.8204
11.8665
11.9078
11.9366
11.9512
11.9708
1
1
1
1
1
1
1
1
1
1
1
1
1
1
1
1
1
1
1
1
1
1
1
1
4.32308
10.0997
10.4835
10.5791
10.6953
10.802
10.9047
11.0029
11.0979
11.1891
11.2757
11.3579
11.4351
11.5067
11.5731
11.6344
11.6913
11.7446
11.796
11.8413
11.8778
11.9021
11.9115
11.9334
1
1
1
1
1
1
1
1
1
1
1
1
1
1
1
1
1
1
1
1
1
1
1
1
3.99263
9.98295
10.4684
10.5627
10.6782
10.7838
10.8851
10.9819
11.0753
11.1649
11.2497
11.3299
11.406
11.477
11.5425
11.6022
11.6578
11.7106
11.7613
11.8044
11.8359
11.8566
11.8652
11.901
1
1
1
1
1
1
1
1
1
1
1
1
1
1
1
1
1
1
1
1
1
1
1
1
3.59505
9.81326
10.4514
10.5433
10.658
10.7623
10.8624
10.958
11.0501
11.1385
11.2216
11.2998
11.3737
11.4429
11.5069
11.5649
11.6187
11.6694
11.7185
11.7603
11.7877
11.802
11.788
11.8541
1
1
1
1
1
1
1
1
1
1
1
1
1
1
1
1
1
1
1
1
1
1
1
1
3.15129
9.56814
10.4317
10.5182
10.6311
10.7329
10.8313
10.9253
11.0156
11.1023
11.1837
11.2594
11.3306
11.3972
11.4595
11.5167
11.5691
11.6167
11.6615
11.6999
11.7253
11.7442
11.7167
11.7814
1
1
1
1
1
1
1
1
1
1
1
1
1
1
1
1
1
1
1
1
1
1
1
1
2.67783
9.23166
10.422
10.4964
10.606
10.7026
10.7969
10.8871
10.9737
11.0567
11.1352
11.208
11.2763
11.3396
11.3997
11.4559
11.5073
11.5521
11.5927
11.6278
11.651
11.6695
11.6311
11.697
1
1
1
1
1
1
1
1
1
1
1
1
1
1
1
1
1
1
1
1
1
1
1
1
2.19202
8.78181
10.4259
10.4753
10.5813
10.6711
10.7623
10.8497
10.9331
11.0123
11.0872
11.1557
11.2193
11.2772
11.3324
11.3848
11.4326
11.473
11.5087
11.5402
11.5608
11.5777
11.5325
11.5982
1
1
1
1
1
1
1
1
1
1
1
1
1
1
1
1
1
1
1
1
1
1
1
1
1.71234
8.20486
10.4389
10.4466
10.551
10.6327
10.7192
10.8032
10.8844
10.9608
11.0326
11.0971
11.156
11.2081
11.2568
11.3031
11.3455
11.3812
11.4124
11.4395
11.4542
11.4648
11.4151
11.4702
1
1
1
1
1
1
1
1
1
1
1
1
1
1
1
1
1
1
1
1
1
1
1
1
1.2733
7.51722
10.4603
10.4061
10.4952
10.571
10.6588
10.7439
10.8237
10.8977
10.967
11.0283
11.0829
11.1299
11.1717
11.2104
11.2449
11.2732
11.2961
11.315
11.321
11.3208
11.2624
11.3294
1
1
1
1
1
1
1
1
1
1
1
1
1
1
1
1
1
1
1
1
1
1
1
1
1.01417
6.72159
10.2868
10.3129
10.4114
10.4973
10.5836
10.6672
10.7498
10.8242
10.8913
10.9496
10.9997
11.0414
11.0761
11.1058
11.1296
11.1485
11.1616
11.1732
11.1703
11.1538
11.0793
11.1279
1
1
1
1
1
1
1
1
1
1
1
1
1
1
1
1
1
1
1
1
1
1
1
1
1.00006
5.71519
10.0857
10.2267
10.3381
10.4359
10.5238
10.6035
10.6728
10.7385
10.8011
10.8559
10.9016
10.9381
10.9657
10.9866
10.999
11.0056
11.0017
10.9925
10.9634
10.9248
10.8339
10.8917
1
1
1
1
1
1
1
1
1
1
1
1
1
1
1
1
1
1
1
1
1
1
1
1
1
4.64497
9.77576
10.1383
10.2583
10.3654
10.445
10.5137
10.5785
10.6401
10.6951
10.745
10.7862
10.8173
10.8384
10.8504
10.848
10.8382
10.8132
10.7831
10.7334
10.6717
10.5436
10.5171
1
1
1
1
1
1
1
1
1
1
1
1
1
1
1
1
1
1
1
1
1
1
1
1
1
3.56807
9.33955
10.0927
10.2275
10.3216
10.3905
10.4452
10.4953
10.5416
10.5853
10.6272
10.6605
10.6839
10.6965
10.6963
10.6784
10.6501
10.6
10.5354
10.4271
10.2741
10.0603
9.99557
1
1
1
1
1
1
1
1
1
1
1
1
1
1
1
1
1
1
1
1
1
1
1
1
1
2.47017
8.61733
10.124
10.1872
10.2534
10.315
10.3674
10.4128
10.4508
10.481
10.5066
10.5277
10.5405
10.5392
10.5244
10.4891
10.4363
10.3501
10.237
10.0673
9.87092
9.55599
9.49581
1
1
1
1
1
1
1
1
1
1
1
1
1
1
1
1
1
1
1
1
1
1
1
1
1
1.47694
7.84108
10.2312
10.1137
10.1753
10.2385
10.2857
10.3239
10.3543
10.3758
10.389
10.3959
10.3966
10.3759
10.3436
10.2859
10.2044
10.08
9.92223
9.66465
9.29667
8.38562
6.33566
1
1
1
1
1
1
1
1
1
1
1
1
1
1
1
1
1
1
1
1
1
1
1
1
1
1.02915
6.64957
10.0445
9.99635
10.0711
10.1373
10.1877
10.2248
10.25
10.2647
10.2675
10.2602
10.2441
10.2063
10.1541
10.0712
9.95966
9.7928
9.56845
9.21062
8.59131
7.61631
5.37094
1
1
1
1
1
1
1
1
1
1
1
1
1
1
1
1
1
1
1
1
1
1
1
1
1
1.00001
5.05697
9.61073
9.86704
9.977
10.0367
10.0832
10.1204
10.1402
10.1488
10.1433
10.1222
10.0896
10.0356
9.96348
9.85381
9.71101
9.50313
9.21442
8.78621
8.10835
7.0099
5.06358
1
1
1
1
1
1
1
1
1
1
1
1
1
1
1
1
1
1
1
1
1
1
1
1
1
0.999999
3.52539
9.12341
9.85088
9.92627
9.97118
9.99478
10.0187
10.0276
10.0284
10.0149
9.9815
9.9337
9.86189
9.76944
9.63644
9.46369
9.22
8.88618
8.40549
7.73219
6.58648
5.07098
1
1
1
1
1
1
1
1
1
1
1
1
1
1
1
1
1
1
1
1
1
1
1
1
1
1
2.0874
8.29827
9.86986
9.85319
9.8903
9.91471
9.93
9.9259
9.914
9.88741
9.84137
9.77937
9.69002
9.57765
9.4258
9.22721
8.95777
8.59372
8.09378
7.42879
6.36678
5.1576
1
1
1
1
1
1
1
1
1
1
1
1
1
1
1
1
1
1
1
1
1
1
1
1
1
1
1.1294
6.98397
9.90203
9.80457
9.80022
9.82055
9.82596
9.81469
9.79292
9.75603
9.70076
9.62682
9.5228
9.39252
9.22366
9.00416
8.71957
8.34137
7.84119
7.19061
6.26993
5.29359
1
1
1
1
1
1
1
1
1
1
1
1
1
1
1
1
1
1
1
1
1
1
1
1
1
1
1.00135
5.25003
9.38457
9.63191
9.69339
9.71498
9.71394
9.69865
9.66863
9.62365
9.5592
9.47439
9.35936
9.21517
9.03231
8.7997
8.50688
8.12758
7.64129
7.02268
6.23488
5.43065
1
1
1
1
1
1
1
1
1
1
1
1
1
1
1
1
1
1
1
1
1
1
1
1
1
1
0.999983
3.27545
8.80364
9.58113
9.62063
9.63545
9.62792
9.60262
9.56069
9.50488
9.42894
9.33215
9.20681
9.0511
8.85661
8.61546
8.31884
7.94585
7.48861
6.90665
6.22666
5.54893
1
1
1
1
1
1
1
1
1
1
1
1
1
1
1
1
1
1
1
1
1
1
1
1
1
1
0.999996
1.61527
7.90796
9.67834
9.56977
9.54121
9.51854
9.48629
9.43852
9.37709
9.29464
9.19073
9.05818
8.89502
8.69406
8.44952
8.15438
7.78989
7.36191
6.82545
6.23745
5.64554
1
1
1
1
1
1
1
1
1
1
1
1
1
1
1
1
1
1
1
1
1
1
1
1
1
1
0.999999
1.03818
6.22426
9.33089
9.37535
9.4089
9.39307
9.36426
9.31614
9.25203
9.16558
9.05666
8.91942
8.75124
8.5467
8.30236
8.01204
7.6583
7.25301
6.76599
6.25396
5.72137
1
1
1
1
1
1
1
1
1
1
1
1
1
1
1
1
1
1
1
1
1
1
1
1
1
1
1
0.99997
3.95299
8.83563
9.29635
9.33747
9.31796
9.28177
9.2243
9.14845
9.05151
8.93397
8.79097
8.61964
8.41392
8.17267
7.88694
7.54831
7.16061
6.72134
6.27111
5.78361
1
1
1
1
1
1
1
1
1
1
1
1
1
1
1
1
1
1
1
1
1
1
1
1
1
1
1
0.999986
1.90732
8.03575
9.36853
9.27741
9.2197
9.17375
9.11312
9.03366
8.93289
8.81132
8.66597
8.49473
8.29011
8.05731
7.77349
7.45286
7.08826
6.68722
6.28271
5.83296
1
1
1
1
1
1
1
1
1
1
1
1
1
1
1
1
1
1
1
1
1
1
1
1
1
1
1
0.999998
1.07604
6.26961
9.09
9.12164
9.09769
9.06679
9.00871
8.92766
8.82436
8.70006
8.55246
8.38271
8.18356
7.95119
7.67583
7.37446
7.03546
6.66566
6.29436
5.88129
1
1
1
1
1
1
1
1
1
1
1
1
1
1
1
1
1
1
1
1
1
1
1
1
1
1
1
1
1.00024
3.6936
8.57197
9.06364
9.02972
9.00081
8.93787
8.846
8.73303
8.60173
8.45056
8.27699
8.08348
7.8533
7.5919
7.30777
6.98945
6.64733
6.30151
5.91756
1
1
1
1
1
1
1
1
1
1
1
1
1
1
1
1
1
1
1
1
1
1
1
1
1
1
1
1
0.999997
1.52162
7.61255
9.18629
9.00611
8.91596
8.83967
8.74247
8.63015
8.50269
8.35428
8.18303
7.99071
7.76947
7.52238
7.25342
6.95176
6.6343
6.30971
5.95343
1
1
1
1
1
1
1
1
1
1
1
1
1
1
1
1
1
1
1
1
1
1
1
1
1
1
1
1
0.999999
1.02418
5.60531
8.73619
8.78279
8.79967
8.73282
8.63892
8.53295
8.41146
8.26745
8.10069
7.90957
7.69475
7.45927
7.20315
6.91764
6.62093
6.3125
5.98395
1
1
1
1
1
1
1
1
1
1
1
1
1
1
1
1
1
1
1
1
1
1
1
1
1
1
1
1
1
0.999925
2.84769
8.06885
8.78222
8.74962
8.66471
8.5716
8.46629
8.34355
8.19781
8.03028
7.84129
7.6303
7.40344
7.15817
6.88882
6.60893
6.31641
6.01341
1
1
1
1
1
1
1
1
1
1
1
1
1
1
1
1
1
1
1
1
1
1
1
1
1
1
1
1
1
0.99998
1.24624
6.56287
8.80352
8.67089
8.58038
8.48978
8.38784
8.26762
8.12378
7.9596
7.77597
7.57241
7.354
7.1179
6.86244
6.59577
6.31864
6.03528
1
1
1
1
1
1
1
1
1
1
1
1
1
1
1
1
1
1
1
1
1
1
1
1
1
1
1
1
1
0.999997
1.00472
3.9272
8.20768
8.51038
8.47952
8.42003
8.3271
8.20781
8.0637
7.90121
7.72102
7.52319
7.31102
7.08254
6.83841
6.58374
6.32172
6.05308
1
1
1
1
1
1
1
1
1
1
1
1
1
1
1
1
1
1
1
1
1
1
1
1
1
1
1
1
1
1
0.999985
1.53912
7.04857
8.63581
8.48267
8.3886
8.28037
8.15108
8.00448
7.84376
7.66781
7.47634
7.27074
7.05044
6.81624
6.57284
6.32368
6.06732
1
1
1
1
1
1
1
1
1
1
1
1
1
1
1
1
1
1
1
1
1
1
1
1
1
1
1
1
1
1
0.999996
1.02389
4.67455
8.21559
8.32833
8.29157
8.20297
8.08318
7.94354
7.78772
7.61695
7.43153
7.23248
7.01989
6.79507
6.56268
6.3247
6.08126
1
1
1
1
1
1
1
1
1
1
1
1
1
1
1
1
1
1
1
1
1
1
1
1
1
1
1
1
1
1
0.999999
1.00002
1.82946
7.27142
8.4396
8.2904
8.17379
8.04584
7.90284
7.74591
7.57488
7.39098
7.19585
6.98988
6.77503
6.55413
6.32709
6.09609
1
1
1
1
1
1
1
1
1
1
1
1
1
1
1
1
1
1
1
1
1
1
1
1
1
1
1
1
1
1
1
1
1.05375
5.08574
8.12863
8.17461
8.10085
7.9852
7.84777
7.69455
7.52661
7.34718
7.15804
6.96044
6.7562
6.5467
6.33086
6.10997
1
1
1
1
1
1
1
1
1
1
1
1
1
1
1
1
1
1
1
1
1
1
1
1
1
1
1
1
1
1
1
1
1.00019
2.04017
7.25288
8.2205
8.08248
7.95121
7.80874
7.65468
7.48938
7.31549
7.13325
6.94337
6.74683
6.545
6.3378
6.1253
1
1
1
1
1
1
1
1
1
1
1
1
1
1
1
1
1
1
1
1
1
1
1
1
1
1
1
1
1
1
1
1
1
1.08059
5.16161
8.01774
8.00832
7.88896
7.75425
7.60542
7.44709
7.27978
7.10373
6.92054
6.73204
6.53848
6.33975
6.13811
1
1
1
1
1
1
1
1
1
1
1
1
1
1
1
1
1
1
1
1
1
1
1
1
1
1
1
1
1
1
1
1
1
1.00051
2.10602
7.09706
8.01468
7.85255
7.71865
7.57099
7.41578
7.25276
7.08309
6.9076
6.72769
6.54249
6.35065
6.15641
1
1
1
1
1
1
1
1
1
1
1
1
1
1
1
1
1
1
1
1
1
1
1
1
1
1
1
1
1
1
1
1
1
1
1.089
4.95739
7.81111
7.79204
7.66822
7.52926
7.37864
7.22305
7.06241
6.89568
6.72287
6.54404
6.35863
6.16921
1
1
1
1
1
1
1
1
1
1
1
1
1
1
1
1
1
1
1
1
1
1
1
1
1
1
1
1
1
1
1
1
1
1
1.00072
2.01469
6.76214
7.79313
7.63655
7.50231
7.3548
7.2063
7.05283
6.89208
6.7236
6.54897
6.3694
6.18539
1
1
1
1
1
1
1
1
1
1
1
1
1
1
1
1
1
1
1
1
1
1
1
1
1
1
1
1
1
1
1
1
1
1
1
1.07472
4.41257
7.53424
7.58947
7.46209
7.32751
7.18928
7.0424
6.88606
6.72131
6.55071
6.37673
6.19936
1
1
1
1
1
1
1
1
1
1
1
1
1
1
1
1
1
1
1
1
1
1
1
1
1
1
1
1
1
1
1
1
1
1
1
1.00065
1.76352
6.23561
7.58575
7.44868
7.33178
7.19151
7.03969
6.88155
6.71945
6.55424
6.3866
6.21648
1
1
1
1
1
1
1
1
1
1
1
1
1
1
1
1
1
1
1
1
1
1
1
1
1
1
1
1
1
1
1
1
1
1
1
1
1.0437
3.48419
7.15474
7.44262
7.31644
7.17221
7.02203
6.86907
6.71528
6.55989
6.39925
6.23407
1
1
1
1
1
1
1
1
1
1
1
1
1
1
1
1
1
1
1
1
1
1
1
1
1
1
1
1
1
1
1
1
1
1
1
1
1.00038
1.41901
5.53239
7.48603
7.30655
7.15626
7.01353
6.87138
6.72543
6.57545
6.41837
6.25439
1
1
1
1
1
1
1
1
1
1
1
1
1
1
1
1
1
1
1
1
1
1
1
1
1
1
1
1
1
1
1
1
1
1
1
1
1
1.01443
2.60029
6.64222
7.25466
7.13277
7.01061
6.87658
6.7316
6.57939
6.42535
6.26792
1
1
1
1
1
1
1
1
1
1
1
1
1
1
1
1
1
1
1
1
1
1
1
1
1
1
1
1
1
1
1
1
1
1
1
1
1
1.0001
1.17721
4.45327
7.16514
7.16882
7.04456
6.90143
6.75004
6.59393
6.43858
6.28576
1
1
1
1
1
1
1
1
1
1
1
1
1
1
1
1
1
1
1
1
1
1
1
1
1
1
1
1
1
1
1
1
1
1
1
1
1
1
1.00331
1.83685
5.8853
7.16149
7.01809
6.87447
6.73135
6.58669
6.43868
6.29022
1
1
1
1
1
1
1
1
1
1
1
1
1
1
1
1
1
1
1
1
1
1
1
1
1
1
1
1
1
1
1
1
1
1
1
1
1
1
1.00002
1.05242
3.13381
6.63431
7.00352
6.88345
6.7484
6.61072
6.46849
6.3224
1
1
1
1
1
1
1
1
1
1
1
1
1
1
1
1
1
1
1
1
1
1
1
1
1
1
1
1
1
1
1
1
1
1
1
1
1
1
1
1.0006
1.31073
4.72191
6.93346
6.91559
6.77928
6.63829
6.49204
6.34702
1
1
1
1
1
1
1
1
1
1
1
1
1
1
1
1
1
1
1
1
1
1
1
1
1
1
1
1
1
1
1
1
1
1
1
1
1
1
1
1
1.00898
2.02831
5.81998
6.88016
6.77674
6.63516
6.49666
6.35128
1
1
1
1
1
1
1
1
1
1
1
1
1
1
1
1
1
1
1
1
1
1
1
1
1
1
1
1
1
1
1
1
1
1
1
1
1
1
1
1
1.00006
1.07762
3.19293
6.41613
6.78886
6.65616
6.51661
6.38446
1
1
1
1
1
1
1
1
1
1
1
1
1
1
1
1
1
1
1
1
1
1
1
1
1
1
1
1
1
1
1
1
1
1
1
1
1
1
1
1
1
1.00111
1.33329
4.51959
6.63944
6.6864
6.5495
6.40851
1
1
1
1
1
1
1
1
1
1
1
1
1
1
1
1
1
1
1
1
1
1
1
1
1
1
1
1
1
1
1
1
1
1
1
1
1
1
1
1
1
1
1.01066
1.93321
5.45297
6.65088
6.56292
6.39448
1
1
1
1
1
1
1
1
1
1
1
1
1
1
1
1
1
1
1
1
1
1
1
1
1
1
1
1
1
1
1
1
1
1
1
1
1
1
1
1
1
1
1.00008
1.06576
2.83209
6.10285
6.52247
6.3933
1
1
1
1
1
1
1
1
1
1
1
1
1
1
1
1
1
1
1
1
1
1
1
1
1
1
1
1
1
1
1
1
1
1
1
1
1
1
1
1
1
1
1
1.00093
1.24074
4.02022
5.94105
6.72727
1
1
1
1
1
1
1
1
1
1
1
1
1
1
1
1
1
1
1
1
1
1
1
1
1
1
1
1
1
1
1
1
1
1
1
1
1
1
1
1
1
1
1
1
1.00697
1.65797
4.3881
8.97069
1
1
1
1
1
1
1
1
1
1
1
1
1
1
1
1
1
1
1
1
1
1
1
1
1
1
1
1
1
1
1
1
1
1
1
1
1
1
1
1
1
1
1
1
1.00005
1.0343
3.81047
11.381
1
1
1
1
1
1
1
1
1
1
1
1
1
1
1
1
1
1
1
1
1
1
1
1
1
1
1
1
1
1
1
1
1
1
1
1
1
1
1
1
1
1
1
1
1
1.00054
4.02075
11.196
1
1
1
1
1
1
1
1
1
1
1
1
1
1
1
1
1
1
1
1
1
1
1
1
1
1
1
1
1
1
1
1
1
1
1
1
1
1
1
1
1
1
1
1
1
1
4.36717
10.5727
1
1
1
1
1
1
1
1
1
1
1
1
1
1
1
1
1
1
1
1
1
1
1
1
1
1
1
1
1
1
1
1
1
1
1
1
1
1
1
1
1
1
1
1
1
1
4.13866
10.1184
1
1
1
1
1
1
1
1
1
1
1
1
1
1
1
1
1
1
1
1
1
1
1
1
1
1
1
1
1
1
1
1
1
1
1
1
1
1
1
1
1
1
1
1
1
1
3.68797
9.80873
1
1
1
1
1
1
1
1
1
1
1
1
1
1
1
1
1
1
1
1
1
1
1
1
1
1
1
1
1
1
1
1
1
1
1
1
1
1
1
1
1
1
1
1
1
1
3.15982
9.59411
1
1
1
1
1
1
1
1
1
1
1
1
1
1
1
1
1
1
1
1
1
1
1
1
1
1
1
1
1
1
1
1
1
1
1
1
1
1
1
1
1
1
1
1
1
1
2.68335
9.3401
1
1
1
1
1
1
1
1
1
1
1
1
1
1
1
1
1
1
1
1
1
1
1
1
1
1
1
1
1
1
1
1
1
1
1
1
1
1
1
1
1
1
1
1
1
1
2.28121
9.04733
1
1
1
1
1
1
1
1
1
1
1
1
1
1
1
1
1
1
1
1
1
1
1
1
1
1
1
1
1
1
1
1
1
1
1
1
1
1
1
1
1
1
1
1
1
1
1.96548
8.7177
1
1
1
1
1
1
1
1
1
1
1
1
1
1
1
1
1
1
1
1
1
1
1
1
1
1
1
1
1
1
1
1
1
1
1
1
1
1
1
1
1
1
1
1
1
1
1.7219
8.3703
1
1
1
1
1
1
1
1
1
1
1
1
1
1
1
1
1
1
1
1
1
1
1
1
1
1
1
1
1
1
1
1
1
1
1
1
1
1
1
1
1
1
1
1
1
1
1.52808
8.01657
1
1
1
1
1
1
1
1
1
1
1
1
1
1
1
1
1
1
1
1
1
1
1
1
1
1
1
1
1
1
1
1
1
1
1
1
1
1
1
1
1
1
1
1
1
1
1.37436
7.67257
1
1
1
1
1
1
1
1
1
1
1
1
1
1
1
1
1
1
1
1
1
1
1
1
1
1
1
1
1
1
1
1
1
1
1
1
1
1
1
1
1
1
1
1
1
1
1.23269
7.31149
1
1
1
1
1
1
1
1
1
1
1
1
1
1
1
1
1
1
1
1
1
1
1
1
1
1
1
1
1
1
1
1
1
1
1
1
1
1
1
1
1
1
1
1
1
1
1.08484
6.98851
1
1
1
1
1
1
1
1
1
1
1
1
1
1
1
1
1
1
1
1
1
1
1
1
1
1
1
1
1
1
1
1
1
1
1
1
1
1
1
1
1
1
1
1
1
1
1.00255
6.66767
1
1
1
1
1
1
1
1
1
1
1
1
1
1
1
1
1
1
1
1
1
1
1
1
1
1
1
1
1
1
1
1
1
1
1
1
1
1
1
1
1
1
1
1
1
1
1.00001
6.34783
1
1
1
1
1
1
1
1
1
1
1
1
1
1
1
1
1
1
1
1
1
1
1
1
1
1
1
1
1
1
1
1
1
1
1
1
1
1
1
1
1
1
1
1
1
1
1
6.08226
1
1
1
1
1
1
1
1
1
1
1
1
1
1
1
1
1
1
1
1
1
1
1
1
1
1
1
1
1
1
1
1
1
1
1
1
1
1
1
1
1
1
1
1
1
1
1
5.87563
1
1
1
1
1
1
1
1
1
1
1
1
1
1
1
1
1
1
1
1
1
1
1
1
1
1
1
1
1
1
1
1
1
1
1
1
1
1
1
1
1
1
1
1
1
1
1
5.73398
1
1
1
1
1
1
1
1
1
1
1
1
1
1
1
1
1
1
1
1
1
1
1
1
1
1
1
1
1
1
1
1
1
1
1
1
1
1
1
1
1
1
1
1
1
1
1
5.66899
1.1391
0.158178
0.0829931
0.0471256
0.0304672
0.0379646
0.0711153
0.132069
0.225832
0.313289
0.382921
0.43316
0.48336
0.548538
0.6291
0.715282
0.788485
0.85547
0.918429
0.955516
0.958636
0.971876
0.995484
1.02794
1.0575
1.06614
1.06301
1.07721
1.10811
1.13814
1.15474
1.16911
1.18598
1.19987
1.21702
1.22853
1.23273
1.23839
1.24074
1.23813
1.24954
1.26308
1.26953
1.27117
1.28042
1.29811
1.31454
1.32699
1.32893
2.29031
4.69014
5.33188
5.60003
5.73344
5.73438
5.76666
5.81787
5.85406
5.84419
5.81247
5.78625
5.79145
5.82052
5.8425
5.82687
5.77965
5.73993
5.72695
5.73051
5.72835
5.70046
5.6502
5.59286
5.53771
5.49379
5.4664
5.45433
5.4495
5.44316
5.43019
5.41177
5.39325
5.3749
5.35222
5.31756
5.26633
5.2081
5.15778
5.12655
5.11433
5.10989
5.09886
5.07008
5.02219
4.96594
4.915
4.87696
4.84944
4.827
4.8055
4.78263
4.75579
4.72378
4.68863
4.6537
4.61768
4.5782
4.5355
4.49188
4.45046
4.4143
4.38565
4.36449
4.34786
4.33136
4.31145
4.2846
4.24904
4.20694
4.1637
4.12228
4.08536
4.05387
4.02484
3.99772
3.97253
3.9486
3.92517
3.89988
3.87111
3.84087
3.81015
3.77905
3.74744
3.71472
3.68319
3.65379
3.62617
3.59982
3.57439
3.54927
3.52331
3.49538
3.46472
3.43189
3.39894
3.36597
3.33046
3.29188
3.25424
3.22118
3.1924
3.16708
3.1451
3.12695
3.11416
3.10563
3.09581
3.08101
3.05942
3.03165
2.99424
2.94922
2.90682
2.87522
2.85379
2.84218
2.83058
2.81878
2.80796
2.79541
2.77838
2.75777
2.73441
2.70789
2.67724
2.6411
2.60201
2.56847
2.5454
2.52991
2.52241
2.51795
2.51336
2.50766
2.497
2.4796
2.45134
2.41408
2.3763
2.3441
2.31736
2.09173
0.863585
0.479888
0.37495
0.24276
0.158202
0.144663
0.150611
0.171657
0.198738
0.231752
0.271013
0.309607
0.371706
0.443004
0.52353
0.583493
0.63413
0.720314
0.812111
0.866926
0.898863
0.927899
0.960065
0.986013
1.02642
1.05278
1.0784
1.10275
1.12267
1.15273
1.1755
1.18499
1.18727
1.18807
1.19752
1.21766
1.23382
1.2369
1.24023
1.24779
1.25955
1.28515
1.30764
1.31939
1.32169
1.31834
1.30829
1.29124
1.60957
4.25421
5.59493
5.75221
5.79933
5.79534
5.78248
5.81108
5.8397
5.85299
5.83862
5.81326
5.79484
5.7966
5.81341
5.82881
5.82005
5.78585
5.74649
5.70948
5.68134
5.65742
5.63161
5.60182
5.57011
5.53803
5.50355
5.4687
5.44081
5.42344
5.41324
5.40244
5.3833
5.35462
5.32124
5.28822
5.25831
5.22831
5.19629
5.16468
5.13136
5.09252
5.053
5.01817
4.98916
4.96088
4.92969
4.89778
4.86475
4.82883
4.79198
4.75894
4.73216
4.70993
4.68619
4.65583
4.61901
4.57776
4.53459
4.49216
4.4531
4.42008
4.39308
4.36882
4.34358
4.31606
4.28732
4.25845
4.22912
4.19646
4.15993
4.12381
4.08703
4.05238
4.02087
3.99287
3.96706
3.94285
3.92038
3.89727
3.86944
3.84005
3.80858
3.77561
3.74402
3.71309
3.68358
3.65483
3.62663
3.59861
3.57073
3.54324
3.51559
3.48682
3.45588
3.4222
3.3863
3.3503
3.31573
3.28291
3.25227
3.22371
3.19624
3.17069
3.14841
3.12961
3.11504
3.10335
3.0874
3.06454
3.03725
3.00622
2.97502
2.94808
2.92406
2.89782
2.87324
2.8541
2.83699
2.82026
2.80161
2.78149
2.7597
2.73677
2.71322
2.68933
2.66508
2.64044
2.61479
2.5867
2.55949
2.54018
2.52747
2.52143
2.5164
2.50434
2.48534
2.45937
2.43011
2.40096
2.37374
2.34896
2.33032
2.92193
1.78994
1.06445
0.810669
0.587198
0.391857
0.37122
0.359496
0.320432
0.30084
0.308762
0.319362
0.320415
0.316711
0.325014
0.349642
0.39838
0.471779
0.543164
0.642577
0.73637
0.786648
0.82892
0.8752
0.926453
1.01031
1.06482
1.09372
1.12227
1.14137
1.16298
1.17642
1.17889
1.17808
1.1826
1.20775
1.2386
1.24901
1.25504
1.25868
1.25652
1.26425
1.28737
1.30749
1.31205
1.30472
1.2892
1.28355
1.28284
1.34552
3.43566
6.01481
6.14094
5.93821
5.90009
5.86244
5.83834
5.83786
5.85101
5.86288
5.85363
5.82952
5.80734
5.79734
5.80842
5.83406
5.8373
5.79354
5.72862
5.66983
5.62251
5.59529
5.58022
5.56915
5.55944
5.5409
5.50227
5.45653
5.41959
5.39555
5.37847
5.35442
5.32019
5.28266
5.25195
5.23685
5.23592
5.23062
5.20235
5.15085
5.08973
5.03188
4.98317
4.95679
4.95285
4.94245
4.91426
4.87515
4.83052
4.78556
4.74438
4.71482
4.70016
4.68722
4.65789
4.61864
4.57813
4.53661
4.49818
4.46474
4.4366
4.41016
4.37977
4.34472
4.30752
4.27151
4.24004
4.21507
4.19123
4.1618
4.13044
4.09554
4.05457
4.01797
3.98932
3.96303
3.94035
3.92086
3.89695
3.871
3.84305
3.81072
3.77683
3.74423
3.71371
3.68511
3.6566
3.62773
3.59827
3.56855
3.53931
3.51094
3.48256
3.4527
3.41991
3.3839
3.34745
3.31458
3.28558
3.25906
3.2341
3.20964
3.18481
3.16004
3.1372
3.11625
3.09486
3.07096
3.04493
3.01819
2.9939
2.97492
2.95907
2.94271
2.92122
2.89033
2.85472
2.82801
2.80572
2.78322
2.76115
2.74043
2.72096
2.70268
2.68549
2.66935
2.65413
2.6379
2.61929
2.59756
2.57228
2.54808
2.52795
2.50673
2.47799
2.44553
2.41834
2.39819
2.38409
2.37576
2.37626
2.36376
3.5189
2.45487
1.75071
1.36044
1.03131
0.732316
0.653565
0.603036
0.543221
0.48545
0.46286
0.447157
0.42932
0.398876
0.382835
0.389202
0.424456
0.431422
0.434001
0.451732
0.498678
0.566084
0.646602
0.728206
0.802752
0.909876
0.999688
1.03163
1.05857
1.0837
1.10801
1.12918
1.13909
1.15006
1.17553
1.21731
1.24349
1.24933
1.2541
1.25408
1.24957
1.25385
1.26671
1.2823
1.29237
1.29379
1.28997
1.29029
1.29641
1.30211
2.61102
6.18776
6.61591
6.20493
6.0815
5.97978
5.88296
5.83413
5.83215
5.85945
5.87466
5.85823
5.84011
5.81528
5.79529
5.80456
5.82249
5.80736
5.75841
5.6977
5.64616
5.6056
5.5679
5.5397
5.52509
5.52467
5.51944
5.48675
5.44564
5.40726
5.37197
5.33781
5.30492
5.27576
5.2536
5.24276
5.24223
5.2316
5.19059
5.13749
5.07816
5.02136
4.98029
4.96148
4.95572
4.9369
4.90147
4.86035
4.81923
4.78018
4.74627
4.72276
4.70628
4.68434
4.65065
4.61414
4.57774
4.54383
4.51339
4.48583
4.45661
4.42209
4.38133
4.33529
4.292
4.25697
4.22813
4.20786
4.18776
4.16093
4.13207
4.09868
4.05712
4.01346
3.98114
3.95693
3.93682
3.91816
3.89543
3.872
3.84665
3.81766
3.78442
3.74763
3.71322
3.68373
3.6563
3.629
3.60073
3.57084
3.53955
3.50772
3.47574
3.44319
3.40964
3.37588
3.34389
3.31475
3.28799
3.26288
3.23867
3.21488
3.19126
3.16759
3.14319
3.11716
3.0894
3.0597
3.03022
3.00723
2.991
2.97684
2.96295
2.94685
2.92668
2.89649
2.85512
2.81768
2.79163
2.77015
2.75047
2.73289
2.7177
2.70427
2.69092
2.67798
2.66502
2.65122
2.63526
2.61525
2.58799
2.5495
2.50392
2.4636
2.43396
2.41389
2.40148
2.39384
2.39589
2.41252
2.4258
2.4018
3.98403
3.04944
2.31193
1.84825
1.50263
1.20156
1.04535
0.910915
0.777772
0.71551
0.655007
0.598258
0.5826
0.562074
0.517172
0.500206
0.503584
0.502938
0.488331
0.47467
0.474871
0.48223
0.495037
0.520825
0.564866
0.644147
0.765563
0.853249
0.913044
0.975101
1.02811
1.06914
1.09314
1.11848
1.16088
1.21047
1.22763
1.2318
1.23734
1.23772
1.2333
1.23612
1.24593
1.26838
1.29791
1.31155
1.31396
1.30763
1.30799
1.32931
2.03011
5.96649
6.91787
6.38926
6.19468
6.04756
5.91675
5.8419
5.82382
5.85159
5.87277
5.87261
5.87308
5.85435
5.81242
5.79249
5.78945
5.77506
5.75115
5.72606
5.69
5.63979
5.58469
5.53257
5.49333
5.48435
5.4998
5.49666
5.46024
5.4164
5.37002
5.32949
5.2962
5.27031
5.25137
5.23685
5.21926
5.18731
5.14424
5.09822
5.05614
5.02197
5.00013
4.97824
4.94638
4.9105
4.87127
4.83585
4.80473
4.7779
4.75591
4.73223
4.70032
4.66503
4.62966
4.59628
4.5669
4.54095
4.51662
4.48902
4.45533
4.41483
4.37041
4.32589
4.28551
4.25269
4.22701
4.20507
4.18066
4.15338
4.12337
4.08982
4.05285
4.01324
3.97741
3.95173
3.9306
3.91001
3.88836
3.86637
3.8433
3.81722
3.78499
3.74549
3.70694
3.67672
3.65088
3.62554
3.59871
3.56903
3.53602
3.50074
3.46552
3.43196
3.40051
3.37133
3.34391
3.31719
3.29074
3.26515
3.24106
3.21831
3.19622
3.17357
3.14867
3.12028
3.08894
3.05646
3.02658
3.00397
2.98739
2.97239
2.95683
2.93947
2.91807
2.88877
2.85058
2.81411
2.78879
2.77008
2.75428
2.74062
2.72698
2.71185
2.69619
2.68042
2.66419
2.64692
2.62855
2.60869
2.58348
2.54613
2.49608
2.45036
2.42315
2.40905
2.39994
2.39755
2.41405
2.43258
2.4311
2.3984
4.32719
3.48786
2.84842
2.35153
1.93295
1.6245
1.42818
1.25486
1.07568
0.97254
0.894575
0.774263
0.711205
0.701757
0.673605
0.618687
0.603387
0.609902
0.600055
0.569041
0.545821
0.539475
0.531355
0.530292
0.529578
0.539858
0.571996
0.612809
0.655744
0.719178
0.795139
0.8884
0.973364
1.04012
1.11462
1.18167
1.20305
1.21494
1.22367
1.22437
1.21876
1.21935
1.23043
1.25283
1.28724
1.30815
1.31455
1.31928
1.36015
1.52798
1.91426
4.85304
6.93453
6.53962
6.24738
6.06893
5.9641
5.90838
5.87999
5.86766
5.84572
5.85625
5.88808
5.88106
5.83409
5.80728
5.78938
5.75602
5.72374
5.71608
5.69862
5.65813
5.60011
5.53498
5.4889
5.46256
5.46834
5.47884
5.45523
5.42058
5.38218
5.34771
5.31712
5.28441
5.25049
5.21642
5.17864
5.13998
5.1075
5.08133
5.06627
5.05818
5.0351
4.99398
4.94002
4.89022
4.85488
4.827
4.80543
4.78725
4.75997
4.72526
4.68504
4.64915
4.61977
4.59814
4.58233
4.5616
4.53239
4.49229
4.44449
4.39915
4.36313
4.33475
4.30741
4.27734
4.24282
4.20549
4.17004
4.13773
4.10712
4.07834
4.0514
4.02376
3.99216
3.95741
3.92649
3.90203
3.88017
3.85885
3.8373
3.81379
3.78479
3.74712
3.70732
3.67602
3.65052
3.62583
3.59964
3.57047
3.5372
3.50028
3.46342
3.4305
3.40155
3.3746
3.34775
3.31996
3.29147
3.26419
3.23995
3.2182
3.19706
3.17453
3.14887
3.11994
3.08945
3.05935
3.03118
3.00594
2.98372
2.96348
2.94365
2.92289
2.8999
2.87332
2.84298
2.8145
2.79543
2.78142
2.76954
2.75806
2.74344
2.72619
2.706
2.68213
2.6567
2.63329
2.61253
2.58983
2.56213
2.52994
2.49407
2.46275
2.44127
2.42735
2.41926
2.4209
2.43171
2.4264
2.41595
2.3736
4.60712
3.86888
3.28532
2.79005
2.34116
2.04025
1.79024
1.57326
1.36216
1.22806
1.12878
1.01371
0.889589
0.85745
0.839462
0.790252
0.73615
0.724258
0.713306
0.681294
0.640381
0.619263
0.608957
0.600937
0.586339
0.572608
0.577866
0.58176
0.576059
0.57568
0.590504
0.635952
0.721306
0.822824
0.935081
1.02892
1.09305
1.13339
1.17167
1.20917
1.22147
1.23312
1.23613
1.24602
1.26344
1.28771
1.31174
1.37881
1.61883
2.08283
2.2998
3.27717
6.06081
6.60133
6.32742
6.1227
6.0164
5.97659
5.92264
5.8726
5.83346
5.84842
5.89471
5.89881
5.84935
5.82393
5.78529
5.73177
5.68022
5.66635
5.67745
5.65848
5.61605
5.55696
5.50302
5.46805
5.44968
5.45148
5.44349
5.419
5.39412
5.36699
5.33499
5.29639
5.2478
5.19336
5.14944
5.11827
5.09436
5.08589
5.08676
5.06839
5.03437
4.98397
4.91592
4.86583
4.83672
4.81502
4.79938
4.77632
4.74645
4.71164
4.67569
4.64754
4.62719
4.61362
4.59137
4.55914
4.51225
4.45432
4.40599
4.3766
4.35667
4.34345
4.32504
4.29632
4.2548
4.20133
4.15215
4.11734
4.0915
4.06933
4.04788
4.02448
3.99559
3.95827
3.91925
3.88901
3.86632
3.84553
3.82455
3.80229
3.77543
3.74024
3.70202
3.67037
3.64429
3.61955
3.59411
3.56652
3.53501
3.49873
3.46088
3.42723
3.39867
3.37201
3.34504
3.317
3.28828
3.26048
3.23546
3.21337
3.19206
3.16888
3.14281
3.11554
3.08913
3.06365
3.0377
3.01038
2.983
2.95733
2.93291
2.90812
2.88271
2.85826
2.83578
2.81647
2.80214
2.79056
2.78031
2.76816
2.75349
2.73646
2.71419
2.68456
2.64988
2.61588
2.58576
2.55845
2.53173
2.50688
2.48947
2.47495
2.46161
2.45173
2.44644
2.44078
2.42872
2.412
2.38549
2.32887
4.81755
4.17981
3.64724
3.1421
2.71333
2.40417
2.12349
1.87528
1.66535
1.48262
1.33111
1.22331
1.11535
1.03567
1.00365
0.96949
0.905891
0.839517
0.81036
0.785572
0.745112
0.6987
0.682743
0.685934
0.682135
0.662681
0.641958
0.630709
0.613789
0.592425
0.590663
0.595283
0.610603
0.64096
0.694023
0.764935
0.837279
0.904337
0.975737
1.05653
1.13414
1.20287
1.24027
1.24898
1.25813
1.2749
1.34952
1.64431
2.08265
2.52147
2.61648
2.71083
4.0214
6.00679
6.37888
6.25638
6.11955
5.98866
5.90177
5.863
5.84534
5.86616
5.91399
5.90873
5.85791
5.82823
5.78225
5.7162
5.66414
5.65481
5.66882
5.66047
5.62596
5.5774
5.52575
5.4873
5.46014
5.44228
5.42777
5.40612
5.38197
5.35558
5.32344
5.28516
5.23807
5.18214
5.13647
5.10826
5.08748
5.07582
5.05965
5.03077
4.99773
4.95435
4.90141
4.86267
4.83825
4.81979
4.79772
4.77064
4.74313
4.71615
4.69061
4.66487
4.63594
4.602
4.55878
4.51002
4.46139
4.42123
4.39588
4.38091
4.37501
4.36247
4.3389
4.30436
4.25453
4.19752
4.14824
4.11357
4.08819
4.06528
4.04179
4.01606
3.98648
3.95278
3.91849
3.88859
3.8638
3.84096
3.81757
3.79217
3.76276
3.72969
3.69737
3.66833
3.6416
3.61621
3.59135
3.56568
3.53741
3.50448
3.46664
3.42849
3.39562
3.36745
3.34108
3.31531
3.28968
3.26366
3.23686
3.20962
3.18273
3.15614
3.13034
3.10669
3.0851
3.064
3.04133
3.01522
2.98551
2.95476
2.92606
2.90015
2.87686
2.85675
2.83969
2.82411
2.80865
2.79422
2.78095
2.76679
2.75073
2.73143
2.70753
2.67878
2.64457
2.60423
2.56287
2.53121
2.51264
2.50245
2.49462
2.4892
2.48538
2.47972
2.46807
2.44989
2.42355
2.38597
2.34251
2.29204
5.00276
4.44539
3.93894
3.43299
3.05022
2.7258
2.42389
2.13905
1.93771
1.74245
1.55998
1.43167
1.34479
1.23344
1.1541
1.13023
1.08827
1.00205
0.914889
0.883024
0.860427
0.824334
0.789727
0.780579
0.776879
0.76252
0.730351
0.695127
0.672638
0.648076
0.626476
0.624825
0.628456
0.643973
0.651297
0.652848
0.659431
0.677032
0.718215
0.790356
0.899854
1.02145
1.15213
1.22002
1.26771
1.40617
1.66551
2.14142
2.44281
2.6299
2.71969
2.73081
2.91089
4.26511
5.98258
6.29379
6.19388
6.00556
5.89806
5.90761
5.90634
5.93156
5.94252
5.88745
5.8285
5.81028
5.78344
5.72513
5.68445
5.67366
5.64943
5.61485
5.58576
5.55689
5.52743
5.49805
5.45996
5.41724
5.37955
5.35039
5.32587
5.3056
5.28475
5.26003
5.22888
5.18839
5.1411
5.10343
5.07775
5.05462
5.03199
5.0083
4.9825
4.95477
4.92474
4.89552
4.86856
4.83946
4.80845
4.77824
4.74957
4.72083
4.68969
4.65303
4.6104
4.56345
4.5164
4.47314
4.44256
4.42288
4.41374
4.40692
4.38907
4.36298
4.32882
4.28639
4.24176
4.19973
4.15897
4.11908
4.0838
4.05389
4.02631
3.99912
3.97239
3.94701
3.92155
3.89423
3.86592
3.83761
3.80787
3.77658
3.74583
3.71773
3.69126
3.66411
3.63642
3.60996
3.58504
3.56107
3.53614
3.50729
3.47092
3.42774
3.3884
3.35924
3.33527
3.31277
3.29076
3.26764
3.24042
3.20682
3.1705
3.13901
3.11456
3.09475
3.07671
3.05862
3.03902
3.01601
2.98765
2.95475
2.9232
2.89893
2.88102
2.8654
2.84933
2.83076
2.80883
2.78638
2.76693
2.74971
2.7322
2.71261
2.69072
2.66733
2.64072
2.60599
2.56063
2.52323
2.50825
2.49937
2.49294
2.492
2.49295
2.48405
2.4703
2.44873
2.41034
2.35839
2.31038
2.27376
5.14449
4.6542
4.1642
3.69758
3.3426
3.00681
2.67468
2.40827
2.18838
1.98802
1.78948
1.65352
1.56353
1.45845
1.32713
1.26652
1.23138
1.16272
1.05521
0.975043
0.959936
0.942057
0.912145
0.877978
0.85935
0.847663
0.821281
0.773176
0.738645
0.726065
0.706147
0.687987
0.686807
0.687836
0.682757
0.670723
0.655869
0.647394
0.648314
0.657696
0.694742
0.767123
0.876734
1.01742
1.22756
1.59129
1.98118
2.39655
2.53272
2.62921
2.7002
2.73492
2.78433
3.06575
4.45704
5.98337
6.16866
6.03562
5.92698
5.97188
6.00113
6.00655
5.97014
5.85723
5.79966
5.79571
5.78546
5.75341
5.71261
5.66797
5.60725
5.55916
5.52508
5.51527
5.50974
5.48944
5.45675
5.40286
5.34564
5.31052
5.28691
5.27206
5.27088
5.26465
5.24351
5.21155
5.16542
5.11287
5.07631
5.05047
5.02809
5.01023
4.99258
4.96975
4.93919
4.90328
4.86874
4.83502
4.80157
4.76844
4.73503
4.70095
4.6639
4.62217
4.57935
4.53686
4.49922
4.4735
4.45729
4.44897
4.43436
4.40886
4.37568
4.33836
4.30218
4.26779
4.23767
4.20897
4.17528
4.13165
4.0836
4.04381
4.01453
3.99205
3.97275
3.95402
3.93236
3.90424
3.86748
3.82759
3.79222
3.76282
3.7379
3.71488
3.69052
3.6624
3.63103
3.60158
3.57653
3.55394
3.5315
3.50572
3.47197
3.42785
3.38384
3.35252
3.33019
3.30975
3.28881
3.26666
3.23771
3.19921
3.15948
3.12853
3.10592
3.08768
3.07123