/*--------------------------------*- C++ -*----------------------------------*\
  =========                 |
  \\      /  F ield         | OpenFOAM: The Open Source CFD Toolbox
   \\    /   O peration     | Website:  https://openfoam.org
    \\  /    A nd           | Version:  10
     \\/     M anipulation  |
\*---------------------------------------------------------------------------*/
FoamFile
{
    format      ascii;
    class       volScalarField;
    location    "4.5";
    object      T;
}
// * * * * * * * * * * * * * * * * * * * * * * * * * * * * * * * * * * * * * //

dimensions      [0 0 0 1 0 0 0];

internalField   nonuniform List<scalar> 
16128
(
1
1
1
1
1
1
1
1
1
1
1
1
1
1
1
1
1
1
1
1
1
1
1
1
2.05403
2.68637
2.70246
2.70907
2.71771
2.72624
2.7348
2.74297
2.75041
2.75686
2.76238
2.7672
2.77168
2.7763
2.78143
2.78687
2.79182
2.79569
2.79873
2.8015
2.80452
2.80723
2.80906
2.81044
1
1
1
1
1
1
1
1
1
1
1
1
1
1
1
1
1
1
1
1
1
1
1
1
2.04249
2.68343
2.70226
2.70894
2.71755
2.72603
2.73454
2.74265
2.75004
2.75646
2.7619
2.76667
2.77114
2.77579
2.78092
2.78623
2.791
2.79477
2.79786
2.80073
2.80375
2.80629
2.80795
2.80924
1
1
1
1
1
1
1
1
1
1
1
1
1
1
1
1
1
1
1
1
1
1
1
1
2.01463
2.67885
2.7014
2.70813
2.71676
2.72523
2.73371
2.74181
2.7492
2.75561
2.761
2.76574
2.77028
2.77501
2.78011
2.78524
2.7898
2.79351
2.79669
2.79957
2.80239
2.80468
2.80608
2.80757
1
1
1
1
1
1
1
1
1
1
1
1
1
1
1
1
1
1
1
1
1
1
1
1
1.97201
2.67075
2.69977
2.70668
2.71538
2.72383
2.73225
2.7403
2.74768
2.75409
2.75949
2.76423
2.76881
2.7736
2.77865
2.7836
2.78803
2.79174
2.795
2.79785
2.80036
2.80237
2.80348
2.80516
1
1
1
1
1
1
1
1
1
1
1
1
1
1
1
1
1
1
1
1
1
1
1
1
1.91409
2.6583
2.69705
2.70432
2.71322
2.72167
2.73001
2.73798
2.74535
2.75183
2.75732
2.76212
2.76673
2.77149
2.77645
2.78127
2.78562
2.78933
2.79261
2.79538
2.79761
2.79937
2.80043
2.80305
1
1
1
1
1
1
1
1
1
1
1
1
1
1
1
1
1
1
1
1
1
1
1
1
1.83801
2.63955
2.69317
2.70105
2.71028
2.71876
2.727
2.7349
2.74231
2.749
2.75474
2.75972
2.76436
2.76902
2.77382
2.7785
2.78274
2.78638
2.78964
2.79248
2.79461
2.79592
2.79522
2.7998
1
1
1
1
1
1
1
1
1
1
1
1
1
1
1
1
1
1
1
1
1
1
1
1
1.74366
2.61292
2.68859
2.6969
2.70635
2.71471
2.7228
2.73059
2.73804
2.74497
2.75109
2.75636
2.76109
2.76564
2.77027
2.77484
2.77904
2.78258
2.78567
2.78842
2.79055
2.79217
2.79046
2.79486
1
1
1
1
1
1
1
1
1
1
1
1
1
1
1
1
1
1
1
1
1
1
1
1
1.63097
2.57864
2.68481
2.69254
2.70194
2.70995
2.71768
2.72517
2.73251
2.7396
2.74614
2.75182
2.75677
2.76124
2.7657
2.77016
2.77435
2.77785
2.78083
2.7835
2.78555
2.78717
2.7847
2.78917
1
1
1
1
1
1
1
1
1
1
1
1
1
1
1
1
1
1
1
1
1
1
1
1
1.4947
2.53089
2.68113
2.68731
2.69673
2.70425
2.7117
2.71899
2.7263
2.73358
2.74055
2.74668
2.75185
2.75621
2.76037
2.76456
2.76858
2.77198
2.77485
2.77744
2.77941
2.78096
2.77801
2.78249
1
1
1
1
1
1
1
1
1
1
1
1
1
1
1
1
1
1
1
1
1
1
1
1
1.32628
2.46013
2.67704
2.68037
2.68994
2.69689
2.70413
2.71137
2.71879
2.72635
2.7338
2.74045
2.74597
2.75032
2.75416
2.75797
2.76173
2.76505
2.76788
2.77039
2.77209
2.77325
2.76998
2.77374
1
1
1
1
1
1
1
1
1
1
1
1
1
1
1
1
1
1
1
1
1
1
1
1
1.13544
2.37736
2.67644
2.67381
2.68112
2.68767
2.69517
2.70266
2.71018
2.71786
2.72566
2.73283
2.73879
2.74329
2.74689
2.75029
2.75369
2.75679
2.75939
2.76159
2.76279
2.7633
2.75949
2.76411
1
1
1
1
1
1
1
1
1
1
1
1
1
1
1
1
1
1
1
1
1
1
1
1
1.00624
2.29877
2.67097
2.67013
2.6755
2.68134
2.68778
2.69444
2.70158
2.70894
2.71659
2.72395
2.73023
2.73494
2.73841
2.74142
2.74434
2.74714
2.74949
2.7514
2.75194
2.75158
2.74692
2.75022
1
1
1
1
1
1
1
1
1
1
1
1
1
1
1
1
1
1
1
1
1
1
1
1
1.00002
2.18419
2.67156
2.67195
2.67578
2.68059
2.68533
2.69008
2.69488
2.70047
2.70703
2.71391
2.72016
2.72498
2.72838
2.73116
2.73367
2.73593
2.73733
2.73804
2.73701
2.73538
2.72961
2.73354
1
1
1
1
1
1
1
1
1
1
1
1
1
1
1
1
1
1
1
1
1
1
1
1
1
2.02698
2.65156
2.67048
2.67515
2.67981
2.68299
2.68594
2.68926
2.6932
2.69785
2.70335
2.70889
2.71347
2.71684
2.71938
2.72105
2.72244
2.72257
2.72226
2.72031
2.71737
2.70826
2.705
1
1
1
1
1
1
1
1
1
1
1
1
1
1
1
1
1
1
1
1
1
1
1
1
1
1.82638
2.59607
2.66162
2.67214
2.67866
2.68233
2.68443
2.68614
2.68794
2.69037
2.69383
2.6977
2.70133
2.70419
2.7059
2.70651
2.70685
2.70569
2.7033
2.69751
2.68805
2.67204
2.66509
1
1
1
1
1
1
1
1
1
1
1
1
1
1
1
1
1
1
1
1
1
1
1
1
1
1.55477
2.48618
2.64278
2.65917
2.66934
2.67595
2.67994
2.6823
2.68368
2.68458
2.68569
2.68739
2.68936
2.69061
2.69097
2.69027
2.68891
2.68547
2.67987
2.66964
2.65705
2.63775
2.64121
1
1
1
1
1
1
1
1
1
1
1
1
1
1
1
1
1
1
1
1
1
1
1
1
1
1.20684
2.36401
2.62972
2.63411
2.64758
2.66026
2.66896
2.67441
2.67735
2.6784
2.67836
2.67832
2.67845
2.67733
2.67581
2.67302
2.66926
2.66296
2.6542
2.63743
2.61141
2.54597
2.40074
1
1
1
1
1
1
1
1
1
1
1
1
1
1
1
1
1
1
1
1
1
1
1
1
1
1.01204
2.26299
2.61946
2.61753
2.62661
2.63897
2.65085
2.66023
2.66644
2.66953
2.66991
2.66911
2.66757
2.66451
2.66072
2.65524
2.64853
2.63852
2.62446
2.59965
2.55266
2.47684
2.27368
1
1
1
1
1
1
1
1
1
1
1
1
1
1
1
1
1
1
1
1
1
1
1
1
1
1.00002
2.08166
2.60396
2.60986
2.61555
2.62265
2.63209
2.6423
2.65056
2.65645
2.65886
2.6583
2.65627
2.65209
2.64631
2.63794
2.62779
2.6136
2.59371
2.56252
2.50929
2.41447
2.20946
1
1
1
1
1
1
1
1
1
1
1
1
1
1
1
1
1
1
1
1
1
1
1
1
1
1
1.80852
2.55487
2.61097
2.61267
2.6153
2.61933
2.62594
2.63281
2.63968
2.64416
2.64473
2.64324
2.63884
2.63184
2.62125
2.60775
2.58937
2.56448
2.52759
2.4728
2.36711
2.1992
1
1
1
1
1
1
1
1
1
1
1
1
1
1
1
1
1
1
1
1
1
1
1
1
1
1
1.42436
2.42904
2.60449
2.6054
2.60838
2.61084
2.61434
2.61785
2.62264
2.62697
2.62858
2.62774
2.62386
2.61663
2.60506
2.58907
2.56736
2.53824
2.49775
2.44131
2.33996
2.20554
1
1
1
1
1
1
1
1
1
1
1
1
1
1
1
1
1
1
1
1
1
1
1
1
1
1
1.05175
2.27995
2.60066
2.59735
2.59922
2.60216
2.60405
2.60507
2.60692
2.60927
2.61066
2.61008
2.60677
2.59995
2.58841
2.57124
2.54774
2.51593
2.47323
2.41541
2.32565
2.21825
1
1
1
1
1
1
1
1
1
1
1
1
1
1
1
1
1
1
1
1
1
1
1
1
1
1
1.00054
2.08884
2.56167
2.57864
2.58723
2.59196
2.5936
2.59358
2.5933
2.59318
2.59278
2.59144
2.58793
2.58144
2.57046
2.55357
2.52987
2.49733
2.45417
2.3969
2.31836
2.23081
1
1
1
1
1
1
1
1
1
1
1
1
1
1
1
1
1
1
1
1
1
1
1
1
1
1
0.999995
1.73553
2.48745
2.56087
2.57417
2.58061
2.58341
2.58336
2.58216
2.58019
2.57745
2.57406
2.5692
2.56215
2.55139
2.53533
2.51258
2.48104
2.43989
2.38458
2.31563
2.24192
1
1
1
1
1
1
1
1
1
1
1
1
1
1
1
1
1
1
1
1
1
1
1
1
1
1
0.999999
1.24822
2.35042
2.5581
2.55766
2.56269
2.56758
2.56974
2.56913
2.56703
2.56318
2.55806
2.55143
2.54306
2.53183
2.51637
2.49505
2.46542
2.42742
2.3762
2.31634
2.25167
1
1
1
1
1
1
1
1
1
1
1
1
1
1
1
1
1
1
1
1
1
1
1
1
1
1
1
1.01546
2.19742
2.53442
2.53533
2.54227
2.54768
2.55239
2.55378
2.55271
2.54923
2.54349
2.53558
2.52566
2.51329
2.49769
2.4774
2.44981
2.41501
2.36929
2.31746
2.25962
1
1
1
1
1
1
1
1
1
1
1
1
1
1
1
1
1
1
1
1
1
1
1
1
1
1
1
1.00001
1.86656
2.48726
2.51994
2.53037
2.53337
2.53674
2.53848
2.5378
2.53488
2.52933
2.52101
2.51017
2.49667
2.48044
2.46023
2.43437
2.40213
2.36216
2.31754
2.26575
1
1
1
1
1
1
1
1
1
1
1
1
1
1
1
1
1
1
1
1
1
1
1
1
1
1
1
0.999997
1.3476
2.36311
2.51997
2.51753
2.51821
2.51994
2.52116
2.52067
2.5184
2.51367
2.506
2.49536
2.48149
2.46511
2.4442
2.41955
2.38966
2.35424
2.31577
2.26936
1
1
1
1
1
1
1
1
1
1
1
1
1
1
1
1
1
1
1
1
1
1
1
1
1
1
1
0.999999
1.03031
2.19346
2.50078
2.50075
2.50175
2.50392
2.50455
2.5038
2.50153
2.49729
2.49041
2.4807
2.46762
2.45102
2.43018
2.40653
2.37862
2.34634
2.31219
2.27098
1
1
1
1
1
1
1
1
1
1
1
1
1
1
1
1
1
1
1
1
1
1
1
1
1
1
1
1
1.00012
1.80243
2.44115
2.48809
2.48928
2.49166
2.49122
2.48924
2.48586
2.48106
2.47438
2.46517
2.45331
2.43732
2.41765
2.39513
2.36864
2.33877
2.30726
2.26978
1
1
1
1
1
1
1
1
1
1
1
1
1
1
1
1
1
1
1
1
1
1
1
1
1
1
1
1
0.999999
1.20379
2.29614
2.48897
2.47927
2.47832
2.47684
2.47375
2.46974
2.46478
2.4582
2.44948
2.43835
2.42381
2.40588
2.38488
2.3598
2.33207
2.30246
2.26807
1
1
1
1
1
1
1
1
1
1
1
1
1
1
1
1
1
1
1
1
1
1
1
1
1
1
1
1
1
1.00957
2.10089
2.45322
2.45713
2.46351
2.46148
2.45838
2.45457
2.44962
2.44295
2.43438
2.4235
2.40998
2.39369
2.37441
2.35116
2.32549
2.29743
2.26593
1
1
1
1
1
1
1
1
1
1
1
1
1
1
1
1
1
1
1
1
1
1
1
1
1
1
1
1
1
0.999994
1.60372
2.35734
2.44794
2.4509
2.44883
2.44606
2.44223
2.43691
2.42967
2.42058
2.40958
2.39637
2.38117
2.36343
2.34219
2.31864
2.29245
2.26379
1
1
1
1
1
1
1
1
1
1
1
1
1
1
1
1
1
1
1
1
1
1
1
1
1
1
1
1
1
0.999996
1.09634
2.18862
2.44172
2.43396
2.43319
2.43171
2.42875
2.42378
2.41651
2.40731
2.39631
2.3834
2.36883
2.35209
2.33259
2.31086
2.28675
2.26059
1
1
1
1
1
1
1
1
1
1
1
1
1
1
1
1
1
1
1
1
1
1
1
1
1
1
1
1
1
0.999999
1.00187
1.8238
2.37538
2.40898
2.41374
2.41616
2.41494
2.41102
2.40427
2.39532
2.38441
2.37162
2.35725
2.34098
2.32266
2.30243
2.28034
2.25626
1
1
1
1
1
1
1
1
1
1
1
1
1
1
1
1
1
1
1
1
1
1
1
1
1
1
1
1
1
1
0.999997
1.20541
2.2151
2.40934
2.40129
2.40207
2.40067
2.39693
2.39094
2.38286
2.37267
2.36044
2.34641
2.33055
2.31293
2.29378
2.27321
2.25083
1
1
1
1
1
1
1
1
1
1
1
1
1
1
1
1
1
1
1
1
1
1
1
1
1
1
1
1
1
1
0.999999
1.00929
1.9406
2.36842
2.37972
2.38261
2.38211
2.37992
2.3756
2.36903
2.36019
2.34907
2.33584
2.32061
2.30364
2.28536
2.26584
2.24495
1
1
1
1
1
1
1
1
1
1
1
1
1
1
1
1
1
1
1
1
1
1
1
1
1
1
1
1
1
1
1
1.00001
1.30279
2.2229
2.37801
2.37112
2.36874
2.36547
2.3609
2.35476
2.3467
2.3366
2.32447
2.31034
2.29451
2.27732
2.25881
2.23916
1
1
1
1
1
1
1
1
1
1
1
1
1
1
1
1
1
1
1
1
1
1
1
1
1
1
1
1
1
1
1
1
1.02084
1.99347
2.34463
2.35723
2.35405
2.34993
2.34511
2.33918
2.3317
2.32258
2.31174
2.29916
2.28492
2.2692
2.25198
2.23343
1
1
1
1
1
1
1
1
1
1
1
1
1
1
1
1
1
1
1
1
1
1
1
1
1
1
1
1
1
1
1
1
1.00008
1.3668
2.20786
2.34851
2.34187
2.33718
2.33161
2.32509
2.31763
2.30919
2.29946
2.28824
2.2754
2.26102
2.24512
2.22774
1
1
1
1
1
1
1
1
1
1
1
1
1
1
1
1
1
1
1
1
1
1
1
1
1
1
1
1
1
1
1
1
1
1.03128
1.99229
2.32321
2.32819
2.32293
2.31725
2.31069
2.3034
2.29526
2.28611
2.27582
2.2643
2.25139
2.23698
2.22126
1
1
1
1
1
1
1
1
1
1
1
1
1
1
1
1
1
1
1
1
1
1
1
1
1
1
1
1
1
1
1
1
1
1.0002
1.38333
2.18627
2.31766
2.30875
2.30392
2.29776
2.2906
2.28254
2.2737
2.26406
2.25357
2.24194
2.22882
2.21449
1
1
1
1
1
1
1
1
1
1
1
1
1
1
1
1
1
1
1
1
1
1
1
1
1
1
1
1
1
1
1
1
1
1
1.03451
1.95562
2.29281
2.29571
2.29011
2.28407
2.2772
2.26971
2.26152
2.25251
2.24262
2.23173
2.2196
2.20629
1
1
1
1
1
1
1
1
1
1
1
1
1
1
1
1
1
1
1
1
1
1
1
1
1
1
1
1
1
1
1
1
1
1
1.00027
1.3544
2.14695
2.28552
2.27673
2.27143
2.26497
2.25815
2.25057
2.242
2.23238
2.22181
2.21032
2.19782
1
1
1
1
1
1
1
1
1
1
1
1
1
1
1
1
1
1
1
1
1
1
1
1
1
1
1
1
1
1
1
1
1
1
1
1.02886
1.86445
2.24796
2.26767
2.25997
2.25322
2.24679
2.23963
2.23139
2.22205
2.21177
2.20076
2.18896
1
1
1
1
1
1
1
1
1
1
1
1
1
1
1
1
1
1
1
1
1
1
1
1
1
1
1
1
1
1
1
1
1
1
1
1.00023
1.27519
2.07869
2.25462
2.2479
2.24404
2.2377
2.22994
2.22132
2.21206
2.20216
2.19166
2.18053
1
1
1
1
1
1
1
1
1
1
1
1
1
1
1
1
1
1
1
1
1
1
1
1
1
1
1
1
1
1
1
1
1
1
1
1
1.01671
1.68608
2.17955
2.23937
2.23241
2.22586
2.21867
2.21071
2.2022
2.19313
2.1832
2.17246
1
1
1
1
1
1
1
1
1
1
1
1
1
1
1
1
1
1
1
1
1
1
1
1
1
1
1
1
1
1
1
1
1
1
1
1
1.00012
1.15666
1.98467
2.22724
2.21753
2.2121
2.20678
2.2007
2.19346
2.18517
2.17567
2.16501
1
1
1
1
1
1
1
1
1
1
1
1
1
1
1
1
1
1
1
1
1
1
1
1
1
1
1
1
1
1
1
1
1
1
1
1
1
1.00537
1.49112
2.10198
2.20249
2.19657
2.19336
2.18904
2.18298
2.17534
2.16667
2.15693
1
1
1
1
1
1
1
1
1
1
1
1
1
1
1
1
1
1
1
1
1
1
1
1
1
1
1
1
1
1
1
1
1
1
1
1
1
1.00003
1.06751
1.83476
2.17615
2.18967
2.18467
2.1788
2.17239
2.16513
2.15713
2.14853
1
1
1
1
1
1
1
1
1
1
1
1
1
1
1
1
1
1
1
1
1
1
1
1
1
1
1
1
1
1
1
1
1
1
1
1
1
1
1.00117
1.28992
2.00748
2.17552
2.16861
2.16344
2.15811
2.15219
2.14538
2.13787
1
1
1
1
1
1
1
1
1
1
1
1
1
1
1
1
1
1
1
1
1
1
1
1
1
1
1
1
1
1
1
1
1
1
1
1
1
1
1
1.01977
1.59894
2.09
2.1587
2.15231
2.14703
2.14187
2.136
2.12922
1
1
1
1
1
1
1
1
1
1
1
1
1
1
1
1
1
1
1
1
1
1
1
1
1
1
1
1
1
1
1
1
1
1
1
1
1
1
1
1.00019
1.11648
1.85671
2.13718
2.14433
2.13819
2.13215
2.12576
2.1192
1
1
1
1
1
1
1
1
1
1
1
1
1
1
1
1
1
1
1
1
1
1
1
1
1
1
1
1
1
1
1
1
1
1
1
1
1
1
1
1
1.00323
1.3403
1.98517
2.12967
2.12526
2.11915
2.11355
2.10708
1
1
1
1
1
1
1
1
1
1
1
1
1
1
1
1
1
1
1
1
1
1
1
1
1
1
1
1
1
1
1
1
1
1
1
1
1
1
1
1
1.00002
1.02919
1.6024
2.0538
2.11785
2.10962
2.10305
2.0977
1
1
1
1
1
1
1
1
1
1
1
1
1
1
1
1
1
1
1
1
1
1
1
1
1
1
1
1
1
1
1
1
1
1
1
1
1
1
1
1
1
1.00036
1.12384
1.81799
2.08521
2.10515
2.09661
2.08888
1
1
1
1
1
1
1
1
1
1
1
1
1
1
1
1
1
1
1
1
1
1
1
1
1
1
1
1
1
1
1
1
1
1
1
1
1
1
1
1
1
1
1.0038
1.31189
1.92661
2.08949
2.08599
2.07643
1
1
1
1
1
1
1
1
1
1
1
1
1
1
1
1
1
1
1
1
1
1
1
1
1
1
1
1
1
1
1
1
1
1
1
1
1
1
1
1
1
1
1.00002
1.02453
1.52234
2.00077
2.07467
2.06694
1
1
1
1
1
1
1
1
1
1
1
1
1
1
1
1
1
1
1
1
1
1
1
1
1
1
1
1
1
1
1
1
1
1
1
1
1
1
1
1
1
1
1
1.0003
1.08981
1.73345
1.99607
2.0846
1
1
1
1
1
1
1
1
1
1
1
1
1
1
1
1
1
1
1
1
1
1
1
1
1
1
1
1
1
1
1
1
1
1
1
1
1
1
1
1
1
1
1
1
1.00239
1.23009
1.77036
2.2528
1
1
1
1
1
1
1
1
1
1
1
1
1
1
1
1
1
1
1
1
1
1
1
1
1
1
1
1
1
1
1
1
1
1
1
1
1
1
1
1
1
1
1
1
1.00002
1.01288
1.76096
2.53796
1
1
1
1
1
1
1
1
1
1
1
1
1
1
1
1
1
1
1
1
1
1
1
1
1
1
1
1
1
1
1
1
1
1
1
1
1
1
1
1
1
1
1
1
1
1.00016
1.90989
2.70964
1
1
1
1
1
1
1
1
1
1
1
1
1
1
1
1
1
1
1
1
1
1
1
1
1
1
1
1
1
1
1
1
1
1
1
1
1
1
1
1
1
1
1
1
1
1
2.02547
2.7753
1
1
1
1
1
1
1
1
1
1
1
1
1
1
1
1
1
1
1
1
1
1
1
1
1
1
1
1
1
1
1
1
1
1
1
1
1
1
1
1
1
1
1
1
1
1
1.98091
2.7576
1
1
1
1
1
1
1
1
1
1
1
1
1
1
1
1
1
1
1
1
1
1
1
1
1
1
1
1
1
1
1
1
1
1
1
1
1
1
1
1
1
1
1
1
1
1
1.87991
2.70242
1
1
1
1
1
1
1
1
1
1
1
1
1
1
1
1
1
1
1
1
1
1
1
1
1
1
1
1
1
1
1
1
1
1
1
1
1
1
1
1
1
1
1
1
1
1
1.75525
2.64402
1
1
1
1
1
1
1
1
1
1
1
1
1
1
1
1
1
1
1
1
1
1
1
1
1
1
1
1
1
1
1
1
1
1
1
1
1
1
1
1
1
1
1
1
1
1
1.63788
2.59899
1
1
1
1
1
1
1
1
1
1
1
1
1
1
1
1
1
1
1
1
1
1
1
1
1
1
1
1
1
1
1
1
1
1
1
1
1
1
1
1
1
1
1
1
1
1
1.52649
2.56492
1
1
1
1
1
1
1
1
1
1
1
1
1
1
1
1
1
1
1
1
1
1
1
1
1
1
1
1
1
1
1
1
1
1
1
1
1
1
1
1
1
1
1
1
1
1
1.4274
2.53342
1
1
1
1
1
1
1
1
1
1
1
1
1
1
1
1
1
1
1
1
1
1
1
1
1
1
1
1
1
1
1
1
1
1
1
1
1
1
1
1
1
1
1
1
1
1
1.34082
2.4995
1
1
1
1
1
1
1
1
1
1
1
1
1
1
1
1
1
1
1
1
1
1
1
1
1
1
1
1
1
1
1
1
1
1
1
1
1
1
1
1
1
1
1
1
1
1
1.26323
2.46111
1
1
1
1
1
1
1
1
1
1
1
1
1
1
1
1
1
1
1
1
1
1
1
1
1
1
1
1
1
1
1
1
1
1
1
1
1
1
1
1
1
1
1
1
1
1
1.19467
2.41973
1
1
1
1
1
1
1
1
1
1
1
1
1
1
1
1
1
1
1
1
1
1
1
1
1
1
1
1
1
1
1
1
1
1
1
1
1
1
1
1
1
1
1
1
1
1
1.12563
2.37473
1
1
1
1
1
1
1
1
1
1
1
1
1
1
1
1
1
1
1
1
1
1
1
1
1
1
1
1
1
1
1
1
1
1
1
1
1
1
1
1
1
1
1
1
1
1
1.04865
2.33498
1
1
1
1
1
1
1
1
1
1
1
1
1
1
1
1
1
1
1
1
1
1
1
1
1
1
1
1
1
1
1
1
1
1
1
1
1
1
1
1
1
1
1
1
1
1
1.00128
2.29322
1
1
1
1
1
1
1
1
1
1
1
1
1
1
1
1
1
1
1
1
1
1
1
1
1
1
1
1
1
1
1
1
1
1
1
1
1
1
1
1
1
1
1
1
1
1
1
2.2522
1
1
1
1
1
1
1
1
1
1
1
1
1
1
1
1
1
1
1
1
1
1
1
1
1
1
1
1
1
1
1
1
1
1
1
1
1
1
1
1
1
1
1
1
1
1
1
2.21726
1
1
1
1
1
1
1
1
1
1
1
1
1
1
1
1
1
1
1
1
1
1
1
1
1
1
1
1
1
1
1
1
1
1
1
1
1
1
1
1
1
1
1
1
1
1
1
2.19037
1
1
1
1
1
1
1
1
1
1
1
1
1
1
1
1
1
1
1
1
1
1
1
1
1
1
1
1
1
1
1
1
1
1
1
1
1
1
1
1
1
1
1
1
1
1
1
2.17249
1
1
1
1
1
1
1
1
1
1
1
1
1
1
1
1
1
1
1
1
1
1
1
1
1
1
1
1
1
1
1
1
1
1
1
1
1
1
1
1
1
1
1
1
1
1
1
2.16511
1.42883
0.624939
0.789405
0.921562
0.771909
0.7088
0.744317
0.868402
1.03882
1.20008
1.30384
1.32739
1.33443
1.34311
1.36552
1.41869
1.49839
1.55562
1.55657
1.54167
1.53173
1.53967
1.56567
1.58734
1.58439
1.56413
1.5524
1.55901
1.5829
1.60102
1.59967
1.59181
1.58755
1.58866
1.59511
1.59783
1.59683
1.59428
1.58848
1.58447
1.58748
1.58945
1.589
1.58869
1.59404
1.60377
1.61081
1.61268
1.60912
1.99661
2.51817
2.62989
2.69053
2.71706
2.71497
2.71445
2.71698
2.71945
2.71587
2.70921
2.70398
2.70294
2.70494
2.70666
2.70329
2.69552
2.68882
2.68531
2.68355
2.68011
2.6723
2.66147
2.64969
2.63826
2.62847
2.62114
2.6161
2.61209
2.60784
2.60261
2.5968
2.59114
2.58576
2.57991
2.57251
2.56306
2.55271
2.54361
2.5373
2.53368
2.5311
2.52724
2.52045
2.51072
2.49993
2.49007
2.48224
2.47608
2.47074
2.46564
2.46028
2.45428
2.4476
2.4407
2.43391
2.42699
2.41954
2.4116
2.40349
2.3957
2.38874
2.38298
2.37846
2.3747
2.37096
2.36649
2.36076
2.35364
2.34566
2.33775
2.33022
2.32348
2.31767
2.31221
2.30709
2.30233
2.29778
2.29338
2.2887
2.28345
2.27799
2.27242
2.26667
2.26069
2.25437
2.24821
2.24248
2.23712
2.23198
2.22693
2.22175
2.21613
2.20986
2.20281
2.19515
2.18728
2.17917
2.17034
2.16084
2.15154
2.14317
2.13575
2.12921
2.12357
2.11898
2.11563
2.11316
2.11044
2.10663
2.10133
2.09468
2.08599
2.07574
2.06624
2.05916
2.05442
2.0516
2.04867
2.0457
2.04307
2.04007
2.03606
2.03126
2.02583
2.01961
2.01244
2.00414
1.99536
1.98794
1.98317
1.98026
1.97902
1.97829
1.97731
1.97601
1.97336
1.96888
1.9618
1.95277
1.94371
1.93636
1.9303
1.75957
1.28878
1.08334
1.09719
1.06815
0.968848
0.865348
0.838281
0.856113
0.926713
1.01925
1.0935
1.12495
1.15651
1.1891
1.23017
1.28148
1.33359
1.38926
1.42678
1.44628
1.46268
1.48723
1.51214
1.51639
1.51903
1.52253
1.53405
1.55327
1.56794
1.57651
1.57555
1.57164
1.5693
1.56944
1.57329
1.58071
1.58381
1.5821
1.58119
1.58171
1.58279
1.58792
1.59473
1.60075
1.60266
1.60208
1.59852
1.58953
1.7333
2.42238
2.64895
2.70277
2.71644
2.71545
2.71071
2.71062
2.71121
2.71049
2.70571
2.69959
2.69481
2.69313
2.69349
2.69432
2.69229
2.68676
2.6805
2.67393
2.66785
2.66184
2.65512
2.64722
2.63856
2.62983
2.62108
2.61266
2.60545
2.59982
2.59525
2.59053
2.58463
2.57751
2.56985
2.56246
2.55576
2.54919
2.54259
2.53635
2.52994
2.52263
2.51508
2.50812
2.50198
2.49584
2.48914
2.48233
2.47534
2.46789
2.46034
2.4534
2.4475
2.44242
2.43722
2.43113
2.42415
2.41652
2.4086
2.40078
2.39348
2.38712
2.38169
2.37667
2.37145
2.36581
2.35993
2.35404
2.34815
2.34182
2.335
2.32835
2.32169
2.3154
2.3096
2.30437
2.29952
2.29494
2.29067
2.2863
2.28114
2.27575
2.27001
2.26398
2.25811
2.25225
2.2466
2.2411
2.23574
2.2304
2.22502
2.21958
2.2139
2.20775
2.20093
2.19334
2.18511
2.17663
2.1682
2.15996
2.15222
2.14502
2.13802
2.1314
2.12558
2.12073
2.11708
2.11417
2.11021
2.10465
2.09809
2.09069
2.08344
2.07717
2.07149
2.0654
2.05971
2.05526
2.05119
2.0471
2.04263
2.03782
2.0326
2.02717
2.02166
2.01617
2.01073
2.00527
1.99966
1.99357
1.98769
1.98351
1.98079
1.97972
1.97859
1.97557
1.97082
1.96432
1.95684
1.94957
1.94338
1.93809
1.93408
1.91122
1.65915
1.41811
1.33803
1.24624
1.12282
1.07898
1.05664
1.01668
1.01568
1.0277
1.03725
1.03337
1.02624
1.03149
1.05023
1.09424
1.15442
1.20699
1.27073
1.32188
1.34488
1.36762
1.39491
1.4197
1.4546
1.47877
1.49415
1.51086
1.52199
1.52934
1.53187
1.53195
1.53145
1.53331
1.54334
1.5552
1.56059
1.56478
1.56523
1.56224
1.56206
1.56518
1.57078
1.57376
1.57252
1.5694
1.56855
1.56828
1.59011
2.23753
2.67325
2.72292
2.69983
2.69819
2.69367
2.68754
2.68459
2.68327
2.68099
2.67553
2.66837
2.66236
2.65856
2.65861
2.66145
2.66207
2.65693
2.64903
2.64148
2.63488
2.62967
2.6244
2.61825
2.61155
2.60357
2.59361
2.58377
2.57575
2.56977
2.56474
2.55864
2.55087
2.54241
2.53485
2.52954
2.52663
2.52335
2.51726
2.5087
2.49905
2.49009
2.48288
2.47884
2.47753
2.47485
2.46918
2.46158
2.45299
2.44424
2.43614
2.42993
2.42604
2.42243
2.41655
2.40948
2.40235
2.39513
2.3884
2.3824
2.37713
2.37199
2.36609
2.35931
2.35215
2.34533
2.33941
2.33463
2.33002
2.32447
2.3187
2.31246
2.30531
2.2989
2.29379
2.28906
2.28491
2.28123
2.27674
2.27187
2.26664
2.26068
2.25447
2.24849
2.2429
2.23767
2.2325
2.22731
2.22204
2.21668
2.21134
2.20605
2.2006
2.19467
2.18795
2.18039
2.17258
2.16529
2.15857
2.1522
2.14606
2.13989
2.13359
2.12743
2.12187
2.1169
2.1119
2.10623
2.10014
2.09399
2.08835
2.08378
2.07986
2.07565
2.07036
2.06314
2.05497
2.04859
2.04314
2.03758
2.03224
2.02736
2.02286
2.01869
2.01482
2.01123
2.00783
2.00419
2.00015
1.99548
1.98998
1.98459
1.97999
1.97486
1.96764
1.95952
1.9528
1.94794
1.94469
1.94301
1.94327
1.94092
1.98917
1.8013
1.64198
1.5416
1.43475
1.29823
1.24921
1.21304
1.1751
1.14641
1.13465
1.12259
1.10692
1.08131
1.06692
1.07138
1.09574
1.10026
1.10237
1.1172
1.15123
1.19454
1.24057
1.2839
1.32007
1.36824
1.41082
1.42816
1.44053
1.45062
1.45965
1.46899
1.47641
1.48412
1.49547
1.50936
1.51812
1.52249
1.52746
1.5279
1.52528
1.52493
1.52569
1.52885
1.53383
1.53696
1.53871
1.54142
1.54386
1.54389
2.00507
2.64873
2.72111
2.67367
2.66143
2.6498
2.63611
2.62703
2.62442
2.62395
2.62041
2.61255
2.60578
2.5992
2.59458
2.59567
2.59903
2.59871
2.59556
2.591
2.58653
2.58168
2.57502
2.56714
2.55958
2.55335
2.54683
2.53761
2.52892
2.52154
2.5151
2.50897
2.50269
2.49619
2.48979
2.48465
2.48104
2.47631
2.46831
2.46007
2.45187
2.44471
2.43993
2.43813
2.43793
2.43561
2.4303
2.42365
2.41656
2.40937
2.40262
2.3972
2.39285
2.38784
2.38151
2.37524
2.36935
2.36408
2.35943
2.35516
2.35049
2.34477
2.3379
2.33009
2.32266
2.31649
2.31119
2.30715
2.30313
2.29815
2.29302
2.28733
2.28048
2.2734
2.26816
2.26422
2.26088
2.25767
2.25366
2.24941
2.24474
2.2394
2.23334
2.22671
2.22058
2.21542
2.21074
2.20623
2.20169
2.19696
2.19203
2.18699
2.18188
2.17655
2.17086
2.1649
2.159
2.15338
2.14798
2.14259
2.13709
2.1316
2.12622
2.12098
2.11569
2.10998
2.10378
2.09735
2.09116
2.08628
2.08269
2.0792
2.07555
2.07146
2.06654
2.05954
2.05001
2.04114
2.0347
2.02934
2.02461
2.02055
2.01715
2.01417
2.01117
2.00814
2.00514
2.00201
1.99844
1.99399
1.98795
1.97923
1.96835
1.95855
1.95138
1.94655
1.9437
1.94223
1.9429
1.94685
1.95009
1.94607
2.04998
1.9034
1.76744
1.66797
1.57368
1.47356
1.42032
1.36721
1.30481
1.27513
1.24297
1.20853
1.19745
1.18478
1.15775
1.14556
1.14674
1.14589
1.13517
1.12511
1.12548
1.13067
1.13953
1.15703
1.18378
1.22892
1.29345
1.33549
1.35997
1.38382
1.4032
1.41908
1.43127
1.44507
1.46401
1.48074
1.48627
1.48866
1.49164
1.49166
1.4899
1.49073
1.49377
1.50137
1.51213
1.5181
1.52004
1.51927
1.52086
1.52894
1.76807
2.51882
2.67162
2.61292
2.59147
2.57424
2.55825
2.548
2.54454
2.54582
2.54339
2.53755
2.53261
2.52713
2.51936
2.51706
2.51783
2.51778
2.51801
2.51886
2.51802
2.51388
2.50692
2.49787
2.48818
2.4819
2.47819
2.47282
2.46383
2.45587
2.44886
2.44323
2.43846
2.43392
2.42924
2.42429
2.41841
2.41069
2.40248
2.39511
2.38941
2.38561
2.384
2.38262
2.37997
2.37657
2.37229
2.36799
2.36363
2.35912
2.35464
2.34949
2.34301
2.3362
2.32981
2.32427
2.31984
2.31637
2.31342
2.31009
2.30579
2.30021
2.29378
2.2871
2.28076
2.2753
2.27071
2.26658
2.26209
2.25729
2.25227
2.24695
2.24134
2.23548
2.23026
2.22662
2.22361
2.22057
2.2172
2.2136
2.20964
2.20505
2.19935
2.19244
2.18577
2.18063
2.17643
2.17255
2.16867
2.16451
2.15993
2.15507
2.15025
2.14567
2.14131
2.13713
2.13297
2.12864
2.12408
2.11939
2.11479
2.11042
2.10624
2.10201
2.09737
2.09204
2.08621
2.08021
2.07458
2.07018
2.06681
2.06359
2.06014
2.05623
2.05137
2.04471
2.03606
2.02765
2.02151
2.01685
2.01291
2.00958
2.00642
2.00312
1.99983
1.99659
1.9933
1.98972
1.9857
1.98112
1.97515
1.96637
1.95472
1.94427
1.93828
1.93531
1.93342
1.93294
1.93699
1.94165
1.94168
1.93667
2.09519
1.97209
1.86687
1.77253
1.6767
1.59629
1.54437
1.4903
1.42616
1.38658
1.35306
1.29604
1.2633
1.25887
1.24534
1.21699
1.20583
1.20821
1.20126
1.18262
1.16935
1.16502
1.15917
1.15727
1.15683
1.16298
1.18336
1.20796
1.2318
1.26506
1.30117
1.34184
1.37705
1.4045
1.43474
1.45851
1.46493
1.46871
1.47228
1.47293
1.47124
1.47153
1.47565
1.48386
1.49634
1.50389
1.5062
1.50877
1.52379
1.57905
1.68861
2.27348
2.57483
2.53928
2.50959
2.49018
2.47968
2.47425
2.47164
2.47023
2.46442
2.46293
2.46208
2.45939
2.45191
2.4487
2.44755
2.44476
2.44301
2.44482
2.44547
2.44294
2.43676
2.42787
2.41962
2.4127
2.40961
2.40666
2.39971
2.39283
2.38714
2.38298
2.37958
2.37554
2.37045
2.36429
2.35688
2.34915
2.34261
2.33768
2.33511
2.33427
2.33217
2.32833
2.32299
2.31819
2.31516
2.31276
2.31063
2.30825
2.30384
2.29775
2.29058
2.28403
2.27865
2.27482
2.27239
2.26982
2.26658
2.26199
2.25626
2.25076
2.24635
2.24274
2.23891
2.23431
2.2288
2.22271
2.21685
2.21156
2.20671
2.20241
2.19869
2.19509
2.191
2.1864
2.18228
2.17903
2.17602
2.1729
2.16953
2.16567
2.1608
2.15447
2.14781
2.14265
2.13862
2.13496
2.13131
2.12742
2.12308
2.11828
2.11359
2.10956
2.10611
2.10284
2.09934
2.09537
2.09097
2.08654
2.08253
2.07892
2.07543
2.07174
2.06756
2.06287
2.05797
2.0531
2.04847
2.04424
2.04045
2.03688
2.0332
2.02913
2.02439
2.01873
2.01213
2.00571
2.0011
1.99755
1.99453
1.99176
1.98856
1.98507
1.98116
1.97658
1.97161
1.96693
1.96264
1.95779
1.95175
1.94478
1.93711
1.93037
1.92565
1.92258
1.92086
1.92138
1.92423
1.92334
1.92148
1.91429
2.13017
2.02837
1.93876
1.85219
1.76143
1.6967
1.63878
1.58116
1.51737
1.47404
1.43811
1.39386
1.34333
1.33031
1.32252
1.30005
1.27247
1.26467
1.25819
1.24187
1.22083
1.20823
1.2013
1.19601
1.18761
1.17989
1.18271
1.18451
1.18053
1.18032
1.18938
1.2162
1.26274
1.31192
1.36144
1.39913
1.42326
1.43808
1.45222
1.46592
1.4697
1.47313
1.47375
1.47696
1.48354
1.49223
1.50046
1.52294
1.59985
1.72707
1.77922
1.98178
2.39767
2.48403
2.45679
2.43573
2.42497
2.42177
2.41724
2.41251
2.40718
2.40817
2.41104
2.41037
2.40366
2.40074
2.39671
2.39109
2.38607
2.38571
2.38818
2.3869
2.38261
2.37543
2.36796
2.36194
2.3572
2.3547
2.35087
2.34571
2.34182
2.33856
2.33525
2.33107
2.32507
2.31755
2.31074
2.30521
2.30053
2.29819
2.29755
2.29479
2.29075
2.28503
2.27729
2.27213
2.26975
2.26819
2.26712
2.26457
2.26041
2.25509
2.24923
2.24422
2.24035
2.23776
2.23442
2.23019
2.22423
2.21696
2.21115
2.20804
2.2061
2.20486
2.20262
2.19859
2.19247
2.18438
2.17683
2.17143
2.16747
2.16426
2.16143
2.15858
2.15508
2.15035
2.14525
2.14133
2.13837
2.1355
2.1324
2.12893
2.12464
2.11893
2.11271
2.10761
2.10353
2.09983
2.09624
2.09253
2.0884
2.08366
2.07874
2.07456
2.07121
2.06807
2.06469
2.06086
2.05664
2.05233
2.04835
2.0448
2.04138
2.03769
2.03361
2.02945
2.02557
2.02191
2.01817
2.01407
2.00981
2.00568
2.00158
1.99716
1.99239
1.98757
1.98292
1.97872
1.9754
1.97265
1.97024
1.96759
1.96463
1.96143
1.95732
1.95178
1.94514
1.93853
1.93266
1.9273
1.92194
1.91688
1.91336
1.91039
1.90762
1.90565
1.90478
1.90386
1.90151
1.89823
1.89299
1.88245
2.15465
2.07078
1.99332
1.91068
1.83263
1.77337
1.71385
1.65485
1.60034
1.5492
1.50162
1.46554
1.42844
1.39955
1.38685
1.37265
1.34552
1.31564
1.30213
1.29088
1.27234
1.24876
1.23905
1.24043
1.23824
1.22801
1.21693
1.21048
1.20021
1.18734
1.18633
1.18916
1.19828
1.21589
1.24541
1.28294
1.31789
1.34756
1.37749
1.41041
1.44027
1.46423
1.47585
1.47835
1.48132
1.48702
1.51262
1.60454
1.7253
1.8301
1.84872
1.86655
2.10874
2.38237
2.43357
2.42108
2.40545
2.39057
2.38265
2.37891
2.37621
2.37815
2.3826
2.38168
2.37514
2.37115
2.36576
2.35829
2.35269
2.3519
2.35399
2.35318
2.34891
2.34269
2.33617
2.33093
2.32666
2.3232
2.32001
2.31603
2.31233
2.30891
2.30518
2.30081
2.29518
2.2881
2.28195
2.27777
2.2744
2.27227
2.26969
2.26568
2.26142
2.25606
2.24962
2.24518
2.24275
2.24115
2.239
2.23589
2.23238
2.22864
2.22488
2.22088
2.21631
2.21108
2.20477
2.19802
2.19153
2.18646
2.18355
2.18196
2.18158
2.18024
2.17719
2.17244
2.16528
2.15694
2.14966
2.14452
2.14077
2.13749
2.13428
2.13095
2.12724
2.12304
2.11873
2.11494
2.11171
2.10854
2.1051
2.10119
2.09655
2.09129
2.08613
2.08152
2.07732
2.07345
2.0698
2.0662
2.06236
2.05792
2.05275
2.04755
2.04322
2.03959
2.03614
2.0326
2.02884
2.0248
2.02045
2.0159
2.01139
2.00699
2.00285
1.99927
1.9962
1.99333
1.99023
1.98647
1.98191
1.97697
1.97222
1.96782
1.96373
1.96003
1.95672
1.95356
1.95034
1.94729
1.94453
1.94172
1.9387
1.9352
1.93088
1.92564
1.91928
1.91155
1.90348
1.89747
1.89407
1.89221
1.89077
1.88984
1.8893
1.88843
1.88625
1.88267
1.87739
1.86977
1.86101
1.85134
2.17595
2.10501
2.03455
1.95648
1.89291
1.83494
1.77554
1.71318
1.66672
1.61752
1.56722
1.52955
1.50363
1.46775
1.43933
1.43003
1.41439
1.38176
1.34621
1.33208
1.32208
1.30606
1.28972
1.28487
1.28286
1.27596
1.26048
1.24273
1.23054
1.21675
1.20507
1.20448
1.20656
1.21495
1.21873
1.21982
1.22367
1.23422
1.25736
1.29357
1.34446
1.39667
1.44733
1.4698
1.48472
1.53156
1.61306
1.73931
1.80953
1.85183
1.87122
1.87112
1.90554
2.14223
2.37385
2.41159
2.40062
2.37778
2.36594
2.36721
2.36632
2.36832
2.36857
2.36218
2.35481
2.35193
2.34844
2.34153
2.33686
2.33577
2.33307
2.32886
2.32509
2.3213
2.31756
2.31391
2.30912
2.30364
2.29856
2.29434
2.29082
2.28814
2.28574
2.2828
2.27886
2.27364
2.26742
2.26238
2.25897
2.25595
2.253
2.24995
2.24667
2.24317
2.23935
2.23565
2.23234
2.22884
2.22513
2.22146
2.21784
2.21403
2.20971
2.20459
2.1986
2.19188
2.18511
2.17909
2.17502
2.17237
2.17127
2.1705
2.16803
2.1643
2.15941
2.15329
2.14682
2.14071
2.13475
2.12891
2.12381
2.1196
2.11582
2.11219
2.10874
2.10557
2.1024
2.09884
2.09499
2.09099
2.08654
2.08167
2.07678
2.07229
2.06807
2.06376
2.0594
2.05533
2.05157
2.04801
2.04441
2.04031
2.03507
2.02873
2.02298
2.0189
2.01558
2.01235
2.009
2.00526
2.00065
1.99482
1.98847
1.98305
1.97901
1.97593
1.97327
1.97069
1.96791
1.96453
1.96014
1.95477
1.94946
1.94535
1.94227
1.93948
1.93648
1.93292
1.92864
1.92426
1.92049
1.91722
1.91397
1.9104
1.9065
1.9024
1.89764
1.8912
1.88241
1.87512
1.87248
1.87099
1.86999
1.86998
1.87035
1.86868
1.86606
1.86185
1.85403
1.8433
1.83402
1.82658
2.19241
2.13124
2.06509
1.9967
1.9414
1.88467
1.82286
1.76936
1.72271
1.67643
1.62675
1.59126
1.56699
1.53647
1.49499
1.47459
1.46277
1.43939
1.4009
1.36877
1.36192
1.35439
1.34211
1.32759
1.3192
1.31376
1.30175
1.2796
1.26285
1.25644
1.24637
1.23708
1.23645
1.23692
1.23419
1.2278
1.21976
1.21524
1.21584
1.2213
1.24195
1.28022
1.33327
1.39319
1.47219
1.59415
1.70251
1.80021
1.82806
1.84967
1.8667
1.87101
1.87724
1.92844
2.16301
2.36467
2.38826
2.37333
2.3585
2.36276
2.36582
2.36615
2.36144
2.34782
2.34116
2.34057
2.33908
2.33499
2.33032
2.32536
2.31824
2.31257
2.30878
2.30801
2.30755
2.3052
2.30125
2.2945
2.28719
2.28279
2.27985
2.27799
2.27785
2.27701
2.27412
2.26974
2.26348
2.2565
2.25183
2.24872
2.24609
2.244
2.24181
2.23886
2.23483
2.23006
2.22549
2.22108
2.21673
2.21239
2.208
2.20346
2.19843
2.19276
2.18698
2.18139
2.17627
2.17249
2.17009
2.16877
2.16639
2.16259
2.1578
2.15238
2.14705
2.14191
2.13742
2.13312
2.12811
2.1217
2.11471
2.10903
2.10503
2.10217
2.09976
2.09746
2.09468
2.0908
2.08541
2.07941
2.07401
2.0694
2.06536
2.06157
2.05758
2.05302
2.04802
2.04351
2.03973
2.0363
2.03292
2.02903
2.0239
2.01712
2.01027
2.00553
2.00229
1.99919
1.99584
1.99208
1.98695
1.98008
1.97298
1.96749
1.96359
1.96059
1.95799
1.95543
1.95262
1.9493
1.94514
1.94005
1.9351
1.93146
1.92857
1.9256
1.92215
1.91778
1.91206
1.90578
1.90078
1.89699
1.89346
1.89019
1.88729
1.88451
1.88131
1.87705
1.87104
1.86408
1.8589
1.85634
1.85487
1.8539
1.8534
1.85229