/*--------------------------------*- C++ -*----------------------------------*\
  =========                 |
  \\      /  F ield         | OpenFOAM: The Open Source CFD Toolbox
   \\    /   O peration     | Website:  https://openfoam.org
    \\  /    A nd           | Version:  10
     \\/     M anipulation  |
\*---------------------------------------------------------------------------*/
FoamFile
{
    format      ascii;
    class       volVectorField;
    location    "4.5";
    object      U;
}
// * * * * * * * * * * * * * * * * * * * * * * * * * * * * * * * * * * * * * //

dimensions      [0 1 -1 0 0 0 0];

internalField   nonuniform List<vector> 
16128
(
(3 -9.52166e-15 0)
(3 -6.5517e-15 0)
(3 2.65076e-14 0)
(3 3.22e-14 0)
(3 8.37429e-15 0)
(3 -3.92107e-14 0)
(3 -7.68348e-14 0)
(3 -7.61076e-14 0)
(3 -6.41069e-14 0)
(3 -8.66926e-14 0)
(3 -1.01625e-13 0)
(3 -5.19839e-14 0)
(3 -2.95844e-14 0)
(3 4.49038e-15 0)
(3 -3.39708e-14 0)
(3 -7.37806e-14 0)
(3 -8.11159e-14 0)
(3 -5.86222e-14 0)
(3 -2.14062e-14 0)
(3 -7.46143e-15 0)
(3 2.14054e-15 0)
(3 -2.60545e-14 0)
(3 -8.17129e-14 0)
(3 -3.71788e-14 0)
(1.47564 0.00780894 0)
(0.77605 0.00690977 0)
(0.727221 0.0128886 0)
(0.697262 0.0132338 0)
(0.665739 0.0132256 0)
(0.635667 0.0130277 0)
(0.606291 0.0128956 0)
(0.577315 0.0129795 0)
(0.548153 0.0133014 0)
(0.51826 0.0138445 0)
(0.487372 0.0144011 0)
(0.45608 0.014634 0)
(0.425249 0.0146559 0)
(0.394683 0.0148729 0)
(0.363412 0.0153034 0)
(0.330955 0.0157674 0)
(0.297633 0.0162323 0)
(0.263683 0.0168487 0)
(0.228707 0.0176271 0)
(0.191918 0.0185286 0)
(0.153181 0.0192479 0)
(0.11227 0.0206608 0)
(0.0681565 0.0220786 0)
(0.0234852 0.0224947 0)
(3 -2.48133e-14 0)
(3 -4.5553e-14 0)
(3 1.06189e-14 0)
(3 -1.73914e-16 0)
(3 -8.01619e-14 0)
(3 -1.06675e-13 0)
(3 -9.35319e-14 0)
(3 -9.9447e-14 0)
(3 -5.80831e-14 0)
(3 -7.31552e-14 0)
(3 -4.94581e-14 0)
(3 2.58534e-14 0)
(3 5.60429e-14 0)
(3 6.57242e-14 0)
(3 -3.4414e-15 0)
(3 -5.91754e-14 0)
(3 -9.63863e-14 0)
(3 -5.23309e-14 0)
(3 1.48138e-14 0)
(3 1.67802e-14 0)
(3 -1.47332e-14 0)
(3 -5.35777e-14 0)
(3 -7.78571e-14 0)
(3 -1.5486e-14 0)
(1.49223 0.0374176 0)
(0.771541 0.0301096 0)
(0.719527 0.0382448 0)
(0.689377 0.0384026 0)
(0.657791 0.0381807 0)
(0.627667 0.037494 0)
(0.598273 0.0370811 0)
(0.569301 0.0374147 0)
(0.540141 0.0385286 0)
(0.510264 0.040326 0)
(0.479421 0.0421764 0)
(0.448151 0.0430212 0)
(0.417288 0.0431476 0)
(0.386687 0.0437955 0)
(0.355531 0.0451297 0)
(0.323449 0.0467118 0)
(0.290736 0.048418 0)
(0.25753 0.050543 0)
(0.223458 0.0528919 0)
(0.187883 0.0555171 0)
(0.150569 0.0578172 0)
(0.111017 0.0627262 0)
(0.0676833 0.0675608 0)
(0.0238743 0.0689298 0)
(3 1.67559e-14 0)
(3 4.42837e-15 0)
(3 7.02029e-15 0)
(3 -1.98465e-14 0)
(3 -8.78028e-14 0)
(3 -1.147e-13 0)
(3 -9.34686e-14 0)
(3 -3.98309e-14 0)
(3 1.39593e-14 0)
(3 2.25165e-14 0)
(3 -3.47699e-14 0)
(3 -3.274e-14 0)
(3 -4.52655e-14 0)
(3 2.95926e-14 0)
(3 5.7212e-14 0)
(3 3.36536e-14 0)
(3 -1.4036e-15 0)
(3 3.40172e-14 0)
(3 4.48235e-15 0)
(3 4.80343e-15 0)
(3 -1.63934e-14 0)
(3 -1.22437e-13 0)
(3 -1.15157e-13 0)
(3 -1.0294e-13 0)
(1.54297 0.0662042 0)
(0.776735 0.0537721 0)
(0.721259 0.0648481 0)
(0.690333 0.0652894 0)
(0.657841 0.0649919 0)
(0.626784 0.0638294 0)
(0.596499 0.0629976 0)
(0.566749 0.0633563 0)
(0.536955 0.0650445 0)
(0.506627 0.0679298 0)
(0.475458 0.0709585 0)
(0.443771 0.0723234 0)
(0.412288 0.0724246 0)
(0.380951 0.0733443 0)
(0.349186 0.0754256 0)
(0.316695 0.0778911 0)
(0.283645 0.0803676 0)
(0.250121 0.0833323 0)
(0.215978 0.0865558 0)
(0.18101 0.0905728 0)
(0.144889 0.0945269 0)
(0.107231 0.103419 0)
(0.0654405 0.111819 0)
(0.0242985 0.113721 0)
(3 2.38147e-14 0)
(3 3.63374e-14 0)
(3 2.9715e-14 0)
(3 5.41828e-14 0)
(3 2.47268e-14 0)
(3 2.07281e-15 0)
(3 3.33066e-14 0)
(3 7.79218e-14 0)
(3 3.35356e-14 0)
(3 5.05929e-15 0)
(3 -2.80385e-14 0)
(3 -5.44677e-14 0)
(3 -2.55456e-14 0)
(3 1.32491e-14 0)
(3 6.08329e-14 0)
(3 7.36094e-14 0)
(3 6.83072e-14 0)
(3 4.19532e-14 0)
(3 -2.60772e-14 0)
(3 7.60312e-15 0)
(3 3.45359e-14 0)
(3 -2.24126e-14 0)
(3 -4.71614e-14 0)
(3 -1.03721e-13 0)
(1.62055 0.0924412 0)
(0.783902 0.078081 0)
(0.724024 0.091152 0)
(0.693417 0.0918492 0)
(0.661092 0.0916286 0)
(0.630026 0.0901714 0)
(0.599588 0.0890143 0)
(0.569652 0.0894114 0)
(0.539728 0.0916811 0)
(0.509392 0.0956933 0)
(0.478247 0.100014 0)
(0.446337 0.102136 0)
(0.414277 0.102507 0)
(0.382119 0.10399 0)
(0.349533 0.107063 0)
(0.316235 0.110546 0)
(0.282222 0.113733 0)
(0.247516 0.117284 0)
(0.212188 0.12087 0)
(0.176538 0.125794 0)
(0.140178 0.130769 0)
(0.103656 0.143363 0)
(0.062969 0.154931 0)
(0.0233493 0.156283 0)
(3 3.08113e-15 0)
(3 7.91139e-15 0)
(3 -3.4995e-14 0)
(3 -1.35506e-14 0)
(3 1.15261e-14 0)
(3 3.23488e-14 0)
(3 2.63097e-14 0)
(3 1.20127e-14 0)
(3 -1.29211e-14 0)
(3 -4.5448e-14 0)
(3 -5.12344e-14 0)
(3 -3.58289e-14 0)
(3 -1.77512e-14 0)
(3 -2.83911e-14 0)
(3 -4.07041e-15 0)
(3 1.90811e-14 0)
(3 8.83184e-15 0)
(3 -7.24073e-14 0)
(3 -9.12288e-14 0)
(3 -5.27034e-14 0)
(3 -5.66949e-14 0)
(3 -5.64242e-14 0)
(3 -1.00934e-13 0)
(3 -2.37692e-13 0)
(1.72744 0.118128 0)
(0.79359 0.103888 0)
(0.725869 0.11752 0)
(0.695305 0.118402 0)
(0.663007 0.118415 0)
(0.631862 0.116857 0)
(0.601233 0.1154 0)
(0.571149 0.115662 0)
(0.541283 0.118264 0)
(0.511327 0.123216 0)
(0.480786 0.128805 0)
(0.449349 0.131845 0)
(0.417505 0.132653 0)
(0.38539 0.134804 0)
(0.352843 0.138975 0)
(0.319509 0.143648 0)
(0.285158 0.147759 0)
(0.249704 0.152161 0)
(0.213267 0.156241 0)
(0.176551 0.162127 0)
(0.139006 0.167547 0)
(0.102422 0.183111 0)
(0.0622823 0.1974 0)
(0.0231231 0.197807 0)
(3 2.27838e-16 0)
(3 6.46728e-16 0)
(3 -3.17686e-14 0)
(3 -3.86135e-14 0)
(3 7.15063e-15 0)
(3 4.15971e-15 0)
(3 -6.09382e-14 0)
(3 -4.62084e-14 0)
(3 -4.79472e-14 0)
(3 -9.66138e-14 0)
(3 -9.45756e-14 0)
(3 -9.31129e-14 0)
(3 -6.35964e-14 0)
(3 -7.46022e-14 0)
(3 -7.98851e-14 0)
(3 -6.69856e-14 0)
(3 -8.15181e-14 0)
(3 -5.93083e-14 0)
(3 6.94764e-15 0)
(3 1.47939e-14 0)
(3 -2.03067e-14 0)
(3 -6.52807e-14 0)
(3 -1.60403e-13 0)
(3 -1.99122e-13 0)
(1.87032 0.141056 0)
(0.809098 0.131526 0)
(0.729409 0.144015 0)
(0.699096 0.144751 0)
(0.667079 0.14512 0)
(0.636033 0.143772 0)
(0.605195 0.142235 0)
(0.574753 0.142342 0)
(0.544603 0.145061 0)
(0.514649 0.150724 0)
(0.484406 0.157548 0)
(0.453189 0.161722 0)
(0.421337 0.163185 0)
(0.389058 0.166092 0)
(0.356302 0.171411 0)
(0.322692 0.177401 0)
(0.287906 0.182644 0)
(0.251852 0.188216 0)
(0.214411 0.193057 0)
(0.176371 0.20029 0)
(0.136743 0.205865 0)
(0.0996082 0.22358 0)
(0.0608365 0.23728 0)
(0.0331772 0.238989 0)
(3 -1.30911e-14 0)
(3 2.00054e-15 0)
(3 1.1623e-14 0)
(3 1.57501e-14 0)
(3 1.23367e-14 0)
(3 3.81928e-15 0)
(3 -1.32562e-15 0)
(3 -1.75149e-14 0)
(3 -4.28534e-14 0)
(3 -3.73856e-14 0)
(3 1.65599e-14 0)
(3 5.55045e-14 0)
(3 6.24715e-14 0)
(3 6.71168e-15 0)
(3 -5.92506e-14 0)
(3 -2.26059e-14 0)
(3 -1.43419e-14 0)
(3 1.80771e-14 0)
(3 6.28217e-14 0)
(3 7.20904e-14 0)
(3 9.25e-14 0)
(3 6.06492e-14 0)
(3 2.51084e-14 0)
(3 9.78101e-15 0)
(2.0454 0.158479 0)
(0.829833 0.161821 0)
(0.732457 0.170122 0)
(0.703067 0.17026 0)
(0.672108 0.170999 0)
(0.642089 0.170173 0)
(0.611931 0.168844 0)
(0.581963 0.168837 0)
(0.552291 0.171433 0)
(0.523037 0.17745 0)
(0.49374 0.18533 0)
(0.463263 0.190828 0)
(0.431726 0.193232 0)
(0.39943 0.1971 0)
(0.366367 0.20376 0)
(0.332167 0.211358 0)
(0.296548 0.218071 0)
(0.259639 0.225203 0)
(0.221159 0.231137 0)
(0.182153 0.240338 0)
(0.140567 0.246411 0)
(0.102166 0.265639 0)
(0.0607686 0.276046 0)
(0.0407831 0.281066 0)
(3 2.95799e-15 0)
(3 -5.72703e-16 0)
(3 3.86403e-15 0)
(3 7.27042e-15 0)
(3 3.446e-14 0)
(3 6.5626e-14 0)
(3 8.08574e-14 0)
(3 5.54555e-14 0)
(3 2.52715e-14 0)
(3 3.79282e-14 0)
(3 5.68152e-14 0)
(3 7.81694e-14 0)
(3 7.55123e-14 0)
(3 7.04647e-14 0)
(3 7.7633e-14 0)
(3 5.62438e-14 0)
(3 5.5489e-14 0)
(3 5.08068e-14 0)
(3 9.70311e-14 0)
(3 1.11029e-13 0)
(3 1.71048e-13 0)
(3 1.15793e-13 0)
(3 9.24244e-14 0)
(3 4.45262e-14 0)
(2.25136 0.172526 0)
(0.85575 0.198261 0)
(0.732043 0.196453 0)
(0.703343 0.195879 0)
(0.672733 0.196976 0)
(0.643245 0.196954 0)
(0.613257 0.196077 0)
(0.583286 0.195993 0)
(0.553689 0.198202 0)
(0.524882 0.204185 0)
(0.496676 0.212997 0)
(0.467498 0.220071 0)
(0.437091 0.223722 0)
(0.405848 0.228689 0)
(0.373701 0.236774 0)
(0.340121 0.246183 0)
(0.304678 0.254663 0)
(0.267719 0.263711 0)
(0.228684 0.270849 0)
(0.189144 0.281977 0)
(0.146303 0.288502 0)
(0.107146 0.309205 0)
(0.0636358 0.317586 0)
(0.042867 0.324505 0)
(3 8.5091e-15 0)
(3 9.38182e-16 0)
(3 5.06586e-15 0)
(3 2.18543e-14 0)
(3 4.35835e-14 0)
(3 9.48549e-14 0)
(3 1.45711e-13 0)
(3 1.43295e-13 0)
(3 6.74334e-14 0)
(3 2.99248e-14 0)
(3 4.19878e-14 0)
(3 4.39639e-14 0)
(3 4.48807e-14 0)
(3 6.61885e-14 0)
(3 8.1163e-14 0)
(3 5.6378e-14 0)
(3 1.00707e-13 0)
(3 9.59141e-14 0)
(3 8.60721e-14 0)
(3 8.80308e-14 0)
(3 8.89226e-14 0)
(3 6.9086e-14 0)
(3 9.27758e-14 0)
(3 4.85555e-14 0)
(2.4926 0.182598 0)
(0.901265 0.24086 0)
(0.745409 0.222514 0)
(0.718931 0.222814 0)
(0.687571 0.224161 0)
(0.657282 0.225048 0)
(0.6257 0.224921 0)
(0.593888 0.224828 0)
(0.562504 0.226273 0)
(0.532215 0.231398 0)
(0.503314 0.240306 0)
(0.474177 0.248575 0)
(0.44406 0.253374 0)
(0.413479 0.259299 0)
(0.382376 0.268744 0)
(0.350001 0.280176 0)
(0.315483 0.290847 0)
(0.279278 0.302398 0)
(0.240175 0.311232 0)
(0.200325 0.324587 0)
(0.156075 0.332059 0)
(0.115271 0.354585 0)
(0.0684009 0.362615 0)
(0.0454558 0.371071 0)
(3 1.3525e-14 0)
(3 1.50461e-14 0)
(3 2.15113e-14 0)
(3 4.2568e-14 0)
(3 2.16923e-14 0)
(3 4.53763e-14 0)
(3 1.27619e-14 0)
(3 -2.39086e-15 0)
(3 6.62968e-15 0)
(3 -3.67036e-14 0)
(3 -1.94813e-14 0)
(3 4.91345e-15 0)
(3 -1.39259e-15 0)
(3 2.46924e-14 0)
(3 4.97411e-14 0)
(3 6.39883e-14 0)
(3 8.56536e-14 0)
(3 1.24465e-13 0)
(3 8.00785e-14 0)
(3 5.45643e-14 0)
(3 -6.39913e-15 0)
(3 3.85768e-14 0)
(3 8.23047e-14 0)
(3 6.02845e-14 0)
(2.75569 0.173454 0)
(0.979507 0.275378 0)
(0.779366 0.23683 0)
(0.755846 0.243185 0)
(0.721496 0.248185 0)
(0.688846 0.252081 0)
(0.654227 0.253986 0)
(0.618974 0.254837 0)
(0.583895 0.25619 0)
(0.550019 0.260512 0)
(0.518171 0.269135 0)
(0.487113 0.278242 0)
(0.455642 0.283883 0)
(0.424325 0.290237 0)
(0.393264 0.300493 0)
(0.361643 0.313761 0)
(0.327822 0.326814 0)
(0.292222 0.341523 0)
(0.252593 0.352942 0)
(0.212029 0.369255 0)
(0.165846 0.378698 0)
(0.122629 0.403896 0)
(0.0720126 0.413207 0)
(0.0456031 0.420715 0)
(3 1.44623e-14 0)
(3 1.84502e-15 0)
(3 2.39539e-14 0)
(3 5.64171e-14 0)
(3 4.45378e-14 0)
(3 -5.17114e-14 0)
(3 -9.80328e-14 0)
(3 -8.7757e-14 0)
(3 -4.14262e-14 0)
(3 -3.11583e-14 0)
(3 -5.3257e-14 0)
(3 -5.55161e-14 0)
(3 -4.30576e-14 0)
(3 -5.61469e-15 0)
(3 5.9205e-14 0)
(3 7.17125e-14 0)
(3 7.00502e-14 0)
(3 4.30768e-14 0)
(3 -2.84395e-14 0)
(3 -4.66655e-14 0)
(3 -2.53457e-14 0)
(3 5.46178e-14 0)
(3 -8.6023e-15 0)
(3 -3.20917e-15 0)
(2.97542 0.0571453 0)
(1.07549 0.286133 0)
(0.80435 0.250397 0)
(0.790252 0.265677 0)
(0.757723 0.273823 0)
(0.725069 0.280308 0)
(0.689169 0.285053 0)
(0.651938 0.287826 0)
(0.61436 0.289453 0)
(0.577374 0.292769 0)
(0.542184 0.300472 0)
(0.508376 0.309909 0)
(0.474548 0.316126 0)
(0.441265 0.322415 0)
(0.408916 0.33275 0)
(0.377049 0.347427 0)
(0.343321 0.362778 0)
(0.30839 0.380981 0)
(0.268698 0.39561 0)
(0.228156 0.415282 0)
(0.180373 0.428085 0)
(0.134386 0.457117 0)
(0.0804719 0.468694 0)
(0.0526456 0.474683 0)
(3 -1.3491e-14 0)
(3 -1.20955e-14 0)
(3 3.02853e-14 0)
(3 3.71403e-14 0)
(3 3.54531e-14 0)
(3 8.41065e-15 0)
(3 8.85718e-15 0)
(3 -1.00378e-14 0)
(3 -2.5629e-14 0)
(3 -2.23276e-14 0)
(3 -5.13474e-16 0)
(3 -1.68991e-14 0)
(3 -8.82328e-15 0)
(3 -4.06684e-14 0)
(3 5.94222e-14 0)
(3 9.2514e-14 0)
(3 6.16325e-14 0)
(3 1.9491e-14 0)
(3 -5.54895e-14 0)
(3 -5.96974e-14 0)
(3 -6.73511e-14 0)
(3 -4.88416e-14 0)
(3 -2.13276e-14 0)
(3 -4.79424e-14 0)
(3.01246 0.004816 0)
(1.16288 0.284532 0)
(0.802506 0.264978 0)
(0.793593 0.292546 0)
(0.767121 0.304151 0)
(0.741045 0.311194 0)
(0.712519 0.316112 0)
(0.680725 0.320022 0)
(0.645819 0.323496 0)
(0.60934 0.327447 0)
(0.572935 0.33468 0)
(0.537209 0.344343 0)
(0.50107 0.351148 0)
(0.465205 0.357231 0)
(0.430419 0.366987 0)
(0.397252 0.382419 0)
(0.362924 0.399345 0)
(0.328401 0.420806 0)
(0.288292 0.439626 0)
(0.24638 0.464277 0)
(0.195315 0.483002 0)
(0.145822 0.517274 0)
(0.086407 0.530593 0)
(0.056139 0.537677 0)
(3 -1.95557e-14 0)
(3 -8.60522e-15 0)
(3 -1.62022e-14 0)
(3 -4.87844e-14 0)
(3 -2.3614e-14 0)
(3 7.51053e-14 0)
(3 5.91822e-14 0)
(3 4.82352e-14 0)
(3 6.48748e-14 0)
(3 4.78611e-14 0)
(3 2.61287e-14 0)
(3 4.99477e-15 0)
(3 -3.10151e-14 0)
(3 -9.22345e-14 0)
(3 -7.45673e-14 0)
(3 8.29465e-15 0)
(3 3.31471e-14 0)
(3 4.66903e-14 0)
(3 2.08193e-14 0)
(3 1.51587e-14 0)
(3 -5.41759e-14 0)
(3 -3.37959e-14 0)
(3 5.44811e-15 0)
(3 -2.94952e-14 0)
(3.00032 9.47235e-06 0)
(1.30117 0.305449 0)
(0.795234 0.273497 0)
(0.775278 0.306279 0)
(0.75365 0.325654 0)
(0.732519 0.335099 0)
(0.712672 0.342291 0)
(0.692106 0.348445 0)
(0.667855 0.353757 0)
(0.638486 0.359615 0)
(0.605589 0.368138 0)
(0.571045 0.379296 0)
(0.534406 0.387838 0)
(0.49668 0.394638 0)
(0.459249 0.403642 0)
(0.42404 0.419169 0)
(0.388007 0.437258 0)
(0.353001 0.461896 0)
(0.313047 0.485641 0)
(0.271847 0.51587 0)
(0.221292 0.540916 0)
(0.171365 0.581818 0)
(0.104205 0.599236 0)
(0.0705463 0.611069 0)
(3 5.58802e-15 0)
(3 6.88716e-15 0)
(3 -4.17887e-14 0)
(3 -8.95532e-14 0)
(3 -8.76254e-14 0)
(3 -5.99103e-14 0)
(3 -5.91845e-14 0)
(3 -5.10649e-14 0)
(3 -1.77238e-14 0)
(3 4.44541e-14 0)
(3 3.89944e-14 0)
(3 2.64491e-14 0)
(3 -2.71375e-14 0)
(3 -5.79309e-14 0)
(3 -8.83569e-14 0)
(3 4.28379e-15 0)
(3 3.17064e-14 0)
(3 1.73044e-14 0)
(3 4.93079e-14 0)
(3 3.02787e-14 0)
(3 4.082e-14 0)
(3 3.16742e-14 0)
(3 3.89997e-14 0)
(3 3.9841e-14 0)
(3 -2.7972e-08 0)
(1.53405 0.339233 0)
(0.808519 0.311075 0)
(0.747525 0.318822 0)
(0.731163 0.33292 0)
(0.715138 0.343046 0)
(0.701147 0.353174 0)
(0.686574 0.364477 0)
(0.670448 0.37636 0)
(0.650798 0.387402 0)
(0.62677 0.399314 0)
(0.598968 0.413435 0)
(0.566603 0.425333 0)
(0.53066 0.43449 0)
(0.492828 0.443394 0)
(0.455977 0.459101 0)
(0.41887 0.47756 0)
(0.384008 0.504282 0)
(0.344915 0.532103 0)
(0.304754 0.568399 0)
(0.251732 0.60432 0)
(0.196172 0.65971 0)
(0.116989 0.687857 0)
(0.071756 0.707749 0)
(3 1.13225e-14 0)
(3 6.74224e-15 0)
(3 4.61798e-15 0)
(3 3.79496e-15 0)
(3 -1.82603e-14 0)
(3 -3.42974e-14 0)
(3 -3.27796e-14 0)
(3 -3.48542e-14 0)
(3 -6.15785e-17 0)
(3 1.61213e-14 0)
(3 4.06857e-14 0)
(3 6.78103e-14 0)
(3 2.64738e-14 0)
(3 3.30548e-14 0)
(3 1.20699e-14 0)
(3 4.69283e-14 0)
(3 2.41516e-14 0)
(3 -2.91198e-14 0)
(3 6.80526e-14 0)
(3 5.68235e-14 0)
(3 7.6348e-14 0)
(3 5.09732e-14 0)
(3 3.61072e-14 0)
(3 7.15515e-14 0)
(3 -3.15782e-08 0)
(1.88159 0.377061 0)
(0.840647 0.374601 0)
(0.745292 0.351152 0)
(0.725619 0.349692 0)
(0.711488 0.357655 0)
(0.697071 0.367006 0)
(0.682679 0.377867 0)
(0.668273 0.390922 0)
(0.652962 0.405722 0)
(0.636322 0.422416 0)
(0.617242 0.440996 0)
(0.593032 0.458147 0)
(0.563278 0.472259 0)
(0.528472 0.483646 0)
(0.49307 0.500619 0)
(0.456059 0.519397 0)
(0.421315 0.547797 0)
(0.383125 0.580334 0)
(0.345126 0.625375 0)
(0.296226 0.67406 0)
(0.249992 0.74326 0)
(0.167598 0.788315 0)
(0.111113 0.821824 0)
(3 6.82876e-16 0)
(3 -2.73966e-14 0)
(3 -3.32844e-14 0)
(3 -1.80265e-14 0)
(3 2.5935e-14 0)
(3 2.52999e-14 0)
(3 4.21348e-14 0)
(3 7.40788e-15 0)
(3 2.22295e-15 0)
(3 -2.12335e-14 0)
(3 -2.51816e-14 0)
(3 -3.05246e-14 0)
(3 -1.95091e-15 0)
(3 5.39486e-14 0)
(3 5.12972e-14 0)
(3 6.30831e-15 0)
(3 2.66017e-14 0)
(3 3.17097e-14 0)
(3 3.97035e-14 0)
(3 4.65178e-14 0)
(3 4.41593e-14 0)
(3 8.51988e-14 0)
(3 8.09306e-14 0)
(3 8.73642e-14 0)
(3 -6.53646e-09 0)
(2.39144 0.36914 0)
(0.921791 0.437351 0)
(0.798533 0.37372 0)
(0.764903 0.370408 0)
(0.735099 0.376663 0)
(0.710722 0.38558 0)
(0.690315 0.396136 0)
(0.67267 0.408314 0)
(0.6569 0.42274 0)
(0.641809 0.440255 0)
(0.628018 0.461785 0)
(0.611825 0.484295 0)
(0.590448 0.504678 0)
(0.562549 0.521459 0)
(0.532029 0.541763 0)
(0.497788 0.56214 0)
(0.465272 0.592574 0)
(0.430157 0.628674 0)
(0.400044 0.679464 0)
(0.357139 0.736475 0)
(0.316034 0.834661 0)
(0.207249 0.944689 0)
(0.161289 1.03887 0)
(3 -2.05506e-14 0)
(3 -2.64029e-14 0)
(3 -3.30667e-14 0)
(3 -7.82386e-15 0)
(3 -3.47298e-14 0)
(3 -5.87346e-14 0)
(3 -2.99474e-14 0)
(3 -1.59663e-14 0)
(3 -4.6931e-14 0)
(3 -5.54312e-14 0)
(3 -7.6565e-14 0)
(3 -8.85547e-14 0)
(3 -4.07415e-14 0)
(3 -1.97323e-14 0)
(3 2.47229e-14 0)
(3 -6.71918e-14 0)
(3 -1.18463e-13 0)
(3 -8.07382e-14 0)
(3 -6.28553e-14 0)
(3 -9.56877e-16 0)
(3 -3.9728e-15 0)
(3 -1.30503e-14 0)
(3 1.0982e-14 0)
(3 -2.24769e-14 0)
(3 -6.49728e-10 0)
(2.96568 0.146668 0)
(1.10603 0.44909 0)
(0.869988 0.39955 0)
(0.837036 0.398969 0)
(0.789663 0.404726 0)
(0.748904 0.41071 0)
(0.716883 0.417788 0)
(0.691389 0.427896 0)
(0.670894 0.441266 0)
(0.653609 0.457874 0)
(0.639757 0.479325 0)
(0.627772 0.504466 0)
(0.61301 0.53035 0)
(0.59364 0.553806 0)
(0.570703 0.579389 0)
(0.542237 0.603534 0)
(0.515249 0.636729 0)
(0.484702 0.674286 0)
(0.46305 0.731081 0)
(0.427516 0.809343 0)
(0.411072 0.944008 0)
(0.395847 1.09453 0)
(0.541104 1.34331 0)
(3 -1.64734e-14 0)
(3 -4.15433e-15 0)
(3 8.93248e-16 0)
(3 -1.00185e-14 0)
(3 -5.47939e-14 0)
(3 -7.75607e-14 0)
(3 -5.95265e-14 0)
(3 -1.51158e-14 0)
(3 1.27587e-14 0)
(3 1.64669e-14 0)
(3 -1.2603e-14 0)
(3 1.23381e-14 0)
(3 3.57353e-14 0)
(3 -3.20048e-14 0)
(3 -5.91099e-14 0)
(3 -8.42689e-14 0)
(3 -9.7653e-14 0)
(3 -7.21492e-14 0)
(3 -5.10717e-14 0)
(3 -2.76658e-14 0)
(3 -4.6977e-14 0)
(3 -5.90813e-14 0)
(3 -8.17568e-14 0)
(3 -7.32846e-14 0)
(3 -2.50985e-11 0)
(3.03616 0.00703558 0)
(1.27446 0.415993 0)
(0.878422 0.433162 0)
(0.856056 0.451315 0)
(0.822609 0.450089 0)
(0.787728 0.447621 0)
(0.753111 0.449295 0)
(0.721844 0.454097 0)
(0.695658 0.463525 0)
(0.674168 0.477046 0)
(0.657529 0.496433 0)
(0.64549 0.521518 0)
(0.635481 0.550357 0)
(0.622698 0.579216 0)
(0.608613 0.61051 0)
(0.588115 0.640061 0)
(0.569594 0.677138 0)
(0.546364 0.717021 0)
(0.534274 0.778258 0)
(0.52448 0.868559 0)
(0.538679 1.00764 0)
(0.62578 1.1586 0)
(0.938173 1.35291 0)
(3 1.04219e-14 0)
(3 3.78608e-14 0)
(3 3.11824e-14 0)
(3 -2.45766e-14 0)
(3 -4.21748e-14 0)
(3 -1.1298e-14 0)
(3 6.78608e-15 0)
(3 3.80026e-14 0)
(3 7.52296e-14 0)
(3 9.53707e-14 0)
(3 1.01408e-13 0)
(3 7.69487e-14 0)
(3 4.16686e-14 0)
(3 5.17369e-14 0)
(3 1.42364e-14 0)
(3 -8.28652e-15 0)
(3 1.85484e-15 0)
(3 1.46078e-15 0)
(3 9.78086e-16 0)
(3 1.49738e-14 0)
(3 1.64027e-14 0)
(3 -1.44544e-14 0)
(3 -5.0619e-14 0)
(3 3.35978e-16 0)
(3 -3.94689e-13 0)
(3.0009 -9.95309e-06 0)
(1.51445 0.422598 0)
(0.859105 0.45478 0)
(0.839392 0.467631 0)
(0.820123 0.473091 0)
(0.801242 0.476545 0)
(0.778317 0.48074 0)
(0.751682 0.484759 0)
(0.725528 0.491592 0)
(0.701251 0.501076 0)
(0.681761 0.516675 0)
(0.667123 0.539113 0)
(0.659078 0.568039 0)
(0.650248 0.599888 0)
(0.644391 0.635532 0)
(0.632956 0.670853 0)
(0.624968 0.712174 0)
(0.612833 0.755524 0)
(0.61194 0.817096 0)
(0.626212 0.906091 0)
(0.67393 1.02711 0)
(0.824858 1.1647 0)
(1.14409 1.28507 0)
(3 1.62649e-14 0)
(3 3.46778e-14 0)
(3 3.81177e-14 0)
(3 1.40249e-14 0)
(3 2.1877e-14 0)
(3 1.93976e-14 0)
(3 4.15565e-14 0)
(3 9.32618e-14 0)
(3 7.74412e-14 0)
(3 5.86703e-14 0)
(3 5.32969e-14 0)
(3 7.34356e-14 0)
(3 9.68013e-14 0)
(3 1.24154e-13 0)
(3 1.35309e-13 0)
(3 1.16066e-13 0)
(3 9.12092e-14 0)
(3 1.72461e-14 0)
(3 8.92854e-15 0)
(3 4.07733e-14 0)
(3 5.60005e-14 0)
(3 2.73113e-14 0)
(3 -1.88702e-14 0)
(3 -4.2992e-14 0)
(3 -3.72969e-14 0)
(3 -5.0875e-07 0)
(1.97191 0.453346 0)
(0.895013 0.4894 0)
(0.827072 0.474671 0)
(0.821835 0.484891 0)
(0.809732 0.494069 0)
(0.795216 0.503104 0)
(0.77611 0.510374 0)
(0.755499 0.518681 0)
(0.733002 0.526687 0)
(0.712861 0.539192 0)
(0.695412 0.557466 0)
(0.686766 0.584067 0)
(0.679817 0.61592 0)
(0.67944 0.653528 0)
(0.676401 0.693499 0)
(0.679193 0.738292 0)
(0.680386 0.78514 0)
(0.692529 0.843903 0)
(0.72267 0.925097 0)
(0.799091 1.02922 0)
(0.97 1.13772 0)
(1.24879 1.20932 0)
(3 -9.3133e-15 0)
(3 -1.4889e-14 0)
(3 -1.70123e-16 0)
(3 8.01251e-15 0)
(3 2.70538e-14 0)
(3 1.15856e-14 0)
(3 -1.01956e-14 0)
(3 -1.75942e-14 0)
(3 -1.12759e-14 0)
(3 -3.40963e-15 0)
(3 -7.16967e-15 0)
(3 2.97205e-14 0)
(3 5.50286e-14 0)
(3 2.07234e-14 0)
(3 4.43393e-14 0)
(3 1.2652e-13 0)
(3 1.23417e-13 0)
(3 9.87911e-14 0)
(3 4.94946e-14 0)
(3 3.94199e-14 0)
(3 3.12078e-14 0)
(3 5.52964e-16 0)
(3 -2.0661e-14 0)
(3 -3.57567e-14 0)
(3 -1.3545e-14 0)
(3 -1.74197e-07 0)
(2.65996 0.339745 0)
(1.02739 0.546639 0)
(0.874623 0.483879 0)
(0.852096 0.494073 0)
(0.832181 0.508199 0)
(0.816047 0.520913 0)
(0.799077 0.531729 0)
(0.783127 0.543266 0)
(0.764575 0.553023 0)
(0.746515 0.565234 0)
(0.728878 0.579617 0)
(0.718387 0.602679 0)
(0.712142 0.632041 0)
(0.714497 0.668457 0)
(0.718002 0.709984 0)
(0.729765 0.756774 0)
(0.74408 0.806592 0)
(0.769581 0.862414 0)
(0.813026 0.932836 0)
(0.905401 1.01865 0)
(1.06915 1.09659 0)
(1.30415 1.14253 0)
(3 -1.59154e-15 0)
(3 1.629e-14 0)
(3 4.11142e-14 0)
(3 3.03904e-14 0)
(3 9.92742e-15 0)
(3 3.02721e-14 0)
(3 1.29952e-14 0)
(3 -3.22949e-14 0)
(3 -3.51446e-14 0)
(3 -4.67829e-14 0)
(3 -9.19698e-14 0)
(3 -1.08124e-13 0)
(3 -1.18904e-13 0)
(3 -9.63398e-14 0)
(3 -5.18329e-14 0)
(3 5.16372e-14 0)
(3 4.29841e-14 0)
(3 8.40655e-14 0)
(3 5.49135e-14 0)
(3 3.72456e-15 0)
(3 2.93783e-14 0)
(3 1.70085e-14 0)
(3 -1.42408e-14 0)
(3 8.16583e-15 0)
(3 1.65736e-14 0)
(3 -2.35392e-08 0)
(3.07957 0.0405007 0)
(1.28768 0.525929 0)
(0.93108 0.516934 0)
(0.896811 0.52605 0)
(0.868111 0.529964 0)
(0.845454 0.538505 0)
(0.827057 0.548932 0)
(0.812625 0.561808 0)
(0.797224 0.573935 0)
(0.782394 0.588042 0)
(0.766661 0.601253 0)
(0.755273 0.621229 0)
(0.748782 0.647128 0)
(0.751506 0.680457 0)
(0.758927 0.720228 0)
(0.776341 0.766073 0)
(0.800794 0.81656 0)
(0.837357 0.870487 0)
(0.892645 0.931016 0)
(0.990405 0.998737 0)
(1.13477 1.05231 0)
(1.33096 1.0791 0)
(3 2.28043e-15 0)
(3 4.15645e-15 0)
(3 2.14364e-14 0)
(3 3.1326e-14 0)
(3 4.05509e-14 0)
(3 5.15253e-14 0)
(3 8.04965e-14 0)
(3 2.7505e-15 0)
(3 4.18005e-15 0)
(3 -4.02299e-14 0)
(3 -6.21716e-14 0)
(3 -4.85497e-14 0)
(3 -3.13861e-14 0)
(3 -1.48357e-14 0)
(3 -6.17942e-14 0)
(3 -1.06962e-13 0)
(3 -6.74913e-14 0)
(3 -2.49339e-14 0)
(3 -2.00716e-14 0)
(3 -1.94965e-14 0)
(3 3.18194e-14 0)
(3 6.16406e-14 0)
(3 7.70661e-14 0)
(3 1.51603e-14 0)
(3 -1.72365e-14 0)
(3 -1.40714e-09 0)
(3.00758 7.68355e-05 0)
(1.53116 0.508566 0)
(0.918836 0.573357 0)
(0.891859 0.558999 0)
(0.875833 0.559816 0)
(0.860114 0.564988 0)
(0.84557 0.572347 0)
(0.833797 0.583853 0)
(0.822521 0.596355 0)
(0.812756 0.611516 0)
(0.801596 0.625163 0)
(0.792897 0.643055 0)
(0.787522 0.665166 0)
(0.790329 0.694347 0)
(0.800135 0.730124 0)
(0.820605 0.771996 0)
(0.851075 0.819526 0)
(0.895483 0.870778 0)
(0.959647 0.925528 0)
(1.05856 0.978833 0)
(1.18396 1.01569 0)
(1.34831 1.03331 0)
(3 1.11604e-15 0)
(3 -2.35307e-14 0)
(3 -1.50562e-14 0)
(3 1.73431e-14 0)
(3 8.35153e-14 0)
(3 9.35929e-14 0)
(3 6.90835e-14 0)
(3 5.76211e-14 0)
(3 5.58349e-14 0)
(3 7.34266e-14 0)
(3 1.12874e-13 0)
(3 1.14189e-13 0)
(3 1.05052e-13 0)
(3 4.24112e-14 0)
(3 -3.81588e-14 0)
(3 -1.1653e-13 0)
(3 -8.49523e-14 0)
(3 -8.12279e-14 0)
(3 -7.22721e-14 0)
(3 -2.55662e-14 0)
(3 -3.3457e-14 0)
(3 -5.1687e-15 0)
(3 7.02379e-14 0)
(3 5.30716e-14 0)
(3 1.81524e-14 0)
(3 -3.28364e-11 0)
(3.00005 -1.81179e-06 0)
(2.12793 0.506403 0)
(0.972668 0.602775 0)
(0.909528 0.565125 0)
(0.900973 0.571077 0)
(0.888075 0.580253 0)
(0.873859 0.588437 0)
(0.861659 0.599925 0)
(0.851193 0.612527 0)
(0.844053 0.628438 0)
(0.836656 0.643589 0)
(0.831452 0.661394 0)
(0.828353 0.681295 0)
(0.831441 0.706729 0)
(0.842221 0.738017 0)
(0.863575 0.774715 0)
(0.89601 0.816755 0)
(0.943429 0.862372 0)
(1.01103 0.911954 0)
(1.10596 0.954331 0)
(1.21926 0.982653 0)
(1.35924 0.995746 0)
(3 1.48127e-15 0)
(3 3.36449e-15 0)
(3 2.37172e-14 0)
(3 6.89965e-14 0)
(3 9.78909e-14 0)
(3 9.66341e-14 0)
(3 4.56312e-14 0)
(3 1.80159e-14 0)
(3 -3.84221e-15 0)
(3 3.88298e-14 0)
(3 8.09678e-14 0)
(3 7.47643e-14 0)
(3 -1.90239e-14 0)
(3 -1.20483e-13 0)
(3 -1.41982e-13 0)
(3 -1.11093e-13 0)
(3 -8.71679e-14 0)
(3 3.66389e-14 0)
(3 6.26162e-14 0)
(3 7.31529e-14 0)
(3 -4.82983e-15 0)
(3 -5.46793e-14 0)
(3 -5.45571e-14 0)
(3 -6.88293e-14 0)
(3 -4.37497e-14 0)
(3 -1.78945e-13 0)
(3 -2.34333e-06 0)
(2.93626 0.206306 0)
(1.18069 0.604308 0)
(0.966375 0.57688 0)
(0.946515 0.583764 0)
(0.927699 0.59749 0)
(0.90994 0.606439 0)
(0.89543 0.617631 0)
(0.882807 0.629336 0)
(0.875398 0.644967 0)
(0.869928 0.660944 0)
(0.86771 0.679095 0)
(0.867921 0.698404 0)
(0.872645 0.721015 0)
(0.884413 0.748205 0)
(0.906107 0.779875 0)
(0.939153 0.815872 0)
(0.987121 0.854208 0)
(1.05388 0.896865 0)
(1.14254 0.931415 0)
(1.24793 0.955736 0)
(1.3691 0.96773 0)
(3 -8.30587e-15 0)
(3 1.02029e-14 0)
(3 1.85531e-14 0)
(3 2.30369e-14 0)
(3 3.39702e-15 0)
(3 -4.59124e-15 0)
(3 -3.91109e-14 0)
(3 -8.38334e-14 0)
(3 -1.20798e-13 0)
(3 -1.26243e-13 0)
(3 -1.04259e-13 0)
(3 -5.03674e-14 0)
(3 -5.67263e-14 0)
(3 -6.32915e-14 0)
(3 -5.40327e-14 0)
(3 2.28325e-14 0)
(3 6.28406e-14 0)
(3 2.56116e-14 0)
(3 -9.3185e-15 0)
(3 -4.05078e-14 0)
(3 -2.97866e-14 0)
(3 -5.66929e-14 0)
(3 -5.63058e-14 0)
(3 -6.5481e-14 0)
(3 -6.80458e-14 0)
(3 5.7686e-14 0)
(3 -4.97498e-07 0)
(3.04732 0.00833496 0)
(1.41473 0.568776 0)
(0.986752 0.628915 0)
(0.956136 0.620561 0)
(0.936744 0.62676 0)
(0.925467 0.632032 0)
(0.916713 0.641274 0)
(0.908244 0.650033 0)
(0.903094 0.662814 0)
(0.900495 0.677187 0)
(0.901257 0.694029 0)
(0.905181 0.712572 0)
(0.912812 0.733021 0)
(0.926046 0.756294 0)
(0.947596 0.78313 0)
(0.980102 0.813077 0)
(1.02647 0.844775 0)
(1.08877 0.878462 0)
(1.16737 0.906188 0)
(1.26342 0.927872 0)
(1.36908 0.938486 0)
(3 3.47317e-15 0)
(3 -7.00149e-15 0)
(3 -1.88755e-14 0)
(3 -3.57095e-14 0)
(3 -7.00823e-14 0)
(3 -8.84085e-14 0)
(3 -7.23854e-14 0)
(3 -7.32369e-14 0)
(3 -8.62982e-14 0)
(3 -1.2967e-13 0)
(3 -1.40463e-13 0)
(3 -1.26103e-13 0)
(3 -1.07505e-13 0)
(3 1.15436e-14 0)
(3 -2.51647e-15 0)
(3 -3.10864e-14 0)
(3 3.15271e-15 0)
(3 -1.9134e-14 0)
(3 -8.89684e-14 0)
(3 -9.74235e-14 0)
(3 -2.26064e-14 0)
(3 4.42793e-14 0)
(3 4.38583e-14 0)
(3 7.03027e-14 0)
(3 3.4297e-15 0)
(3 2.10478e-14 0)
(3 -4.45239e-08 0)
(3.00118 -7.69024e-06 0)
(1.91628 0.563247 0)
(1.00117 0.660543 0)
(0.963075 0.635017 0)
(0.957369 0.639583 0)
(0.950031 0.645207 0)
(0.942995 0.654841 0)
(0.936566 0.66422 0)
(0.932503 0.676522 0)
(0.931373 0.690398 0)
(0.933727 0.706599 0)
(0.939875 0.72468 0)
(0.950377 0.744492 0)
(0.965425 0.765942 0)
(0.987693 0.789354 0)
(1.0202 0.814626 0)
(1.06487 0.841133 0)
(1.12231 0.866269 0)
(1.19237 0.888253 0)
(1.27877 0.906519 0)
(1.37235 0.914945 0)
(3 5.59149e-15 0)
(3 -4.30223e-15 0)
(3 -2.02837e-14 0)
(3 -6.08546e-14 0)
(3 -1.22342e-13 0)
(3 -1.47321e-13 0)
(3 -9.51614e-14 0)
(3 -3.70617e-14 0)
(3 -1.83247e-14 0)
(3 1.7367e-15 0)
(3 -5.75879e-14 0)
(3 -9.4972e-14 0)
(3 -5.64933e-14 0)
(3 -4.19027e-14 0)
(3 -3.73008e-14 0)
(3 -6.20379e-14 0)
(3 -7.24097e-14 0)
(3 -6.5003e-14 0)
(3 -6.18533e-14 0)
(3 -8.78549e-15 0)
(3 2.07118e-14 0)
(3 5.31804e-14 0)
(3 3.46194e-14 0)
(3 1.52259e-14 0)
(3 -4.21858e-14 0)
(3 -2.65034e-14 0)
(3 -4.7129e-10 0)
(3.00002 -6.46255e-06 0)
(2.7993 0.303379 0)
(1.164 0.67457 0)
(1.00285 0.630503 0)
(0.99373 0.645692 0)
(0.984047 0.657989 0)
(0.974353 0.66897 0)
(0.966994 0.678525 0)
(0.962829 0.690317 0)
(0.962167 0.703222 0)
(0.965445 0.718063 0)
(0.972383 0.734553 0)
(0.985136 0.752832 0)
(1.00152 0.772069 0)
(1.02534 0.792406 0)
(1.05761 0.813388 0)
(1.09963 0.834943 0)
(1.15132 0.853887 0)
(1.21363 0.870633 0)
(1.29027 0.88492 0)
(1.37257 0.890505 0)
(3 -8.95385e-16 0)
(3 1.56209e-14 0)
(3 -8.00951e-15 0)
(3 -2.20925e-14 0)
(3 -5.84449e-14 0)
(3 -5.66845e-14 0)
(3 -1.73504e-14 0)
(3 -8.87526e-15 0)
(3 -2.16967e-14 0)
(3 4.63185e-14 0)
(3 3.26516e-14 0)
(3 -6.01231e-15 0)
(3 -2.95422e-14 0)
(3 -2.67396e-14 0)
(3 1.93078e-14 0)
(3 1.38707e-14 0)
(3 -5.43542e-14 0)
(3 -1.02543e-13 0)
(3 -2.34401e-14 0)
(3 -5.17137e-14 0)
(3 -2.8181e-14 0)
(3 -1.94853e-14 0)
(3 9.83038e-15 0)
(3 2.78626e-14 0)
(3 -2.32169e-14 0)
(3 -6.87151e-14 0)
(3 -9.66389e-13 0)
(3 -1.64143e-06 0)
(3.06565 0.0187633 0)
(1.4554 0.640358 0)
(1.03958 0.682023 0)
(1.0064 0.675504 0)
(0.996388 0.682236 0)
(0.990051 0.690387 0)
(0.98684 0.697365 0)
(0.986611 0.707074 0)
(0.988832 0.717699 0)
(0.994438 0.730915 0)
(1.00261 0.744728 0)
(1.0164 0.761634 0)
(1.03477 0.779396 0)
(1.05996 0.797637 0)
(1.09232 0.816225 0)
(1.13239 0.834123 0)
(1.1796 0.849407 0)
(1.23623 0.862673 0)
(1.30561 0.872923 0)
(1.37825 0.875685 0)
(3 -7.31633e-15 0)
(3 -1.48858e-14 0)
(3 -6.60236e-15 0)
(3 1.16327e-14 0)
(3 3.10215e-14 0)
(3 2.88277e-14 0)
(3 1.4171e-14 0)
(3 6.24974e-15 0)
(3 -1.81845e-14 0)
(3 -2.64849e-14 0)
(3 -9.82363e-15 0)
(3 -2.94157e-14 0)
(3 8.28039e-15 0)
(3 5.07879e-14 0)
(3 3.86954e-14 0)
(3 1.97639e-14 0)
(3 -9.58592e-15 0)
(3 -8.12389e-15 0)
(3 3.81845e-14 0)
(3 5.63097e-14 0)
(3 4.19643e-14 0)
(3 5.76885e-14 0)
(3 1.01185e-13 0)
(3 6.76455e-14 0)
(3 4.60531e-14 0)
(3 1.63629e-14 0)
(3 -2.76843e-15 0)
(3 -1.59788e-07 0)
(3.00265 4.65229e-05 0)
(2.04139 0.605452 0)
(1.07746 0.72819 0)
(1.03187 0.694019 0)
(1.02513 0.691273 0)
(1.01806 0.699117 0)
(1.01365 0.706189 0)
(1.01387 0.716326 0)
(1.01686 0.726911 0)
(1.02334 0.739809 0)
(1.03268 0.75234 0)
(1.04612 0.766403 0)
(1.06522 0.782258 0)
(1.09083 0.798524 0)
(1.12245 0.814416 0)
(1.1608 0.829146 0)
(1.20449 0.841553 0)
(1.25689 0.852002 0)
(1.31945 0.859111 0)
(1.38382 0.860111 0)
(3 2.07751e-15 0)
(3 1.26748e-14 0)
(3 4.8673e-15 0)
(3 -1.24827e-14 0)
(3 -2.68456e-15 0)
(3 -1.32688e-14 0)
(3 -5.51635e-14 0)
(3 -3.07646e-14 0)
(3 -2.28284e-14 0)
(3 -4.23761e-14 0)
(3 -3.88237e-14 0)
(3 -1.922e-14 0)
(3 -1.00803e-15 0)
(3 -1.97676e-14 0)
(3 1.36888e-14 0)
(3 4.79233e-14 0)
(3 2.03093e-14 0)
(3 2.01407e-14 0)
(3 9.8193e-14 0)
(3 1.26643e-13 0)
(3 1.10935e-13 0)
(3 3.56523e-14 0)
(3 -4.31345e-15 0)
(3 4.30815e-14 0)
(3 8.89442e-14 0)
(3 6.57167e-14 0)
(3 1.20076e-13 0)
(3 -5.23019e-09 0)