/*--------------------------------*- C++ -*----------------------------------*\
  =========                 |
  \\      /  F ield         | OpenFOAM: The Open Source CFD Toolbox
   \\    /   O peration     | Website:  https://openfoam.org
    \\  /    A nd           | Version:  10
     \\/     M anipulation  |
\*---------------------------------------------------------------------------*/
FoamFile
{
    format      ascii;
    class       volVectorField;
    location    "2";
    object      U;
}
// * * * * * * * * * * * * * * * * * * * * * * * * * * * * * * * * * * * * * //

dimensions      [0 1 -1 0 0 0 0];

internalField   nonuniform List<vector> 
8800
(
(0.972721 -0.0883204 0)
(1.01148 -0.0593983 0)
(1.00163 -0.0322377 0)
(0.998407 -0.0176386 0)
(0.997197 -0.00997877 0)
(0.996678 -0.00600725 0)
(0.996447 -0.00378997 0)
(0.996371 -0.00236833 0)
(0.996386 -0.00125734 0)
(0.996452 -0.000227114 0)
(0.996396 0.000819257 0)
(0.996353 0.00185488 0)
(0.996386 0.0030625 0)
(0.996536 0.00479662 0)
(0.996882 0.00771721 0)
(0.997663 0.0132196 0)
(0.999576 0.0238523 0)
(1.00507 0.0431458 0)
(1.01883 0.0765055 0)
(0.765861 0.0484438 0)
(0.434864 -0.0100087 0)
(1.05105 -0.0389013 0)
(1.06969 -0.0390173 0)
(1.04405 -0.0366753 0)
(1.02631 -0.0310701 0)
(1.01564 -0.0238498 0)
(1.00975 -0.016977 0)
(1.00665 -0.0113122 0)
(1.00508 -0.00668563 0)
(1.00442 -0.00264275 0)
(1.0043 0.00123128 0)
(1.00465 0.00513721 0)
(1.00572 0.00934338 0)
(1.00794 0.014355 0)
(1.01224 0.0205821 0)
(1.02027 0.0277446 0)
(1.03425 0.0343639 0)
(1.05616 0.0384561 0)
(1.0764 0.0385092 0)
(0.899001 0.0340426 0)
(0.356826 0.000232064 0)
(1.04825 -0.0136031 0)
(1.04689 -0.0205353 0)
(1.03587 -0.0230214 0)
(1.02604 -0.0220751 0)
(1.01838 -0.0191766 0)
(1.01298 -0.0150386 0)
(1.00946 -0.0104226 0)
(1.00742 -0.00572041 0)
(1.00652 -0.00065299 0)
(1.00676 0.0044102 0)
(1.00814 0.00916759 0)
(1.01082 0.0137032 0)
(1.01517 0.0180053 0)
(1.02161 0.0214917 0)
(1.03036 0.0233479 0)
(1.04109 0.0227526 0)
(1.05125 0.0178808 0)
(1.00508 0.00885731 0)
(0.356531 -0.000219663 0)
(0.358216 4.86572e-05 0)
(1.02775 -0.00306615 0)
(1.03353 -0.00685709 0)
(1.03019 -0.0100377 0)
(1.02544 -0.0119758 0)
(1.02021 -0.0123602 0)
(1.01552 -0.0110165 0)
(1.0119 -0.00832604 0)
(1.00946 -0.00474618 0)
(1.00843 -0.000382519 0)
(1.00868 0.0040707 0)
(1.01036 0.00801116 0)
(1.01311 0.0110254 0)
(1.01724 0.0128851 0)
(1.02228 0.0131922 0)
(1.02728 0.0117216 0)
(1.03125 0.00898932 0)
(1.03313 0.00526288 0)
(0.985749 0.00146282 0)
(0.357765 -3.75442e-05 0)
(0.356539 -5.69439e-05 0)
(1.02038 -0.00167777 0)
(1.02681 -0.00337691 0)
(1.02563 -0.0050309 0)
(1.02365 -0.00631912 0)
(1.02122 -0.00685679 0)
(1.01856 -0.00648149 0)
(1.01602 -0.00511352 0)
(1.01398 -0.00280385 0)
(1.01305 0.00018462 0)
(1.01318 0.00324544 0)
(1.01459 0.00567147 0)
(1.01651 0.00728584 0)
(1.01904 0.00788589 0)
(1.02155 0.00751348 0)
(1.0237 0.00632942 0)
(1.02524 0.00463935 0)
(1.02547 0.00277117 0)
(0.978955 0.00105013 0)
(0.355782 6.30814e-05 0)
(0.355517 -2.72885e-05 0)
(1.01694 -0.000857215 0)
(1.02363 -0.0016534 0)
(1.02306 -0.00248702 0)
(1.02204 -0.00321947 0)
(1.02065 -0.00364658 0)
(1.01895 -0.00358346 0)
(1.01716 -0.00286523 0)
(1.01558 -0.00142355 0)
(1.01463 0.000597002 0)
(1.01466 0.00268402 0)
(1.01564 0.00416501 0)
(1.01699 0.00490875 0)
(1.01856 0.00496781 0)
(1.01998 0.00444916 0)
(1.02109 0.00356358 0)
(1.02183 0.00252278 0)
(1.02156 0.00148755 0)
(0.975284 0.000572684 0)
(0.354646 3.49346e-05 0)
(0.354959 -1.07475e-05 0)
(1.01526 -0.000398174 0)
(1.02208 -0.000786584 0)
(1.0218 -0.00119376 0)
(1.02124 -0.00156172 0)
(1.02042 -0.00178736 0)
(1.01935 -0.00174496 0)
(1.01811 -0.00129768 0)
(1.01692 -0.000364782 0)
(1.01606 0.00099958 0)
(1.01592 0.00236564 0)
(1.01646 0.00323359 0)
(1.01727 0.00353073 0)
(1.01815 0.00337474 0)
(1.01891 0.00289842 0)
(1.01947 0.00225762 0)
(1.01982 0.00157353 0)
(1.01934 0.000927623 0)
(0.973184 0.000366754 0)
(0.353877 2.55299e-05 0)
(0.354751 -1.78719e-06 0)
(1.0145 -0.000136887 0)
(1.02137 -0.000288597 0)
(1.02121 -0.000445769 0)
(1.02087 -0.000573576 0)
(1.02034 -0.000620301 0)
(1.01961 -0.000509535 0)
(1.01872 -0.00015502 0)
(1.01777 0.000504346 0)
(1.01698 0.00142795 0)
(1.01665 0.00229002 0)
(1.01682 0.00274903 0)
(1.01721 0.00279074 0)
(1.01765 0.0025377 0)
(1.01802 0.00210835 0)
(1.01829 0.00160711 0)
(1.01846 0.00111199 0)
(1.01788 0.000655205 0)
(0.971794 0.000265902 0)
(0.353337 2.01677e-05 0)
(0.354746 5.62055e-06 0)
(1.01431 2.28074e-05 0)
(1.02118 2.47224e-05 0)
(1.02109 4.02295e-05 0)
(1.02085 8.45106e-05 0)
(1.02047 0.000188382 0)
(1.01992 0.000392236 0)
(1.01921 0.000743413 0)
(1.01839 0.00126723 0)
(1.01758 0.00191718 0)
(1.01707 0.00243772 0)
(1.01692 0.00263365 0)
(1.01699 0.00248975 0)
(1.01713 0.00216798 0)
(1.01726 0.00175396 0)
(1.01737 0.00131921 0)
(1.01743 0.000906265 0)
(1.01679 0.000536943 0)
(0.970742 0.000221286 0)
(0.352904 1.82432e-05 0)
(0.35489 1.10865e-05 0)
(1.01448 0.000147943 0)
(1.02137 0.000264043 0)
(1.02131 0.00040772 0)
(1.02111 0.000589388 0)
(1.02079 0.000824725 0)
(1.02032 0.00113301 0)
(1.01967 0.00153006 0)
(1.01887 0.00200999 0)
(1.01798 0.00250266 0)
(1.01726 0.00279193 0)
(1.01685 0.00275066 0)
(1.01664 0.00250282 0)
(1.01656 0.00211239 0)
(1.01653 0.00167474 0)
(1.01652 0.00124524 0)
(1.01652 0.000851398 0)
(1.01584 0.000508423 0)
(0.969819 0.000212965 0)
(0.352506 1.85694e-05 0)
(0.355157 1.70936e-05 0)
(1.01497 0.000258818 0)
(1.02185 0.000474822 0)
(1.0218 0.000731761 0)
(1.0216 0.00103974 0)
(1.0213 0.00140454 0)
(1.02083 0.00183062 0)
(1.02017 0.00231141 0)
(1.0193 0.0028096 0)
(1.01826 0.00322587 0)
(1.01729 0.00336045 0)
(1.01661 0.00317163 0)
(1.01618 0.00277808 0)
(1.01592 0.00229429 0)
(1.01576 0.00179513 0)
(1.01567 0.0013253 0)
(1.01561 0.000904425 0)
(1.0149 0.000540932 0)
(0.968893 0.000229367 0)
(0.352091 2.06659e-05 0)
(0.355553 2.3264e-05 0)
(1.01574 0.000371178 0)
(1.02262 0.000687593 0)
(1.02255 0.00106275 0)
(1.02235 0.00150099 0)
(1.02201 0.00200672 0)
(1.0215 0.00257211 0)
(1.02075 0.00317062 0)
(1.01974 0.00373619 0)
(1.01846 0.0041338 0)
(1.01719 0.00415663 0)
(1.01623 0.00381835 0)
(1.01557 0.0032822 0)
(1.01514 0.00267661 0)
(1.01487 0.00207899 0)
(1.0147 0.00152826 0)
(1.0146 0.00104359 0)
(1.01387 0.000625219 0)
(0.967861 0.000268303 0)
(0.351616 2.48184e-05 0)
(0.35609 3.08834e-05 0)
(1.01682 0.000499882 0)
(1.02369 0.000929513 0)
(1.0236 0.00143454 0)
(1.02336 0.00202416 0)
(1.02296 0.00269456 0)
(1.02235 0.00343043 0)
(1.02146 0.00418486 0)
(1.02023 0.0048629 0)
(1.01863 0.00528455 0)
(1.01699 0.00521766 0)
(1.0157 0.00472473 0)
(1.01479 0.00402197 0)
(1.01419 0.00325837 0)
(1.01379 0.00251982 0)
(1.01355 0.00184797 0)
(1.0134 0.00126018 0)
(1.01264 0.000755201 0)
(0.966638 0.000324734 0)
(0.351047 3.0407e-05 0)
(0.356799 4.02834e-05 0)
(1.01826 0.000656132 0)
(1.02511 0.00122002 0)
(1.02499 0.00188482 0)
(1.02469 0.00265491 0)
(1.0242 0.00352753 0)
(1.02345 0.0044747 0)
(1.02235 0.00543218 0)
(1.0208 0.00626785 0)
(1.01878 0.00674931 0)
(1.01667 0.00660019 0)
(1.01499 0.00593126 0)
(1.0138 0.0050217 0)
(1.01299 0.0040537 0)
(1.01246 0.00312786 0)
(1.01213 0.00229216 0)
(1.01193 0.00156157 0)
(1.01115 0.000937503 0)
(0.96514 0.000403264 0)
(0.350345 3.80144e-05 0)
(0.357722 5.23288e-05 0)
(1.02014 0.000851662 0)
(1.02696 0.00158424 0)
(1.0268 0.00244481 0)
(1.02642 0.00344217 0)
(1.02581 0.00456725 0)
(1.02486 0.00578347 0)
(1.02346 0.00700075 0)
(1.0215 0.00804452 0)
(1.01892 0.00861733 0)
(1.01623 0.00838112 0)
(1.01407 0.00749933 0)
(1.01252 0.00632953 0)
(1.01147 0.00509874 0)
(1.01078 0.00392886 0)
(1.01036 0.00287712 0)
(1.0101 0.00195974 0)
(1.00928 0.00117756 0)
(0.963267 0.00050708 0)
(0.349463 4.75709e-05 0)
(0.358918 6.78753e-05 0)
(1.02257 0.00110072 0)
(1.02936 0.0020469 0)
(1.02913 0.00315763 0)
(1.02865 0.0044429 0)
(1.02787 0.00588982 0)
(1.02665 0.00744674 0)
(1.02487 0.00899531 0)
(1.02237 0.010308 0)
(1.01908 0.0110018 0)
(1.01563 0.0106609 0)
(1.01287 0.00951183 0)
(1.01089 0.00801237 0)
(1.00955 0.00644635 0)
(1.00867 0.00496429 0)
(1.00812 0.00363269 0)
(1.00779 0.00247494 0)
(1.00693 0.00148573 0)
(0.960906 0.000640568 0)
(0.348354 6.01977e-05 0)
(0.360468 8.81884e-05 0)
(1.02571 0.00142215 0)
(1.03245 0.00264291 0)
(1.03214 0.00407543 0)
(1.03152 0.00572973 0)
(1.03051 0.00758769 0)
(1.02895 0.00957997 0)
(1.02665 0.0115498 0)
(1.02344 0.0132018 0)
(1.01924 0.0140457 0)
(1.01485 0.0135689 0)
(1.01133 0.0120794 0)
(1.00882 0.01016 0)
(1.00711 0.00816529 0)
(1.00599 0.00628297 0)
(1.00529 0.0045955 0)
(1.00487 0.0031307 0)
(1.00396 0.00187821 0)
(0.957922 0.000809576 0)
(0.346953 7.60142e-05 0)
(0.362481 0.000115223 0)
(1.02976 0.00184186 0)
(1.03644 0.00341848 0)
(1.03602 0.00526588 0)
(1.03521 0.00739712 0)
(1.0339 0.00978447 0)
(1.03187 0.0123335 0)
(1.02891 0.014836 0)
(1.02478 0.0169095 0)
(1.01941 0.0179305 0)
(1.01382 0.0172686 0)
(1.00936 0.0153387 0)
(1.00617 0.0128834 0)
(1.00401 0.0103459 0)
(1.00259 0.00795653 0)
(1.0017 0.00581863 0)
(1.00118 0.00396128 0)
(1.0002 0.00237744 0)
(0.954151 0.00102364 0)
(0.345185 9.60999e-05 0)
(0.365105 0.000151531 0)
(1.035 0.00239354 0)
(1.0416 0.00443599 0)
(1.04104 0.00682595 0)
(1.03997 0.0095765 0)
(1.03824 0.012646 0)
(1.0356 0.0159055 0)
(1.03175 0.0190787 0)
(1.02644 0.0216681 0)
(1.01957 0.0228841 0)
(1.01246 0.0219627 0)
(1.00682 0.0194649 0)
(1.0028 0.0163262 0)
(1.00006 0.0130996 0)
(0.998277 0.01007 0)
(0.99716 0.00736137 0)
(0.996498 0.00500915 0)
(0.995444 0.003005 0)
(0.949378 0.00129211 0)
(0.342952 0.000120462 0)
(0.368554 0.000201168 0)
(1.04181 0.00312894 0)
(1.04829 0.00578621 0)
(1.04752 0.00888908 0)
(1.04611 0.0124489 0)
(1.04382 0.0164032 0)
(1.04035 0.0205693 0)
(1.03533 0.0245771 0)
(1.02847 0.0277821 0)
(1.01968 0.0291927 0)
(1.01068 0.0279021 0)
(1.00356 0.0246675 0)
(0.998509 0.0206653 0)
(0.995069 0.0165701 0)
(0.99282 0.0127325 0)
(0.991413 0.00930532 0)
(0.990581 0.00633279 0)
(0.989428 0.00379706 0)
(0.943346 0.00163214 0)
(0.340139 0.000151767 0)
(0.373128 0.000271343 0)
(1.05071 0.0041251 0)
(1.05702 0.00760742 0)
(1.05596 0.011659 0)
(1.05405 0.0162862 0)
(1.05099 0.0213865 0)
(1.04638 0.0267027 0)
(1.03979 0.0317316 0)
(1.0309 0.0356422 0)
(1.01968 0.0372078 0)
(1.00832 0.035388 0)
(0.9994 0.0312037 0)
(0.993065 0.0261117 0)
(0.988749 0.0209316 0)
(0.985922 0.0160854 0)
(0.984151 0.011756 0)
(0.983101 0.00799955 0)
(0.98182 0.00479574 0)
(0.93572 0.00205963 0)
(0.336595 0.000190705 0)
(0.37929 0.000373833 0)
(1.06243 0.00551132 0)
(1.0685 0.0101186 0)
(1.067 0.0154516 0)
(1.06436 0.0214968 0)
(1.06018 0.0280885 0)
(1.05397 0.0348439 0)
(1.04526 0.0410829 0)
(1.03374 0.0457464 0)
(1.01946 0.0473527 0)
(1.00521 0.0447705 0)
(0.994089 0.0393739 0)
(0.986187 0.0329309 0)
(0.98078 0.0264084 0)
(0.97722 0.0203067 0)
(0.97498 0.0148523 0)
(0.973648 0.0101114 0)
(0.972201 0.00606219 0)
(0.926082 0.00260086 0)
(0.332129 0.000240134 0)
(0.387785 0.000532507 0)
(1.07806 0.00752063 0)
(1.08373 0.0137106 0)
(1.08154 0.0208051 0)
(1.07778 0.0287536 0)
(1.07193 0.0372668 0)
(1.06344 0.0457763 0)
(1.05183 0.0533616 0)
(1.03688 0.0587108 0)
(1.01882 0.0601149 0)
(1.0011 0.056446 0)
(0.987352 0.0495248 0)
(0.97755 0.0414401 0)
(0.970786 0.0332917 0)
(0.966286 0.0256537 0)
(0.963425 0.0187968 0)
(0.961712 0.0128148 0)
(0.960039 0.00769246 0)
(0.913886 0.00330281 0)
(0.32648 0.000305367 0)
(0.399966 0.000804923 0)
(1.09921 0.0106972 0)
(1.1042 0.0191878 0)
(1.10084 0.0287367 0)
(1.0952 0.0392239 0)
(1.08673 0.0501447 0)
(1.07489 0.0606407 0)
(1.05933 0.0695219 0)
(1.04003 0.0752689 0)
(1.01741 0.0760228 0)
(0.995657 0.0708216 0)
(0.978863 0.062029 0)
(0.966806 0.0520213 0)
(0.958351 0.0419745 0)
(0.952609 0.0325102 0)
(0.94888 0.0239414 0)
(0.946614 0.0164013 0)
(0.944615 0.00989017 0)
(0.898385 0.00426703 0)
(0.319254 0.000397379 0)
(0.41875 0.00139635 0)
(1.12856 0.0165975 0)
(1.13228 0.028469 0)
(1.12653 0.0413352 0)
(1.11747 0.0550202 0)
(1.10472 0.0686518 0)
(1.08797 0.0810167 0)
(1.06716 0.0907318 0)
(1.0425 0.0962032 0)
(1.01462 0.0955841 0)
(0.98838 0.0882739 0)
(0.968218 0.0772566 0)
(0.953584 0.0651103 0)
(0.943074 0.0529967 0)
(0.935678 0.0415153 0)
(0.930671 0.0309793 0)
(0.92751 0.021558 0)
(0.924966 0.0132623 0)
(0.878573 0.00590135 0)
(0.309775 0.000564625 0)
(0.449267 0.00324983 0)
(1.17154 0.0298728 0)
(1.17178 0.0460091 0)
(1.16047 0.0626464 0)
(1.14498 0.0796341 0)
(1.12541 0.0954893 0)
(1.10181 0.108774 0)
(1.07435 0.118168 0)
(1.04343 0.122201 0)
(1.00979 0.119193 0)
(0.978854 0.109089 0)
(0.955186 0.0955247 0)
(0.937775 0.0811693 0)
(0.924871 0.0670547 0)
(0.915328 0.0536994 0)
(0.908379 0.0413278 0)
(0.903534 0.0301174 0)
(0.899643 0.0198465 0)
(0.853173 0.00988749 0)
(0.297413 0.000991777 0)
(0.494933 0.0163002 8.58329e-20)
(1.23317 0.0619885 7.6843e-20)
(1.22278 0.080069 -2.6622e-20)
(1.201 0.0993796 0)
(1.1759 0.117817 -6.22991e-34)
(1.14747 0.133678 8.94982e-21)
(1.11562 0.145872 -1.51702e-20)
(1.08055 0.153326 0)
(1.04266 0.1547 2.90689e-34)
(1.00266 0.148432 -1.67407e-20)
(0.96657 0.135109 0)
(0.938973 0.118963 -1.8928e-20)
(0.918271 0.102647 -5.51927e-20)
(0.902304 0.0870285 -2.58873e-20)
(0.889703 0.0725929 -7.68602e-21)
(0.879526 0.0596051 -4.54993e-21)
(0.871142 0.0483864 0)
(0.863432 0.0387355 3.20144e-21)
(0.816863 0.028898 3.78405e-21)
(0.282795 0.00895807 6.84267e-20)
(0.517545 0.0471632 7.11835e-20)
(1.28894 0.121757 5.13789e-22)
(1.26837 0.136916 7.5936e-21)
(1.23732 0.153555 0)
(1.20349 0.169344 -3.31497e-20)
(1.16676 0.182783 -3.65629e-20)
(1.12708 0.19257 -1.56882e-20)
(1.0845 0.197488 -5.27918e-20)
(1.03932 0.196068 0)
(0.992105 0.186754 7.11644e-20)
(0.949509 0.170637 6.87553e-20)
(0.91661 0.152529 1.99742e-20)
(0.89145 0.135082 7.11421e-20)
(0.871481 0.119102 9.86596e-20)
(0.855052 0.104932 0)
(0.841088 0.0929853 1.38319e-19)
(0.828883 0.0834153 1.99409e-19)
(0.817541 0.0766206 2.22182e-19)
(0.772473 0.0683315 -2.54443e-19)
(0.271117 0.025097 -4.59238e-21)
(0.5151 0.0778379 0)
(1.3253 0.198571 1.60036e-20)
(1.30065 0.208041 0)
(1.26362 0.218895 -5.09073e-20)
(1.22339 0.229711 0)
(1.18016 0.238803 -7.49896e-20)
(1.13393 0.244733 3.27312e-20)
(1.08482 0.245981 -1.09143e-19)
(1.03319 0.240961 -1.18499e-21)
(0.979665 0.228027 3.71698e-20)
(0.931638 0.208888 1.48099e-19)
(0.894624 0.188909 5.94482e-23)
(0.866344 0.170704 -5.09231e-20)
(0.843985 0.154795 -9.06755e-20)
(0.825824 0.141316 1.07308e-19)
(0.810774 0.130356 -1.89598e-19)
(0.798029 0.121981 -2.50669e-20)
(0.786636 0.116071 0)
(0.74358 0.107042 1.23193e-21)
(0.265003 0.0392554 0)
(0.516264 0.106961 2.58168e-19)
(1.34499 0.274072 -1.25137e-19)
(1.31903 0.280383 -8.41985e-20)
(1.27931 0.28709 2.59955e-20)
(1.23544 0.293521 -4.28262e-20)
(1.18774 0.298269 1.59178e-19)
(1.1364 0.300019 6.90957e-20)
(1.08179 0.297195 0)
(1.02449 0.288131 -1.93896e-19)
(0.965352 0.271124 0)
(0.912686 0.248537 -7.77073e-20)
(0.872519 0.226334 -9.22445e-20)
(0.842228 0.206938 -5.42895e-20)
(0.818651 0.190559 -6.46699e-20)
(0.799858 0.177056 0)
(0.784566 0.166232 0)
(0.771901 0.157975 -1.60764e-19)
(0.760715 0.152169 3.164e-20)
(0.719078 0.141605 -1.87921e-20)
(0.258222 0.0519526 -2.18526e-20)
(0.517623 0.134714 -1.51086e-19)
(1.35704 0.347644 0)
(1.32969 0.351713 2.01652e-19)
(1.28782 0.355059 8.033e-20)
(1.24118 0.357818 9.50728e-20)
(1.19 0.358751 0)
(1.13453 0.356599 7.10047e-20)
(1.07527 0.349737 1.2251e-19)
(1.01302 0.336445 1.0128e-19)
(0.948976 0.31499 1.70246e-19)
(0.892438 0.288474 0)
(0.849913 0.263517 -1.9533e-19)
(0.818365 0.242374 -1.14474e-19)
(0.794219 0.224971 -6.65593e-20)
(0.775287 0.21085 4.00821e-19)
(0.760135 0.199618 4.7369e-20)
(0.747733 0.191023 2.25357e-19)
(0.736914 0.184799 -1.07358e-18)
(0.696684 0.172634 6.36682e-19)
(0.251856 0.0634124 -7.69145e-19)
(0.518676 0.161231 -1.30996e-19)
(1.36346 0.418256 3.22069e-20)
(1.33479 0.420998 -2.88462e-20)
(1.29127 0.421759 -1.03726e-19)
(1.24236 0.421523 -9.37095e-20)
(1.18828 0.419174 1.63372e-21)
(1.12926 0.413435 -7.65704e-20)
(1.06588 0.402713 1.29162e-19)
(0.999143 0.385138 -2.16987e-19)
(0.93064 0.358969 0)
(0.870748 0.327995 -9.00572e-20)
(0.826429 0.299693 -3.3732e-22)
(0.794165 0.276282 -1.22012e-19)
(0.769883 0.257348 0)
(0.751143 0.242208 -8.48453e-20)
(0.736361 0.23018 -1.99696e-19)
(0.724396 0.220988 5.35292e-19)
(0.714031 0.214127 -5.30576e-19)
(0.675228 0.200335 7.52948e-19)
(0.245619 0.0737144 -7.84069e-19)
(0.519739 0.186761 -1.72537e-21)
(1.3662 0.486219 -3.12742e-20)
(1.33619 0.487937 -1.14944e-19)
(1.29113 0.486645 5.20055e-20)
(1.24021 0.483958 -4.96406e-20)
(1.18353 0.478817 0)
(1.12128 0.469891 -7.73711e-20)
(1.0541 0.455553 -1.37218e-19)
(0.983125 0.433752 -1.14611e-19)
(0.910403 0.402608 0)
(0.84746 0.366641 -9.35602e-20)
(0.80177 0.33441 -1.0931e-19)
(0.769196 0.308222 1.28765e-19)
(0.745167 0.28732 -7.67536e-20)
(0.726909 0.270812 -3.54598e-19)
(0.712678 0.257859 2.10149e-19)
(0.701289 0.247798 6.27229e-20)
(0.691465 0.240229 0)
(0.654133 0.224861 -7.00186e-19)
(0.239572 0.0830007 -2.53946e-20)
(0.520919 0.211549 -1.63697e-20)
(1.36646 0.551483 3.14464e-20)
(1.33505 0.552482 6.11955e-20)
(1.28851 0.549533 1.73639e-19)
(1.23569 0.544857 -2.04302e-19)
(1.17655 0.537299 1.86283e-19)
(1.11129 0.525581 1.67373e-19)
(1.04043 0.507859 -2.20602e-19)
(0.965331 0.481968 6.52385e-20)
(0.888395 0.445676 -4.12994e-19)
(0.822475 0.404185 -1.01317e-19)
(0.775684 0.367401 0)
(0.743187 0.33787 1.35392e-19)
(0.719772 0.314691 1.57191e-19)
(0.702277 0.296612 1.85991e-19)
(0.68882 0.282456 -2.18842e-19)
(0.678152 0.271534 -6.41397e-20)
(0.668951 0.26322 7.72669e-20)
(0.633117 0.246325 0)
(0.233942 0.0914613 -5.31518e-20)
(0.522263 0.235645 1.56796e-19)
(1.36506 0.614105 -1.23206e-19)
(1.33216 0.614644 -6.54679e-20)
(1.28417 0.610375 1.20665e-19)
(1.22952 0.603994 -1.04968e-19)
(1.16805 0.59442 -3.14742e-21)
(1.09982 0.580261 -1.82046e-19)
(1.02537 0.559504 -7.9507e-20)
(0.946074 0.529724 -1.98744e-19)
(0.864717 0.488144 4.9619e-22)
(0.795684 0.440551 -3.19386e-19)
(0.747949 0.398464 2.46201e-19)
(0.715931 0.365041 -1.41383e-19)
(0.693568 0.339197 1.6426e-19)
(0.677206 0.319355 0)
(0.664778 0.304019 -1.11995e-19)
(0.654966 0.292277 -2.02351e-21)
(0.646497 0.283213 -3.14983e-19)
(0.612266 0.264978 -4.7299e-20)
(0.228771 0.0991823 0)
(0.52354 0.258835 0)
(1.36257 0.674297 -1.34269e-19)
(1.32814 0.674485 -1.30774e-19)
(1.27868 0.669128 -1.25957e-19)
(1.22224 0.661345 -1.18465e-19)
(1.15848 0.650052 0)
(1.08741 0.633788 -9.16383e-20)
(1.00936 0.610354 -1.25365e-22)
(0.925729 0.576944 4.27567e-19)
(0.83956 0.530052 -5.83988e-20)
(0.767006 0.475793 -2.27701e-19)
(0.718322 0.427492 1.30536e-19)
(0.687211 0.389471 1.18886e-21)
(0.666485 0.360548 1.70562e-19)
(0.651786 0.338846 9.98745e-20)
(0.640732 0.322385 -2.35136e-19)
(0.632014 0.309856 2.74473e-19)
(0.624378 0.300257 8.01123e-20)
(0.591817 0.280906 3.36128e-19)
(0.224252 0.106363 -9.00352e-19)
(0.525131 0.281676 2.95083e-20)
(1.35938 0.732141 -6.43016e-20)
(1.32333 0.732041 5.9441e-20)
(1.27248 0.725756 1.29271e-19)
(1.21425 0.716792 0)
(1.14833 0.704062 -1.06301e-19)
(1.07443 0.686007 3.02873e-19)
(0.992852 0.660351 1.81991e-19)
(0.904622 0.623687 0)
(0.813113 0.571694 -8.25529e-19)
(0.736251 0.51014 6.07605e-19)
(0.686465 0.454455 0)
(0.656781 0.410777 1.53485e-19)
(0.638514 0.378377 2.44854e-21)
(0.626189 0.354767 -3.0278e-19)
(0.617007 0.337443 1.20213e-19)
(0.60966 0.324411 0)
(0.603017 0.314478 4.09804e-19)
(0.572235 0.29449 0)
(0.221047 0.1135 -4.00147e-19)
(0.52703 0.304286 -2.96749e-20)
(1.35564 0.787791 -6.04783e-20)
(1.31808 0.787346 6.57376e-20)
(1.26584 0.780245 0)
(1.20593 0.770304 -1.2803e-19)
(1.13786 0.756407 0)
(1.06128 0.736907 -3.15955e-19)
(0.976144 0.709418 -9.23716e-20)
(0.883175 0.670024 8.04857e-20)
(0.785646 0.613162 -4.09883e-19)
(0.703456 0.543923 6.51116e-20)
(0.651909 0.479469 0)
(0.624186 0.428664 -3.19523e-19)
(0.609538 0.391984 -3.13097e-21)
(0.600799 0.36648 0)
(0.594328 0.348643 -1.02037e-21)
(0.588774 0.335787 3.4762e-19)
(0.583257 0.326049 -3.29286e-19)
(0.554438 0.305993 9.70727e-20)
(0.219685 0.120859 0)
(0.528648 0.325928 0)
(1.35147 0.841143 -5.93161e-20)
(1.3125 0.84036 -6.19746e-20)
(1.25893 0.832575 -2.39013e-21)
(1.19743 0.821814 -6.24123e-20)
(1.12739 0.806942 -2.47341e-19)
(1.04824 0.78633 1.16269e-19)
(0.959629 0.757449 -1.04051e-19)
(0.861851 0.715942 3.53195e-19)
(0.757525 0.6549 -6.66446e-19)
(0.668469 0.577688 -1.79887e-21)
(0.614069 0.502769 -1.53735e-19)
(0.588644 0.442707 4.97723e-19)
(0.579334 0.400447 4.79467e-21)
(0.576041 0.373004 -2.02676e-19)
(0.573645 0.355496 -3.56048e-19)
(0.570591 0.343742 0)
(0.566397 0.335232 0)
(0.539655 0.31619 9.60397e-20)
(0.220938 0.129197 -5.46329e-20)
(0.530702 0.347297 -2.63715e-20)
(1.34715 0.892322 1.23455e-19)
(1.30679 0.891137 6.689e-20)
(1.25195 0.882715 0)
(1.18895 0.871251 -1.13076e-21)
(1.11706 0.855613 -2.5484e-19)
(1.03554 0.834195 3.0134e-19)
(0.943622 0.804377 4.33713e-19)
(0.840928 0.761519 4.72612e-19)
(0.729142 0.697209 -5.60404e-19)
(0.631394 0.612095 -5.32646e-19)
(0.572151 0.524867 4.12491e-19)
(0.549031 0.452372 0)
(0.54734 0.402234 -8.84537e-20)
(0.552576 0.372618 -2.01349e-19)
(0.556573 0.356676 -2.29247e-19)
(0.557127 0.34786 -2.64084e-19)
(0.554421 0.342359 7.50422e-20)
(0.529733 0.325946 -4.70893e-20)
(0.226026 0.139482 -3.26049e-21)
(0.532264 0.368017 0)
(1.34265 0.941285 0)
(1.301 0.939671 2.27034e-21)
(1.24497 0.930613 0)
(1.18059 0.918529 2.04896e-19)
(1.10706 0.902266 1.97212e-19)
(1.02339 0.880255 0)
(0.928371 0.850008 5.5899e-20)
(0.820899 0.806591 8.12919e-19)
(0.701115 0.740255 -1.29887e-18)
(0.592477 0.648086 0)
(0.525347 0.546821 -2.68818e-19)
(0.503465 0.457402 5.80006e-21)
(0.512279 0.395313 5.72824e-21)
(0.531126 0.362507 1.9516e-19)
(0.545511 0.350263 -2.22947e-21)
(0.551279 0.34738 -4.8759e-19)
(0.550402 0.347833 1.42817e-19)
(0.527463 0.336843 4.07206e-20)
(0.236413 0.152925 0)
(0.533545 0.387976 6.04139e-20)
(1.33799 0.988047 5.87833e-20)
(1.29522 0.985977 1.30739e-19)
(1.23808 0.976311 -2.8137e-19)
(1.17245 0.963613 3.53389e-19)
(1.09752 0.946824 0)
(1.01189 0.924467 2.02205e-19)
(0.914121 0.894224 -1.2292e-19)
(0.802087 0.851052 2.8216e-21)
(0.673971 0.784176 9.4655e-20)
(0.552324 0.686623 7.2265e-19)
(0.472796 0.570226 -9.80009e-20)
(0.449145 0.457874 -2.93785e-19)
(0.471753 0.376551 -8.07805e-20)
(0.512824 0.33827 8.84911e-20)
(0.543903 0.333382 -4.27772e-21)
(0.557696 0.342317 1.07575e-19)
(0.558622 0.35272 -2.60802e-19)
(0.537609 0.351196 2.94173e-19)
(0.254367 0.171563 4.67333e-20)
(0.534228 0.407058 -1.71673e-20)
(1.33317 1.03263 2.96345e-20)
(1.28944 1.03007 6.40207e-21)
(1.23136 1.0198 -1.39816e-19)
(1.16463 1.00649 -6.94867e-20)
(1.08846 0.989258 -3.71649e-19)
(1.00125 0.966699 6.74234e-20)
(0.901001 0.936805 -5.24577e-19)
(0.784773 0.894664 -9.38668e-19)
(0.648337 0.828933 -8.09488e-19)
(0.51171 0.728508 0)
(0.414157 0.597367 -4.23507e-19)
(0.382351 0.455162 4.0796e-19)
(0.42105 0.341556 0)
(0.497346 0.291792 -1.67412e-19)
(0.559316 0.300431 6.86782e-20)
(0.58628 0.331675 -8.7126e-20)
(0.587288 0.361738 -1.05084e-19)
(0.562911 0.374303 -1.94076e-19)
(0.280584 0.196935 -1.50945e-19)
(0.535266 0.425735 1.4523e-20)
(1.32815 1.07502 -3.1661e-20)
(1.28357 1.07196 -9.01879e-20)
(1.22476 1.06104 -1.78184e-19)
(1.15721 1.04711 1.52807e-19)
(1.07996 1.02949 -2.31132e-19)
(0.991507 1.00696 2.20368e-19)
(0.889215 0.977586 -5.5693e-19)
(0.769221 0.937122 -5.69007e-19)
(0.624811 0.874258 8.80694e-19)
(0.471928 0.774491 1.67095e-18)
(0.349871 0.631374 0)
(0.298479 0.452769 0)
(0.350824 0.286043 -8.05612e-20)
(0.484265 0.207519 0)
(0.607046 0.241918 9.45494e-20)
(0.653517 0.320445 1.12487e-19)
(0.642623 0.384023 0)
(0.598341 0.415908 0)
(0.305419 0.228848 1.23795e-19)
(0.535561 0.443087 -8.68615e-21)
(1.32297 1.11521 -1.68993e-20)
(1.27759 1.11163 -6.25692e-20)
(1.21813 1.10006 1.41397e-19)
(1.15004 1.08559 1.56919e-19)
(1.07208 1.06756 2.7791e-19)
(0.982763 1.0452 -3.12619e-19)
(0.878824 1.01661 -2.8587e-21)
(0.755689 0.978197 -4.32715e-21)
(0.604021 0.919743 4.09024e-21)
(0.434501 0.82475 8.80807e-19)
(0.281631 0.675685 0)
(0.192884 0.457803 4.1579e-19)
(0.24336 0.205538 1.65163e-19)
(0.468356 0.0531687 1.85803e-20)
(0.723121 0.135235 -2.12669e-20)
(0.787347 0.329263 -4.94447e-21)
(0.719223 0.45698 -3.52198e-20)
(0.641418 0.480805 0)
(0.330442 0.268601 1.15181e-19)
(0.53638 0.460452 5.66442e-21)
(1.31757 1.15342 0)
(1.27163 1.14908 -5.70271e-20)
(1.21163 1.13678 1.08484e-19)
(1.14302 1.12182 -1.57294e-19)
(1.06461 1.10354 -3.66154e-19)
(0.974877 1.08126 6.52562e-19)
(0.869864 1.05376 -4.0738e-20)
(0.74441 1.01787 0)
(0.586675 0.964834 -1.02235e-18)
(0.401207 0.878791 -2.0032e-18)
(0.213057 0.733384 7.32372e-20)
(0.0633888 0.482274 6.18934e-19)
(0.0688368 0.099344 0)
(0.416642 -0.243453 -2.57631e-19)
(0.976622 -0.112293 0)
(1.11965 0.304424 0)
(0.897305 0.545536 -2.7413e-21)
(0.672313 0.553507 0)
(0.32666 0.268396 3.44833e-20)
(0.53647 0.476561 -4.4287e-21)
(1.31186 1.18977 0)
(1.2656 1.18447 -8.02981e-20)
(1.20534 1.17146 0)
(1.13637 1.15598 7.73022e-20)
(1.0575 1.13749 0)
(0.967479 1.11552 3.88213e-20)
(0.862041 1.08922 8.10773e-20)
(0.735152 1.05642 7.41463e-20)
(0.572984 1.00987 -1.14819e-18)
(0.373683 0.936565 6.37936e-20)
(0.148442 0.807435 5.88021e-19)
(-0.0895432 0.54648 6.30666e-19)
(-0.241106 0.00242227 4.58373e-20)
(0.0457411 -0.476261 -5.9403e-19)
(0.936814 0.0122096 0)
(1.22626 0.717467 -4.88027e-19)
(0.970208 1.06365 1.02492e-19)
(0.443693 0.839356 1.31904e-19)
(-0.0584666 0.999123 -2.84292e-19)
(0.536693 0.492396 1.19328e-20)
(1.30582 1.22438 -3.20397e-20)
(1.25938 1.21801 0)
(1.19906 1.20452 5.17777e-21)
(1.12996 1.18883 -1.92588e-19)
(1.05077 1.17029 6.23454e-19)
(0.960488 1.14882 2.5176e-19)
(0.854776 1.12417 0)
(0.727398 1.09497 5.16543e-19)
(0.56259 1.05703 -6.30807e-20)
(0.35332 1.00069 0)
(0.0946962 0.903125 0)
(-0.254826 0.695316 6.30478e-19)
(-0.741725 0.329224 -2.45869e-20)
(-0.841628 0.474957 7.15475e-19)
(-0.0117435 1.47066 0)
(0.637994 1.99139 -4.48316e-19)
(0.485882 2.08949 1.34158e-19)
(0.214152 2.81082 -7.70785e-20)
(0.127938 3.18807 -2.19054e-20)
(0.537001 0.507346 -1.81461e-20)
(1.29922 1.2572 2.60595e-20)
(1.25314 1.24958 -3.89661e-20)
(1.19289 1.23573 -6.66957e-20)
(1.12371 1.21998 0)
(1.04436 1.20165 4.23432e-19)
(0.954365 1.18091 3.7923e-19)
(0.848413 1.15779 -4.21033e-20)
(0.720842 1.13246 7.72135e-20)
(0.555497 1.10397 1.13336e-18)
(0.342016 1.06897 1.09942e-18)
(0.066701 1.01562 7.40101e-19)
(-0.340467 0.924338 6.92419e-19)
(-0.949944 0.909003 -3.35425e-19)
(-1.36728 1.56657 7.43846e-19)
(-0.82322 2.68304 0)
(-0.242328 3.2 0)
(-0.0596983 3.43165 -1.10812e-19)
(-0.000340164 3.45525 0)
(0.0110928 3.36797 -1.63278e-19)
(0.539104 0.524978 0)
(1.29156 1.28781 0)
(1.24664 1.27881 0)
(1.18668 1.26495 -1.41922e-20)
(1.11735 1.24925 -1.65401e-19)
(1.03791 1.23127 2.96435e-19)
(0.948852 1.21157 2.56655e-19)
(0.843196 1.19026 -4.24801e-20)
(0.715786 1.16855 6.80099e-19)
(0.551011 1.14927 -4.67223e-21)
(0.338456 1.13747 2.22704e-18)
(0.0647397 1.13628 -8.39836e-20)
(-0.319307 1.1659 9.40697e-20)
(-0.85513 1.34914 5.07022e-20)
(-1.28171 2.12393 -7.02406e-20)
(-0.913923 2.99712 -7.85982e-20)
(-0.527827 3.32198 6.21933e-19)
(-0.283926 3.3605 2.19805e-19)
(-0.150914 3.34892 -8.75768e-20)
(-0.0901743 3.3157 7.94505e-20)
(0.400413 0.453763 1.81622e-20)
(1.28332 1.31575 0)
(1.24058 1.30609 5.17056e-20)
(1.18101 1.29275 1.45823e-19)
(1.11165 1.27741 -2.91937e-19)
(1.03239 1.25983 -3.03315e-19)
(0.943985 1.23987 -2.81691e-19)
(0.839227 1.22012 5.33272e-19)
(0.713795 1.20243 -5.72248e-19)
(0.552095 1.19225 0)
(0.347408 1.20132 1.11692e-18)
(0.0955244 1.24365 -6.21869e-19)
(-0.217856 1.3538 0)
(-0.625474 1.65536 9.46553e-20)
(-0.930783 2.2901 4.22742e-20)
(-0.737259 2.90151 4.90088e-20)
(-0.46523 3.14372 -9.84912e-20)
(-0.283115 3.20505 -5.15198e-20)
(-0.179557 3.21639 -6.96368e-20)
(-0.115318 3.21933 -1.16118e-19)
(0.642072 0.637002 -3.21403e-21)
(1.2717 1.34084 0)
(1.231 1.34597 -3.35206e-20)
(1.17051 1.334 -1.1853e-19)
(1.10062 1.31917 2.64829e-19)
(1.02119 1.30218 2.77828e-19)
(0.931908 1.28379 3.62921e-19)
(0.828027 1.26667 4.15893e-20)
(0.704946 1.25555 5.87797e-19)
(0.548686 1.25914 1.06255e-18)
(0.355659 1.29722 6.67395e-20)
(0.134208 1.39642 5.71041e-19)
(-0.102443 1.59354 9.32217e-20)
(-0.308947 1.92435 -9.49644e-20)
(-0.392188 2.34251 -1.09136e-19)
(-0.309156 2.68726 3.99556e-20)
(-0.213315 2.87158 -3.83045e-21)
(-0.133447 2.99309 1.92293e-20)
(-0.0881444 3.07703 5.06261e-20)
(-0.0912707 3.15334 8.58693e-21)
(0.637615 0.637388 0)
(1.27069 1.3689 6.71947e-21)
(1.22605 1.37416 2.09088e-21)
(1.1645 1.36272 9.04772e-21)
(1.0943 1.34781 1.56633e-19)
(1.01521 1.33092 -2.6109e-19)
(0.926232 1.31295 -2.25917e-19)
(0.823865 1.2977 3.93916e-20)
(0.704165 1.28992 -6.32323e-19)
(0.555484 1.30133 -1.22607e-20)
(0.378123 1.35605 -2.11554e-18)
(0.190593 1.4764 7.90054e-20)
(0.0142294 1.68478 -8.8938e-20)
(-0.112254 1.98757 -8.00369e-20)
(-0.153733 2.32119 1.86834e-21)
(-0.105957 2.61177 -2.03046e-20)
(-0.0491883 2.82194 -2.45671e-20)
(-0.00468585 2.93323 -6.02253e-20)
(0.00938091 3.03363 9.67555e-20)
(-0.0339708 3.10859 7.43883e-20)
(0.608479 0.626451 4.08242e-20)
(1.26979 1.40217 5.98196e-20)
(1.22085 1.40547 4.20746e-21)
(1.15807 1.39334 3.47479e-20)
(1.08762 1.37811 0)
(1.00904 1.36131 -3.23753e-19)
(0.921267 1.34417 -3.11587e-19)
(0.821175 1.32987 3.69951e-20)
(0.703904 1.32284 -6.96443e-20)
(0.560226 1.33784 -1.03025e-18)
(0.398137 1.40086 -1.00571e-18)
(0.243053 1.53037 -6.82012e-19)
(0.123009 1.73924 -6.52203e-19)
(0.0567046 2.02074 5.61075e-19)
(0.043685 2.30866 3.73612e-19)
(0.0824483 2.56512 0)
(0.122208 2.77292 0)
(0.147778 2.92858 7.66153e-20)
(0.126483 3.0359 0)
(0.0395342 3.09993 1.79496e-19)
(0.581478 0.620138 -8.25923e-20)
(1.26578 1.43868 -7.34701e-20)
(1.21396 1.43893 0)
(1.15025 1.42561 7.21285e-21)
(1.08018 1.41 1.15607e-19)
(1.00209 1.3924 -4.3921e-19)
(0.914643 1.37412 -1.92069e-19)
(0.816021 1.3593 3.1067e-20)
(0.703997 1.35526 -5.0099e-19)
(0.571193 1.37788 5.55055e-20)
(0.42807 1.45002 0)
(0.302981 1.58415 0)
(0.225848 1.78383 -6.08405e-19)
(0.211495 2.04535 2.13488e-19)
(0.231782 2.29869 2.35338e-19)
(0.273278 2.53103 0)