/*--------------------------------*- C++ -*----------------------------------*\
  =========                 |
  \\      /  F ield         | OpenFOAM: The Open Source CFD Toolbox
   \\    /   O peration     | Website:  https://openfoam.org
    \\  /    A nd           | Version:  10
     \\/     M anipulation  |
\*---------------------------------------------------------------------------*/
FoamFile
{
    format      ascii;
    class       volScalarField;
    location    "61";
    object      p;
}
// * * * * * * * * * * * * * * * * * * * * * * * * * * * * * * * * * * * * * //

dimensions      [0 2 -2 0 0 0 0];

internalField   nonuniform List<scalar> 
8800
(
0.864136
0.816349
0.777661
0.748668
0.727807
0.712981
0.702392
0.694923
0.690119
0.688084
0.689377
0.693587
0.700247
0.709574
0.722361
0.7401
0.764881
0.798824
0.841376
0.900078
0.695383
0.703061
0.710539
0.713848
0.712347
0.707273
0.700792
0.694724
0.690014
0.687191
0.686936
0.689465
0.693973
0.699931
0.70671
0.712996
0.716641
0.715907
0.71049
0.701801
0.673783
0.679943
0.684071
0.687017
0.689069
0.689679
0.68858
0.686486
0.684488
0.683605
0.684594
0.686998
0.689814
0.692006
0.692622
0.691428
0.689091
0.685701
0.681143
0.677383
0.667968
0.670619
0.673372
0.675776
0.677414
0.678581
0.679331
0.679461
0.679184
0.679161
0.679943
0.681138
0.681995
0.682073
0.681473
0.680388
0.678577
0.676009
0.673608
0.672104
0.662581
0.664005
0.665786
0.66782
0.669607
0.670953
0.671951
0.672763
0.673399
0.673993
0.674678
0.675201
0.67532
0.675047
0.67436
0.673119
0.671429
0.669585
0.668279
0.667448
0.657496
0.658416
0.659659
0.661227
0.662863
0.664393
0.665688
0.666771
0.667759
0.668687
0.669415
0.669773
0.669754
0.669331
0.668463
0.667271
0.66595
0.664695
0.663874
0.663323
0.652579
0.653249
0.654212
0.655516
0.656929
0.658393
0.659842
0.661182
0.662407
0.663554
0.664419
0.664823
0.664765
0.664275
0.663483
0.662546
0.661541
0.660623
0.66004
0.659634
0.647783
0.6483
0.649084
0.650216
0.651497
0.652877
0.654334
0.655825
0.657283
0.658664
0.65972
0.660232
0.660238
0.659875
0.659289
0.658576
0.657812
0.657134
0.656703
0.656385
0.643037
0.643447
0.644104
0.645112
0.646321
0.647655
0.649112
0.650688
0.652342
0.653989
0.655292
0.655998
0.656198
0.656055
0.655691
0.655189
0.65463
0.654145
0.653824
0.653566
0.638253
0.638587
0.639155
0.640084
0.641244
0.642564
0.644057
0.645732
0.647574
0.649512
0.651134
0.652135
0.652612
0.652722
0.652589
0.652311
0.651946
0.651621
0.651385
0.651168
0.633344
0.633621
0.634127
0.63501
0.636153
0.637497
0.639063
0.640879
0.642951
0.645225
0.64725
0.648632
0.649442
0.649841
0.649959
0.649907
0.649734
0.64955
0.649382
0.649194
0.62822
0.628453
0.62892
0.629787
0.630952
0.632364
0.634047
0.636057
0.638424
0.641115
0.643633
0.645472
0.64667
0.647402
0.647802
0.647981
0.648004
0.647948
0.647836
0.647669
0.622791
0.622989
0.623436
0.624317
0.625545
0.627069
0.628923
0.631194
0.633937
0.637151
0.640267
0.642649
0.644304
0.645414
0.64613
0.646556
0.64679
0.646856
0.64679
0.646636
0.616954
0.617124
0.617569
0.618492
0.619825
0.621512
0.623604
0.626217
0.629435
0.633298
0.637139
0.64017
0.64236
0.643906
0.64498
0.645706
0.646147
0.64633
0.646304
0.646159
0.610593
0.610738
0.611196
0.612192
0.613675
0.615585
0.617993
0.621041
0.624859
0.629518
0.634236
0.638043
0.640868
0.642926
0.644409
0.645457
0.646138
0.646443
0.646455
0.646314
0.603568
0.603689
0.604174
0.605273
0.606959
0.609162
0.611973
0.615575
0.620139
0.625772
0.63155
0.636283
0.63986
0.642523
0.644489
0.645912
0.646856
0.647287
0.647332
0.647192
0.595698
0.595797
0.596325
0.597566
0.599512
0.602086
0.605413
0.609712
0.6152
0.622022
0.629078
0.634917
0.639381
0.642755
0.645297
0.647156
0.648397
0.64896
0.649037
0.648893
0.586758
0.586859
0.587442
0.588839
0.591116
0.594175
0.598157
0.60333
0.609963
0.618239
0.62683
0.63398
0.63949
0.643698
0.646925
0.649294
0.650868
0.651572
0.651678
0.651527
0.576437
0.576519
0.577192
0.578814
0.581526
0.585203
0.590013
0.596286
0.604343
0.614392
0.624819
0.633513
0.640255
0.645445
0.649456
0.652425
0.654378
0.655228
0.65536
0.655198
0.564363
0.56443
0.565203
0.567137
0.570406
0.574879
0.580751
0.588416
0.598245
0.610453
0.623068
0.633573
0.641743
0.648078
0.652998
0.656667
0.65903
0.660029
0.660181
0.660005
0.549985
0.550041
0.550956
0.553306
0.557312
0.562832
0.570085
0.579538
0.591585
0.606418
0.621616
0.634222
0.644026
0.651676
0.65765
0.6621
0.664903
0.666044
0.666208
0.666014
0.532538
0.532583
0.533711
0.536644
0.541661
0.548598
0.557694
0.569471
0.58431
0.60232
0.620537
0.635538
0.647192
0.656319
0.663465
0.668785
0.672036
0.673299
0.673461
0.673246
0.510867
0.51091
0.512385
0.516199
0.522671
0.531602
0.543223
0.558071
0.576431
0.598257
0.619942
0.637616
0.65131
0.662072
0.670479
0.676734
0.680401
0.681746
0.681888
0.681652
0.483235
0.483297
0.48536
0.490594
0.499325
0.511187
0.526367
0.545293
0.568047
0.594378
0.619973
0.640557
0.656444
0.668949
0.678715
0.685878
0.689879
0.691238
0.691339
0.691082
0.446613
0.446775
0.450045
0.457897
0.470437
0.486771
0.507022
0.531305
0.55944
0.590965
0.62084
0.644493
0.662651
0.676951
0.688098
0.696055
0.700233
0.701513
0.70155
0.701276
0.395198
0.396176
0.402676
0.415903
0.435064
0.458318
0.485561
0.516611
0.551087
0.588379
0.622769
0.649546
0.669976
0.686005
0.698456
0.706982
0.711108
0.712205
0.712166
0.711883
0.32008
0.327346
0.342379
0.365668
0.394701
0.427222
0.463015
0.501862
0.543379
0.586928
0.626158
0.656288
0.679163
0.697093
0.7108
0.719706
0.723641
0.724539
0.724455
0.724208
0.239336
0.256532
0.280893
0.314897
0.354182
0.396104
0.440512
0.487343
0.536295
0.58679
0.631775
0.666081
0.691967
0.712173
0.727358
0.736387
0.739801
0.740424
0.740363
0.740205
0.172042
0.192295
0.224366
0.267472
0.315812
0.366589
0.419355
0.47403
0.530286
0.587536
0.638005
0.676213
0.704906
0.727053
0.743087
0.751884
0.754928
0.755482
0.755478
0.755368
0.11693
0.138839
0.17642
0.22596
0.281462
0.33971
0.399877
0.46175
0.524862
0.588547
0.644247
0.686128
0.717372
0.741203
0.758101
0.766996
0.769925
0.77053
0.770568
0.770483
0.0710609
0.0941461
0.135512
0.190162
0.25142
0.315834
0.382356
0.450632
0.520043
0.589769
0.650435
0.695809
0.72949
0.754991
0.772846
0.782104
0.785267
0.785762
0.78582
0.785759
0.0321657
0.0559134
0.100144
0.158837
0.224935
0.294601
0.366654
0.440636
0.515789
0.591141
0.656515
0.705243
0.7413
0.768454
0.787318
0.797197
0.800517
0.801048
0.801112
0.801082
-0.00178162
0.0223977
0.0688911
0.130921
0.201111
0.275347
0.352301
0.431425
0.511862
0.592496
0.662354
0.714308
0.752653
0.781441
0.801271
0.811775
0.815388
0.815988
0.816067
0.816059
-0.0322788
-0.00772078
0.0406159
0.105497
0.179214
0.257453
0.338805
0.422632
0.507986
0.593616
0.667763
0.722814
0.763343
0.793643
0.814458
0.825513
0.829443
0.830176
0.830254
0.830252
-0.0602934
-0.0353952
0.0145174
0.081856
0.158676
0.240468
0.32578
0.413918
0.503871
0.594263
0.672558
0.730599
0.773209
0.804918
0.826625
0.838196
0.842394
0.843262
0.843335
0.843333
-0.0866283
-0.0613432
-0.00998365
0.0594776
0.139068
0.224028
0.312918
0.405024
0.499297
0.594266
0.676625
0.737586
0.782193
0.815227
0.837673
0.849631
0.854029
0.854966
0.855023
0.855002
-0.111661
-0.0859807
-0.0333799
0.0380205
0.120073
0.207876
0.30001
0.395774
0.494114
0.593507
0.679882
0.743762
0.790317
0.824557
0.847573
0.859829
0.864326
0.865299
0.865335
0.865291
-0.135817
-0.109635
-0.0560045
0.0172378
0.101481
0.191834
0.286916
0.386047
0.488206
0.59188
0.682279
0.749136
0.797643
0.833022
0.856549
0.868897
0.873435
0.874378
0.874381
0.874316
-0.159232
-0.132618
-0.0779006
-0.00304085
0.0831601
0.175799
0.273546
0.375768
0.481504
0.589323
0.683782
0.753737
0.804285
0.840777
0.864667
0.876994
0.881459
0.882391
0.882374
0.882286
-0.182041
-0.154941
-0.0991996
-0.02291
0.0650454
0.159725
0.259864
0.3649
0.473968
0.58578
0.684346
0.757589
0.810347
0.848001
0.872156
0.884324
0.888622
0.889472
0.889423
0.889314
-0.20438
-0.176735
-0.120004
-0.0424065
0.0471019
0.143601
0.245877
0.353454
0.46559
0.581209
0.68392
0.760696
0.815946
0.854867
0.879177
0.89101
0.895012
0.89573
0.895635
0.895506
-0.226281
-0.197996
-0.140353
-0.0615377
0.0293538
0.127447
0.231621
0.341463
0.456386
0.575583
0.682444
0.763024
0.821147
0.861559
0.885954
0.897208
0.900717
0.90123
0.90109
0.900953
-0.24759
-0.218701
-0.160184
-0.080285
0.0118257
0.111322
0.217147
0.328991
0.446407
0.568916
0.679843
0.764504
0.825957
0.868263
0.892794
0.903168
0.905871
0.906055
0.905866
0.905734
-0.268294
-0.238828
-0.179489
-0.0986065
-0.00543152
0.0952793
0.202539
0.316111
0.435724
0.561225
0.676063
0.765016
0.830305
0.875104
0.900119
0.909418
0.910796
0.910306
0.910028
0.909954
-0.288459
-0.258344
-0.198248
-0.116479
-0.0223594
0.0793957
0.18788
0.30292
0.42442
0.552568
0.67105
0.764409
0.834018
0.882033
0.908325
0.916855
0.916379
0.914393
0.913745
0.913964
-0.307921
-0.277232
-0.216408
-0.133845
-0.0389035
0.0637513
0.173261
0.289525
0.412608
0.543031
0.664787
0.7625
0.836823
0.888726
0.917443
0.926508
0.924592
0.920201
0.917728
0.917423
-0.326773
-0.295482
-0.233988
-0.150736
-0.0550972
0.0483034
0.158628
0.27587
0.400223
0.532545
0.65714
0.759014
0.838423
0.894686
0.926865
0.938712
0.937877
0.93115
0.923336
0.909429
-0.344945
-0.313082
-0.251105
-0.167353
-0.0712196
0.0327283
0.143574
0.261488
0.386747
0.520493
0.647488
0.753198
0.838293
0.899248
0.934959
0.951415
0.952233
0.93942
0.919392
0.908115
-0.362264
-0.33017
-0.267567
-0.1835
-0.0869197
0.0173637
0.128322
0.246697
0.372474
0.50712
0.635875
0.744548
0.835564
0.90123
0.93759
0.953902
0.957153
0.933375
0.86579
0.83551
-0.378067
-0.348003
-0.283055
-0.198699
-0.101405
0.00270734
0.113186
0.231722
0.357619
0.492545
0.622214
0.732728
0.828748
0.89991
0.929659
0.940762
0.928558
0.873627
0.804457
0.761936
-0.433243
-0.363732
-0.29708
-0.214085
-0.116307
-0.0127077
0.0980981
0.216279
0.341806
0.476297
0.605876
0.717042
0.813867
0.89157
0.894979
0.896305
0.844838
0.773406
0.69633
0.653453
-0.394785
-0.378823
-0.318024
-0.233962
-0.138375
-0.034822
0.0749518
0.192475
0.317002
0.450069
0.577738
0.687352
0.776558
0.859366
0.844315
0.728717
0.622059
0.547893
0.473935
0.503912
-0.425432
-0.396242
-0.334551
-0.251318
-0.155751
-0.0523171
0.057718
0.174596
0.298044
0.429293
0.554157
0.659542
0.739093
0.783202
0.733267
0.582202
0.452947
0.360628
0.261388
0.310953
-0.449034
-0.416913
-0.354031
-0.270657
-0.17497
-0.071642
0.0383028
0.154338
0.276372
0.405196
0.52629
0.625423
0.696036
0.70542
0.597122
0.422723
0.268826
0.149151
0.0175277
0.0501191
-0.472112
-0.438472
-0.37442
-0.290125
-0.194364
-0.091193
0.01822
0.133281
0.253703
0.379716
0.496063
0.587338
0.642514
0.620114
0.459964
0.262426
0.0712258
-0.0973293
-0.286178
-0.304846
-0.494597
-0.460511
-0.395573
-0.310503
-0.214607
-0.111665
-0.00291006
0.111051
0.229599
0.352396
0.463277
0.54656
0.582018
0.523131
0.329425
0.117901
-0.100054
-0.289816
-0.532067
-0.829257
-0.517374
-0.483283
-0.41781
-0.332257
-0.23618
-0.133411
-0.025245
0.0875798
0.204144
0.323456
0.428571
0.50319
0.517414
0.407349
0.215828
0.00499907
-0.199997
-0.37285
-0.442675
-0.521707
-0.541396
-0.507241
-0.441472
-0.355695
-0.259571
-0.157071
-0.0495861
0.0619287
0.176189
0.291485
0.390407
0.453822
0.442925
0.299209
0.114874
-0.0769231
-0.240536
-0.334
-0.358264
-0.374148
-0.566967
-0.532685
-0.466728
-0.380892
-0.284909
-0.182852
-0.0762895
0.0336127
0.145152
0.25578
0.347993
0.397151
0.368486
0.198803
0.0234294
-0.143292
-0.270544
-0.309939
-0.322828
-0.324142
-0.594287
-0.559791
-0.493643
-0.407844
-0.312145
-0.210758
-0.105372
0.00258457
0.11097
0.216351
0.300968
0.335694
0.28724
0.106093
-0.0601648
-0.20941
-0.286219
-0.303396
-0.304704
-0.304502
-0.623416
-0.58862
-0.52224
-0.436548
-0.341292
-0.240776
-0.136837
-0.0311683
0.0736574
0.17328
0.249397
0.272221
0.187628
0.021366
-0.136389
-0.259412
-0.296417
-0.294818
-0.293915
-0.293302
-0.654068
-0.618991
-0.552414
-0.466916
-0.372263
-0.272852
-0.17065
-0.0676171
0.033257
0.126685
0.194171
0.199993
0.0968075
-0.057359
-0.196781
-0.272848
-0.283464
-0.286339
-0.287106
-0.28684
-0.685691
-0.650459
-0.58391
-0.498717
-0.40487
-0.306827
-0.20666
-0.106628
-0.0100463
0.0769283
0.135772
0.126485
0.0150262
-0.124255
-0.240799
-0.27262
-0.281152
-0.282739
-0.282616
-0.282369
-0.717815
-0.682471
-0.616276
-0.531557
-0.438769
-0.34238
-0.244588
-0.147912
-0.055971
0.0247197
0.0732805
0.0569246
-0.0605251
-0.179293
-0.271517
-0.287619
-0.28009
-0.279423
-0.279471
-0.27928
-0.749545
-0.714297
-0.648633
-0.56484
-0.473416
-0.37904
-0.283988
-0.190995
-0.10405
-0.0292846
0.00959274
-0.00626632
-0.127086
-0.22377
-0.274272
-0.284715
-0.281361
-0.279275
-0.27838
-0.278059
-0.779305
-0.74476
-0.680009
-0.597642
-0.508044
-0.416108
-0.324211
-0.235211
-0.153483
-0.0845311
-0.0489614
-0.0753292
-0.180205
-0.269325
-0.270651
-0.283376
-0.283263
-0.279194
-0.277476
-0.276746
-0.805489
-0.772028
-0.709269
-0.628771
-0.541614
-0.452656
-0.364397
-0.279727
-0.203172
-0.140174
-0.104101
-0.139908
-0.22009
-0.29943
-0.325481
-0.303303
-0.28848
-0.282071
-0.279707
-0.278548
-0.825964
-0.794233
-0.734349
-0.656803
-0.572837
-0.487536
-0.40347
-0.323534
-0.252061
-0.194919
-0.16055
-0.189618
-0.236635
-0.312428
-0.361853
-0.319567
-0.298706
-0.294263
-0.29209
-0.290505
-0.838478
-0.809461
-0.753327
-0.679853
-0.6002
-0.519417
-0.440224
-0.36544
-0.299175
-0.247509
-0.214379
-0.229802
-0.218112
-0.230975
-0.244558
-0.285188
-0.311325
-0.318451
-0.317868
-0.318124
-0.840368
-0.815424
-0.764229
-0.69608
-0.621985
-0.546857
-0.473297
-0.404188
-0.34346
-0.297242
-0.259794
-0.276098
-0.232312
-0.120904
-0.195586
-0.281424
-0.320458
-0.331365
-0.33544
-0.337644
-0.829431
-0.809352
-0.764848
-0.70385
-0.636668
-0.568314
-0.501266
-0.438397
-0.383763
-0.343182
-0.304025
-0.348029
-0.39494
-0.349439
-0.374508
-0.392511
-0.387712
-0.383462
-0.382795
-0.383167
-0.80364
-0.78854
-0.75335
-0.701872
-0.643181
-0.582664
-0.522813
-0.466431
-0.418251
-0.383874
-0.354829
-0.446272
-0.652947
-0.977371
-0.878802
-0.623144
-0.485488
-0.433059
-0.417416
-0.412845
-0.765472
-0.755741
-0.730473
-0.690253
-0.641412
-0.589514
-0.536952
-0.486831
-0.44392
-0.416686
-0.400818
-0.44786
-0.501516
-0.653408
-0.624275
-0.438723
-0.340362
-0.306851
-0.294437
-0.289183
-0.721555
-0.716055
-0.700989
-0.671693
-0.633195
-0.589451
-0.543679
-0.498493
-0.458475
-0.430575
-0.410341
-0.297988
-0.0394677
0.286039
0.378304
0.20324
0.0101028
-0.0883358
-0.113322
-0.113727
-0.681565
-0.67826
-0.671003
-0.651545
-0.621423
-0.584504
-0.544066
-0.501691
-0.461244
-0.428359
-0.409279
-0.290794
-0.108497
0.140563
0.0906867
-0.190732
-0.32507
-0.322345
-0.295967
-0.310533
-0.652181
-0.650096
-0.646339
-0.634262
-0.610395
-0.578124
-0.540319
-0.498525
-0.454459
-0.417498
-0.396333
-0.417286
-0.631296
-1.16202
-1.6896
-1.96415
-1.97934
-1.78171
-1.59372
-1.48414
-0.629533
-0.628701
-0.627426
-0.621401
-0.602993
-0.573076
-0.535186
-0.490747
-0.442516
-0.389914
-0.353906
-0.388437
-0.670021
-1.05976
-1.4733
-1.59718
-1.43672
-1.14828
-0.934601
-0.834895
-0.616415
-0.616099
-0.615492
-0.612746
-0.599269
-0.570231
-0.529803
-0.481514
-0.424019
-0.354026
-0.29044
-0.21543
-0.188314
-0.149845
-0.0567616
0.0934901
0.382039
0.619269
0.751614
0.7978
-0.607653
-0.607383
-0.606615
-0.605572
-0.59755
-0.570065
-0.526742
-0.472509
-0.405943
-0.326631
-0.22364
-0.0960553
0.0859234
0.418795
0.837726
1.27387
1.62322
1.83911
1.93473
1.95976
-0.603632
-0.603278
-0.6024
-0.601925
-0.598144
-0.573727
-0.526698
-0.466095
-0.392822
-0.297481
-0.178562
-0.0579161
0.185114
0.614377
1.11133
1.56103
1.89545
2.07939
2.15118
2.16715
-0.603316
-0.603814
-0.605335
-0.607503
-0.60648
-0.581015
-0.530329
-0.465491
-0.384838
-0.282881
-0.165381
-0.0400064
0.141483
0.547994
0.977098
1.35866
1.62742
1.76843
1.82059
1.83129
-0.599319
-0.600486
-0.603221
-0.606778
-0.606245
-0.582894
-0.536516
-0.471172
-0.385997
-0.281744
-0.167489
-0.0516708
0.084552
0.397306
0.725113
1.00422
1.19893
1.29737
1.33188
1.33829
-0.60754
-0.606118
-0.595209
-0.57389
-0.559184
-0.56583
-0.546447
-0.483413
-0.394228
-0.288631
-0.182041
-0.0778788
0.0271246
0.242918
0.471685
0.654665
0.779244
0.838425
0.859002
0.863132
-0.65607
-0.650771
-0.633602
-0.60479
-0.591097
-0.602128
-0.583152
-0.506763
-0.406877
-0.297795
-0.199313
-0.112404
-0.0292331
0.119797
0.262464
0.366266
0.430844
0.460616
0.47527
0.479238
-0.760977
-0.768177
-0.791289
-0.82013
-0.815172
-0.780704
-0.6748
-0.543001
-0.41722
-0.30542
-0.218461
-0.150828
-0.0909189
0.0137505
0.110476
0.172405
0.205367
0.221565
0.232182
0.235997
-0.88568
-0.909364
-0.954851
-0.986398
-0.978767
-0.914944
-0.744088
-0.564613
-0.418866
-0.305532
-0.229126
-0.181155
-0.142551
-0.0579567
0.0150878
0.0639091
0.0911714
0.107007
0.115937
0.118973
-0.877626
-0.897787
-0.934993
-0.962484
-0.954541
-0.878544
-0.703859
-0.53117
-0.391671
-0.28883
-0.226052
-0.194483
-0.171788
-0.0945931
-0.0282786
0.0182321
0.0535786
0.0716482
0.0791515
0.0801003
-0.656765
-0.67817
-0.714687
-0.748395
-0.74894
-0.677634
-0.55092
-0.429497
-0.328748
-0.251151
-0.203232
-0.184057
-0.164297
-0.100268
-0.0444645
-0.00362865
0.0262218
0.0426365
0.0485007
0.049093
-0.311218
-0.323845
-0.348092
-0.37769
-0.394716
-0.380383
-0.341863
-0.291812
-0.243182
-0.197399
-0.163799
-0.144323
-0.121765
-0.0749629
-0.0351232
-0.00494688
0.0178034
0.0308462
0.0360252
0.0356814
-0.0193658
-0.0253101
-0.0413289
-0.0690122
-0.104507
-0.135321
-0.154842
-0.161768
-0.155269
-0.137463
-0.115155
-0.090521
-0.0619999
-0.0377347
-0.0169572
0.000184968
0.0131584
0.0214893
0.0241249
0.0233924
0.1373
0.134042
0.122807
0.0977097
0.0574968
0.00904493
-0.0341454
-0.0658185
-0.0821083
-0.082236
-0.0675186
-0.04369
-0.0186798
-0.0086854
-0.0016921
0.00690525
0.014758
0.0199663
0.0212248
0.0199837
0.183975
0.182206
0.174204
0.154288
0.119999
0.0763764
0.0323758
-0.00501919
-0.0299808
-0.0389722
-0.0302661
-0.0113988
0.00446056
0.00559335
0.00640863
0.0100692
0.0153865
0.017553
0.0171818
0.0155177
0.177677
0.176449
0.170893
0.156809
0.132023
0.0991096
0.0628874
0.0292385
0.00351218
-0.00937628
-0.00616164
0.00476627
0.0110401
0.00657658
0.0043136
0.00360441
0.00394043
0.0021038
0.000423357
-0.000832088
0.152224
0.151447
0.147823
0.138496
0.121659
0.0983381
0.0709495
0.0438119
0.0211725
0.00786823
0.00781408
0.0132693
0.013388
0.00402635
-0.00247746
-0.0077664
-0.0128731
-0.0177092
-0.0205479
-0.0212175
0.122857
0.12241
0.120128
0.114115
0.102958
0.0868795
0.0669803
0.0459643
0.0270827
0.0147143
0.0138375
0.01974
0.0186925
0.00644987
-0.00654133
-0.0162406
-0.0244421
-0.0312731
-0.0337637
-0.0340861
0.0951297
0.0948506
0.0934537
0.0895956
0.0822242
0.0711811
0.056819
0.0406028
0.0247137
0.0124116
0.00986276
0.0171083
0.0204929
0.00260856
-0.0130806
-0.0236007
-0.0315657
-0.0362163
-0.0376934
-0.0380769
0.0708795
0.0707002
0.0697748
0.0672891
0.0623528
0.0546536
0.0440626
0.0311581
0.0168254
0.00251697
-0.0069685
-0.00721434
-0.00642167
-0.0214684
-0.0318443
-0.0366307
-0.0396057
-0.0404754
-0.041032
-0.0416439
0.050374
0.0502767
0.0496657
0.04804
0.0447664
0.0393226
0.0313449
0.0206283
0.0066815
-0.0119687
-0.0350906
-0.0576426
-0.0688774
-0.0714767
-0.0654624
-0.0586578
-0.0549439
-0.0531566
-0.053055
-0.0536336
0.0335443
0.0334733
0.0330689
0.0320676
0.0299328
0.0261679
0.0201512
0.0112962
-0.00237188
-0.0247999
-0.0630792
-0.115997
-0.142199
-0.126383
-0.100344
-0.0830912
-0.0747548
-0.0722454
-0.0715074
-0.071641
0.0201382
0.0200891
0.0198636
0.019303
0.0180538
0.0156659
0.0116069
0.00498207
-0.00669048
-0.0293408
-0.0732999
-0.140956
-0.16897
-0.138104
-0.10663
-0.0909947
-0.0853572
-0.0839072
-0.0826542
-0.0821292
0.00968672
0.00966944
0.00959008
0.00938978
0.00887341
0.00774143
0.00540174
0.0012477
-0.00608236
-0.0215659
-0.0551662
-0.108214
-0.121922
-0.0961452
-0.0761131
-0.0703676
-0.0701731
-0.0700208
-0.0684059
-0.0674313
0.0014305
0.00146032
0.00143985
0.0015268
0.00181715
0.00197982
0.00182623
0.00127271
0.000295472
-0.00169096
-0.00734047
-0.0203131
-0.0278888
-0.0254829
-0.0274695
-0.0276597
-0.0263981
-0.0233428
-0.0206106
-0.0190135
-0.0584273
0.108163
0.302504
0.472087
0.6074
0.713731
0.801533
0.876325
0.910504
0.887249
0.243176
0.363579
0.493066
0.604881
0.699018
0.776827
0.83982
0.884574
0.90698
0.919112
0.461253
0.5438
0.632281
0.710356
0.777467
0.833608
0.878271
0.910923
0.934557
0.952576
0.621539
0.680633
0.741982
0.798889
0.84835
0.890365
0.924893
0.952459
0.975195
0.993518
0.746604
0.789566
0.835396
0.879059
0.917645
0.951359
0.98023
1.00428
1.02463
1.04248
0.850689
0.883476
0.9215
0.956956
0.989514
1.01871
1.04423
1.0657
1.08353
1.10088
0.943089
0.971732
1.00564
1.03773
1.06763
1.09478
1.1185
1.1382
1.15369
1.17077
1.03159
1.06076
1.09473
1.12675
1.15632
1.18289
1.20574
1.22422
1.23758
1.25461
1.12685
1.16004
1.19666
1.23022
1.26025
1.28642
1.30837
1.32564
1.3375
1.3549
1.24181
1.27963
1.31826
1.35249
1.38183
1.40657
1.42693
1.44282
1.45428
1.47235
1.38673
1.42527
1.4614
1.49208
1.51775
1.53984
1.5589
1.57442
1.58685
1.60484
1.5618
1.59342
1.61959
1.64203
1.66201
1.68072
1.69844
1.71491
1.73026
1.74833
1.7504
1.7676
1.78264
1.79886
1.81477
1.8293
1.8425
1.85643
1.87397
1.89412
1.93212
1.94165
1.95319
1.964
1.97329
1.98287
1.99365
2.00502
2.01638
2.03173
2.13935
2.14301
2.12807
2.11326
2.10698
2.11265
2.13113
2.16144
2.19362
2.22027
2.44567
2.31081
2.23417
2.19178
2.17436
2.17832
2.20572
2.26214
2.36475
2.58912
0.754733
0.752605
0.748122
0.739499
0.727276
0.71515
0.704925
0.697037
0.691429
0.688188
0.687849
0.690602
0.695718
0.702949
0.712342
0.723885
0.736538
0.747574
0.753686
0.756741
0.679183
0.68503
0.691364
0.695858
0.69833
0.698008
0.695275
0.691471
0.687971
0.685725
0.685595
0.687808
0.691483
0.69578
0.699592
0.701479
0.700545
0.697065
0.691903
0.685282
0.670751
0.673047
0.676452
0.679449
0.681526
0.683025
0.683785
0.683476
0.682461
0.681593
0.681786
0.68323
0.685057
0.686371
0.686557
0.68567
0.684124
0.68179
0.678528
0.675608
0.66523
0.666316
0.66815
0.670529
0.672555
0.673986
0.675012
0.675771
0.676185
0.676424
0.676935
0.67776
0.67837
0.678446
0.67804
0.677196
0.675729
0.673648
0.671563
0.670181
0.660014
0.660677
0.661785
0.663491
0.665275
0.66691
0.668212
0.669236
0.670132
0.670941
0.671693
0.672265
0.672472
0.672316
0.671756
0.670706
0.669282
0.667741
0.666425
0.665646
0.655022
0.655482
0.656268
0.657568
0.659057
0.660578
0.662049
0.663356
0.664507
0.665584
0.666524
0.667115
0.667277
0.667014
0.666325
0.665342
0.664221
0.663092
0.662179
0.661662
0.650172
0.650516
0.651128
0.652197
0.653493
0.654871
0.656316
0.657772
0.659162
0.660465
0.661605
0.662322
0.662519
0.662257
0.661668
0.660899
0.660054
0.659191
0.658522
0.658144
0.645412
0.645679
0.646173
0.647082
0.648254
0.649555
0.650956
0.652456
0.654014
0.65556
0.656941
0.657841
0.658165
0.658061
0.65768
0.65713
0.656489
0.655855
0.655366
0.655078
0.640658
0.64087
0.641281
0.64208
0.643172
0.644424
0.645817
0.647364
0.649055
0.65084
0.65251
0.653673
0.654238
0.654376
0.654226
0.653896
0.653462
0.653021
0.652672
0.652447
0.635823
0.635994
0.636345
0.637072
0.638117
0.639349
0.640769
0.642401
0.64425
0.646291
0.648306
0.649827
0.650716
0.651141
0.651244
0.651145
0.650924
0.650655
0.650422
0.650243
0.630818
0.630956
0.631266
0.631948
0.632977
0.634232
0.63572
0.637478
0.639538
0.641891
0.644328
0.646295
0.647572
0.648332
0.648722
0.648868
0.648857
0.648756
0.648622
0.648478
0.625553
0.625665
0.625947
0.626609
0.627656
0.628982
0.63058
0.632519
0.634857
0.637606
0.640562
0.643065
0.644802
0.645948
0.646663
0.647075
0.647281
0.647351
0.647303
0.647186
0.619934
0.620022
0.620288
0.620955
0.622057
0.623494
0.625258
0.627445
0.63014
0.633389
0.636983
0.64013
0.642409
0.644003
0.645083
0.64581
0.64626
0.646487
0.646515
0.646419
0.61385
0.613918
0.614177
0.614872
0.616066
0.617661
0.619655
0.622171
0.62532
0.629194
0.633566
0.637487
0.640411
0.642531
0.644032
0.645106
0.645825
0.646225
0.646326
0.646247
0.607174
0.607221
0.607482
0.608228
0.609554
0.611364
0.613661
0.616596
0.620322
0.624968
0.630287
0.635139
0.63883
0.641571
0.643566
0.645029
0.64606
0.646646
0.646818
0.646752
0.59975
0.59978
0.600046
0.600865
0.602368
0.604458
0.607143
0.610612
0.615058
0.620654
0.627124
0.633093
0.637695
0.641166
0.643748
0.645677
0.647059
0.647844
0.648088
0.648033
0.591383
0.591399
0.591669
0.592584
0.594323
0.596758
0.599942
0.604087
0.609433
0.616197
0.624062
0.631366
0.637048
0.64138
0.644653
0.64714
0.64892
0.649925
0.65024
0.650192
0.581767
0.581753
0.582082
0.58314
0.585161
0.588053
0.591873
0.596869
0.603338
0.611542
0.621094
0.629986
0.636941
0.642286
0.646369
0.649509
0.65175
0.652996
0.653383
0.65334
0.57061
0.570571
0.570945
0.572197
0.574591
0.57807
0.5827
0.588775
0.596653
0.606631
0.618219
0.62899
0.637433
0.643964
0.649
0.652887
0.65566
0.657164
0.657621
0.657578
0.55743
0.557365
0.557818
0.559323
0.562202
0.566449
0.572127
0.579587
0.589241
0.601405
0.615436
0.628418
0.638588
0.646486
0.65263
0.657381
0.660746
0.662519
0.663039
0.66299
0.541579
0.541485
0.542063
0.54392
0.547451
0.552724
0.559793
0.569063
0.580982
0.595846
0.612792
0.628341
0.640482
0.649933
0.657342
0.663064
0.667076
0.669116
0.669684
0.669624
0.522119
0.521998
0.522778
0.52515
0.529598
0.536296
0.545266
0.556947
0.571781
0.589976
0.610366
0.628844
0.643202
0.654383
0.663177
0.669988
0.674671
0.676952
0.677545
0.677466
0.497632
0.497494
0.498608
0.50178
0.507615
0.516401
0.528066
0.543029
0.561627
0.583895
0.608292
0.630047
0.646826
0.659895
0.670174
0.678156
0.68348
0.685942
0.686523
0.686416
0.465812
0.465696
0.467421
0.471978
0.480115
0.492147
0.507763
0.527228
0.55064
0.577803
0.60676
0.632092
0.651439
0.666497
0.678351
0.68749
0.693348
0.695883
0.696406
0.696266
0.422508
0.422554
0.425623
0.433062
0.445465
0.462794
0.48426
0.509792
0.539202
0.572073
0.606061
0.635156
0.657139
0.674206
0.68761
0.69783
0.703996
0.706439
0.706854
0.70668
0.359953
0.361155
0.368654
0.382525
0.402719
0.42847
0.45817
0.491427
0.527936
0.567175
0.606476
0.639389
0.663963
0.682964
0.69779
0.708791
0.71498
0.717094
0.717341
0.717144
0.285783
0.287543
0.301893
0.325707
0.356819
0.392519
0.431204
0.472696
0.516805
0.563048
0.608492
0.646112
0.674022
0.695461
0.711972
0.723734
0.729767
0.731617
0.731827
0.731724
0.209258
0.215438
0.236629
0.270676
0.312184
0.357534
0.405164
0.454939
0.50674
0.560115
0.611881
0.654351
0.685679
0.709644
0.728037
0.740304
0.745781
0.747162
0.747302
0.747269
0.146658
0.155141
0.180894
0.221949
0.271604
0.325192
0.380893
0.438429
0.497574
0.557808
0.615632
0.662683
0.697187
0.723384
0.743013
0.75556
0.760932
0.762147
0.762299
0.762322
0.0957445
0.104824
0.134122
0.180411
0.236218
0.296448
0.358974
0.423359
0.489204
0.555868
0.619449
0.670853
0.70833
0.736601
0.757582
0.770634
0.775826
0.777232
0.777481
0.777546
0.053142
0.062502
0.0942471
0.14453
0.205385
0.271126
0.339442
0.409826
0.481716
0.554323
0.623322
0.678874
0.719208
0.749523
0.771849
0.785478
0.791063
0.792697
0.792968
0.793058
0.0164878
0.0259572
0.0595383
0.113022
0.178053
0.248498
0.321867
0.397566
0.474923
0.553021
0.627131
0.686648
0.729743
0.762035
0.785672
0.800204
0.806252
0.808044
0.808341
0.80842
-0.0158915
-0.00638779
0.0286023
0.0847889
0.153318
0.227817
0.305654
0.386136
0.468514
0.551745
0.630708
0.694023
0.739773
0.773954
0.798883
0.814217
0.820785
0.822751
0.823064
0.823131
-0.0452801
-0.0357385
0.000407667
0.0589263
0.130454
0.208504
0.290317
0.375146
0.462164
0.550229
0.633828
0.700801
0.749093
0.785051
0.8112
0.827282
0.834363
0.836455
0.836775
0.836809
-0.0725566
-0.0629704
-0.0258128
0.0347214
0.10892
0.190115
0.275485
0.364268
0.45559
0.548235
0.636322
0.706857
0.7576
0.795244
0.82247
0.839168
0.846684
0.848894
0.849215
0.849227
-0.0982872
-0.0886422
-0.0505352
0.0117006
0.0883059
0.172305
0.260877
0.35327
0.448596
0.545602
0.638066
0.712124
0.765263
0.804508
0.83269
0.849865
0.857612
0.859926
0.860247
0.860232
-0.122971
-0.113174
-0.0742126
-0.0104158
0.068335
0.154836
0.246302
0.341993
0.441048
0.542208
0.638966
0.716571
0.772115
0.812888
0.841928
0.85946
0.867302
0.869612
0.869933
0.869892
-0.146861
-0.13685
-0.0971471
-0.0318313
0.0488237
0.137557
0.231632
0.330334
0.432845
0.537965
0.638961
0.72018
0.778211
0.820522
0.850308
0.868037
0.875866
0.878143
0.878435
0.878374
-0.170069
-0.159854
-0.119384
-0.0526939
0.0296549
0.12039
0.216803
0.318234
0.423937
0.532807
0.637994
0.722953
0.783615
0.827542
0.858009
0.875815
0.883523
0.885707
0.885949
0.885861
-0.192767
-0.182257
-0.141041
-0.0730862
0.0107743
0.103291
0.20179
0.305682
0.41431
0.526708
0.636009
0.724864
0.788397
0.834105
0.865234
0.882952
0.890408
0.892428
0.892605
0.892495
-0.214913
-0.204135
-0.162201
-0.0930549
-0.00782918
0.0862657
0.18662
0.292705
0.403977
0.519649
0.63296
0.725865
0.7926
0.840351
0.872163
0.889622
0.896627
0.898386
0.898467
0.898332
-0.236574
-0.225497
-0.182798
-0.112588
-0.0261416
0.0693408
0.171325
0.279354
0.392985
0.511647
0.628803
0.725885
0.796205
0.846394
0.879046
0.896058
0.902303
0.903635
0.903598
0.903449
-0.257586
-0.24628
-0.20283
-0.131648
-0.0441224
0.0525822
0.155968
0.265693
0.381399
0.502752
0.623509
0.72484
0.799138
0.852292
0.886165
0.90266
0.907748
0.908317
0.908074
0.907926
-0.278089
-0.266444
-0.222289
-0.150223
-0.0617433
0.0360249
0.140635
0.2518
0.369303
0.493038
0.617081
0.722622
0.801253
0.85798
0.893755
0.91003
0.913627
0.912769
0.911984
0.91184
-0.297923
-0.285968
-0.241147
-0.16827
-0.0789293
0.0197508
0.125405
0.237793
0.356803
0.482564
0.609552
0.719122
0.802346
0.863241
0.901793
0.918826
0.921271
0.918219
0.915807
0.914941
-0.317149
-0.304897
-0.259355
-0.18574
-0.0956467
0.00382691
0.110361
0.223748
0.344008
0.471463
0.600987
0.714232
0.802174
0.867686
0.909778
0.929161
0.932229
0.927671
0.921215
0.912971
-0.335686
-0.323188
-0.277004
-0.20279
-0.112101
-0.0120138
0.0951741
0.209277
0.330483
0.459251
0.590872
0.707417
0.800266
0.870995
0.917085
0.94039
0.94688
0.942406
0.931874
0.926815
-0.353488
-0.340766
-0.29408
-0.219392
-0.128301
-0.0277653
0.0798573
0.19436
0.316181
0.445804
0.579003
0.69828
0.795825
0.872378
0.921737
0.948281
0.957103
0.956277
0.918354
0.866538
-0.370268
-0.356851
-0.310434
-0.235476
-0.144348
-0.0435852
0.0643549
0.17911
0.301152