/*--------------------------------*- C++ -*----------------------------------*\
  =========                 |
  \\      /  F ield         | OpenFOAM: The Open Source CFD Toolbox
   \\    /   O peration     | Website:  https://openfoam.org
    \\  /    A nd           | Version:  10
     \\/     M anipulation  |
\*---------------------------------------------------------------------------*/
FoamFile
{
    format      ascii;
    class       surfaceScalarField;
    location    "61";
    object      phi;
}
// * * * * * * * * * * * * * * * * * * * * * * * * * * * * * * * * * * * * * //

dimensions      [0 3 -1 0 0 0 0];

internalField   nonuniform List<scalar> 
17370
(
-0.0916065
0.0960093
0.284608
-0.0775946
0.0594199
0.36495
-0.0430423
0.0316228
0.427588
-0.0223193
0.0162671
0.505304
-0.0116744
0.00880107
0.602276
-0.00659043
0.00510591
0.720542
-0.00386928
0.00298902
0.863787
-0.0022159
0.00163735
1.03603
-0.00110532
0.000683827
1.24292
-0.000272147
-0.00012216
1.49159
0.000510929
-0.00092515
1.49161
0.00132997
-0.00183487
1.2432
0.00238528
-0.0031278
1.03638
0.00398432
-0.00520217
0.864124
0.00667556
-0.00887678
0.721259
0.01174
-0.0163178
0.603792
0.0223545
-0.0316412
0.508726
0.0430423
-0.059409
0.432535
0.0775878
-0.0960031
0.365191
0.0916211
0.19739
-0.127092
0.0880234
0.0390682
-0.364356
0.354031
-0.0714747
0.0818002
-0.446654
0.454255
-0.0791691
0.0715679
-0.521011
0.529111
-0.0637145
0.0556153
-0.612991
0.620761
-0.0482279
0.0404585
-0.727165
0.733685
-0.0338469
0.0273265
-0.867582
0.872434
-0.0221225
0.0172697
-1.03857
1.04191
-0.0135701
0.0102292
-1.24472
1.24713
-0.00767659
0.00526828
-1.49284
1.49486
-0.00330162
0.0012843
-1.49269
1.49452
0.000537256
-0.00235948
-1.24411
1.24602
0.00433468
-0.0062474
-1.03761
1.04009
0.00858376
-0.0110628
-0.866186
0.869812
0.0143199
-0.0179461
-0.724594
0.729745
0.0227292
-0.0278808
-0.609063
0.615632
0.0343522
-0.0409204
-0.515122
0.522457
0.0486393
-0.0559741
-0.43988
0.447656
0.0639952
-0.071772
-0.374706
0.377355
0.0792648
-0.081914
-0.256895
0.224433
0.0715637
-0.0391011
-0.0688124
0.0592015
0.00961091
-0.0521025
0.0589275
-0.374839
0.368014
-0.0580787
0.0542357
-0.453948
0.457791
-0.0487482
0.0441884
-0.52762
0.532179
-0.0396384
0.0357425
-0.620805
0.624701
-0.0315293
0.027533
-0.734664
0.73866
-0.0231739
0.0192838
-0.87396
0.87785
-0.015235
0.0117743
-1.04337
1.04683
-0.00825054
0.00521395
-1.24865
1.25169
-0.00200217
-0.000982547
-1.49695
1.49993
0.00394508
-0.00709578
-1.49742
1.50057
0.0100424
-0.0134437
-1.25006
1.25346
0.0167792
-0.0206846
-1.04564
1.04955
0.024448
-0.0286812
-0.877131
0.881365
0.0325762
-0.0366904
-0.738977
0.743091
0.0405049
-0.0449749
-0.625965
0.630435
0.0494677
-0.0548895
-0.535011
0.540433
0.0586561
-0.0594143
-0.458071
0.458829
0.0524635
-0.0320703
-0.336756
0.316363
0.00967525
-0.0686575
0.0589822
-0.0534136
0.0493034
0.00411021
-0.0332345
0.0436541
-0.358571
0.348151
-0.0473265
0.0467375
-0.459586
0.460175
-0.0438072
0.0405933
-0.536139
0.539353
-0.0369152
0.0335595
-0.628404
0.63176
-0.0299241
0.0266807
-0.742044
0.745287
-0.0232241
0.0200226
-0.881347
0.884549
-0.0164246
0.0130681
-1.05026
1.05361
-0.00936367
0.00595421
-1.25495
1.25836
-0.00215851
-0.00146165
-1.50328
1.5069
0.00505002
-0.00875357
-1.50406
1.50777
0.0120373
-0.0155699
-1.25702
1.26055
0.0187501
-0.0221444
-1.05325
1.05665
0.0251648
-0.0284404
-0.88497
0.888246
0.0315379
-0.0350304
-0.746771
0.750263
0.0382658
-0.041819
-0.634551
0.638104
0.0449246
-0.0477331
-0.544572
0.54738
0.0481957
-0.0443475
-0.45694
0.453091
0.0337122
-0.0163884
-0.297037
0.279714
0.00418131
-0.0531299
0.0489486
-0.0461357
0.0435819
0.0025538
-0.023035
0.033378
-0.337565
0.327222
-0.0391058
0.0400507
-0.459929
0.458984
-0.038796
0.0364655
-0.542013
0.544343
-0.0338209
0.0312721
-0.634732
0.637281
-0.0282919
0.02544
-0.748377
0.751229
-0.022197
0.0191778
-0.887609
0.890628
-0.0158207
0.0126808
-1.05679
1.05993
-0.0091175
0.00571185
-1.26176
1.26517
-0.00179623
-0.00200471
-1.51064
1.51444
0.00576473
-0.00955631
-1.51154
1.51533
0.0127953
-0.0161325
-1.264
1.26734
0.0190407
-0.022131
-1.05985
1.06294
0.0249104
-0.0279097
-0.891436
0.894436
0.0305615
-0.0333444
-0.753437
0.75622
0.0357286
-0.0382067
-0.641051
0.643529
0.0403945
-0.0414613
-0.549209
0.550276
0.0403205
-0.0343063
-0.447958
0.441944
0.0236485
-0.0103866
-0.264514
0.251252
0.00264201
-0.0457013
0.0430593
-0.0414656
0.0396675
0.00179814
-0.0169286
0.0262046
-0.317362
0.308086
-0.0327913
0.0349048
-0.457429
0.455315
-0.0344642
0.0327606
-0.546378
0.548081
-0.0305275
0.0283943
-0.639598
0.641732
-0.0259502
0.0235651
-0.753836
0.756221
-0.0207422
0.017988
-0.893491
0.896245
-0.0147951
0.0117526
-1.06298
1.06602
-0.00827943
0.00495718
-1.26849
1.27181
-0.00111187
-0.0026387
-1.5182
1.52195
0.0063366
-0.0100254
-1.51907
1.52276
0.0131362
-0.0163232
-1.27061
1.27379
0.0190718
-0.0219237
-1.06596
1.06881
0.0243682
-0.026875
-0.897213
0.89972
0.0290014
-0.0311917
-0.758654
0.760844
0.0331149
-0.0351329
-0.645748
0.647766
0.0366285
-0.0368124
-0.550848
0.551032
0.0343979
-0.0273923
-0.435338
0.428332
0.0176944
-0.00748946
-0.23966
0.229455
0.00190606
-0.0408457
0.0389396
-0.0381203
0.0367714
0.00134893
-0.0129263
0.0209133
-0.299457
0.29147
-0.027668
0.0305803
-0.45277
0.449858
-0.0307785
0.0296466
-0.549526
0.550658
-0.02764
0.0257061
-0.643797
0.645731
-0.0234851
0.0213347
-0.758472
0.760622
-0.0188161
0.0163378
-0.898803
0.901281
-0.013407
0.0105421
-1.06893
1.07179
-0.00720291
0.00397885
-1.27505
1.27828
-0.00023943
-0.00339457
-1.52562
1.52926
0.00696297
-0.010506
-1.52637
1.52991
0.0134663
-0.0164479
-1.2769
1.27988
0.0189444
-0.0214468
-1.07153
1.07403
0.0235374
-0.02566
-0.902025
0.904148
0.027484
-0.0293822
-0.762878
0.764776
0.0310501
-0.0327989
-0.649626
0.651374
0.0336263
-0.03307
-0.550847
0.550291
0.0297273
-0.0223988
-0.421107
0.413779
0.0138702
-0.00579133
-0.220414
0.212335
0.00148058
-0.0372735
0.035793
-0.0355935
0.0345554
0.00103804
-0.0100982
0.0168579
-0.28412
0.277361
-0.0233603
0.0267332
-0.446694
0.443321
-0.0275072
0.0268068
-0.551567
0.552267
-0.0250328
0.0232417
-0.647633
0.649424
-0.02117
0.0191545
-0.762705
0.76472
-0.0167827
0.0144549
-0.90362
0.905948
-0.0117163
0.00903105
-1.0745
1.07719
-0.00587224
0.00279013
-1.28139
1.28447
0.000807182
-0.00430387
-1.5328
1.53629
0.00771872
-0.0110734
-1.53335
1.53671
0.0138288
-0.0165454
-1.28274
1.28546
0.0187769
-0.0209867
-1.07642
1.07863
0.0228344
-0.024715
-0.906163
0.908043
0.0263262
-0.0279983
-0.766555
0.768227
0.0294605
-0.0308797
-0.652975
0.654394
0.031201
-0.0299185
-0.549385
0.548103
0.0259525
-0.0186951
-0.40646
0.399203
0.0112552
-0.00466718
-0.205072
0.198484
0.00119825
-0.0344705
0.0332723
-0.0336437
0.0328356
0.000808102
-0.00800235
0.0136868
-0.271167
0.265482
-0.0197111
0.0232881
-0.439835
0.436258
-0.0245443
0.0240924
-0.552874
0.553326
-0.0225916
0.020911
-0.65121
0.652891
-0.0189366
0.0170118
-0.766689
0.768614
-0.0147421
0.0125106
-0.908163
0.910395
-0.00988153
0.00731125
-1.07974
1.08231
-0.00429949
0.001359
-1.28743
1.29037
0.0020732
-0.00540473
-1.53968
1.54301
0.00863762
-0.0117738
-1.53994
1.54307
0.0143137
-0.0167872
-1.28806
1.29053
0.0188033
-0.0207835
-1.08077
1.08275
0.0224237
-0.0240878
-0.909837
0.911501
0.0255144
-0.026996
-0.769799
0.77128
0.0282668
-0.0293087
-0.655602
0.656644
0.0292587
-0.0273077
-0.546491
0.544541
0.022938
-0.0159452
-0.392075
0.385082
0.0094163
-0.00388946
-0.192478
0.186952
0.00100284
-0.032185
0.0311821
-0.0321252
0.0314946
0.000630632
-0.00638853
0.011154
-0.260284
0.255519
-0.0165926
0.020176
-0.432676
0.429092
-0.0217608
0.0215367
-0.553699
0.553923
-0.0202708
0.018653
-0.654588
0.656206
-0.0167359
0.014862
-0.770509
0.772383
-0.0126539
0.0104852
-0.912522
0.91469
-0.00793202
0.00543899
-1.08476
1.08726
-0.00252552
-0.000297592
-1.2932
1.29602
0.0035823
-0.00674498
-1.54622
1.54939
0.0097852
-0.0127038
-1.54608
1.549
0.0150449
-0.0173019
-1.29291
1.29516
0.0191187
-0.0208791
-1.08469
1.08645
0.0223247
-0.0237926
-0.913091
0.914559
0.0250568
-0.0263688
-0.772671
0.773983
0.0274956
-0.0281223
-0.657465
0.658092
0.0277034
-0.0251926
-0.542327
0.539816
0.0205781
-0.0139194
-0.378268
0.371609
0.0081128
-0.00334592
-0.181845
0.177078
0.000866991
-0.0302583
0.0293913
-0.0309433
0.0304561
0.000487192
-0.00509169
0.009065
-0.251175
0.247201
-0.0138722
0.0173128
-0.425586
0.422146
-0.0190863
0.0190558
-0.554091
0.554121
-0.0179899
0.0164083
-0.65787
0.659451
-0.0145169
0.0126614
-0.774241
0.776096
-0.0104756
0.00833398
-0.916761
0.918903
-0.00582183
0.00337934
-1.08964
1.09208
-0.000537774
-0.0022064
-1.29874
1.30148
0.00536538
-0.00837667
-1.55243
1.55544
0.0112398
-0.0139573
-1.55179
1.5545
0.0161116
-0.0181615
-1.29733
1.29938
0.0197873
-0.0213368
-1.08818
1.08973
0.0225968
-0.0238811
-0.915962
0.917247
0.0249959
-0.0261499
-0.775206
0.77636
0.0270894
-0.0273372
-0.658519
0.658767
0.0265238
-0.0235397
-0.537085
0.534101
0.0187801
-0.01245
-0.365134
0.358804
0.00719614
-0.00297056
-0.172615
0.168389
0.000774768
-0.0285807
0.0278059
-0.0300362
0.0296701
0.000366107
-0.00400698
0.00728488
-0.243598
0.24032
-0.0114485
0.014636
-0.418844
0.415656
-0.0164724
0.0165989
-0.554121
0.553994
-0.0156203
0.0141145
-0.66107
0.662575
-0.0122219
0.0103524
-0.777947
0.779817
-0.00815072
0.00600146
-0.920952
0.923102
-0.00349403
0.00106884
-1.09442
1.09685
0.00173355
-0.00441814
-1.30413
1.30682
0.00748116
-0.0103648
-1.55834
1.56123
0.0130685
-0.0155942
-1.5571
1.55962
0.0175642
-0.0194077
-1.30133
1.30317
0.0208446
-0.0221878
-1.09127
1.09262
0.0232688
-0.0243786
-0.918476
0.919586
0.0253491
-0.0263349
-0.777422
0.778408
0.0270185
-0.0269741
-0.658887
0.658842
0.0257407
-0.0223387
-0.530925
0.527523
0.0174801
-0.0114253
-0.352638
0.346584
0.00657486
-0.00272284
-0.164381
0.160529
0.000715967
-0.0270709
0.026355
-0.0293638
0.0291055
0.000258307
-0.00305778
0.00570873
-0.237376
0.234725
-0.00922925
0.0120809
-0.412654
0.409803
-0.0138662
0.0140783
-0.553877
0.553665
-0.0131449
0.0116858
-0.66414
0.6656
-0.00976939
0.00785776
-0.781689
0.783601
-0.00560679
0.00341764
-0.925161
0.92735
-0.000877802
-0.00156433
-1.09917
1.10161
0.00436434
-0.00702047
-1.30941
1.31207
0.0100145
-0.0127926
-1.56401
1.56679
0.0153534
-0.0176994
-1.56203
1.56437
0.0194935
-0.0211374
-1.30491
1.30656
0.0223873
-0.0235194
-1.09397
1.09511
0.0244139
-0.0253445
-0.920645
0.921576
0.0261712
-0.0269837
-0.779296
0.780108
0.0273798
-0.0270667
-0.658658
0.658345
0.0253864
-0.021585
-0.523941
0.52014
0.0166303
-0.0107696
-0.340662
0.334802
0.00618962
-0.00257618
-0.156827
0.153214
0.000683658
-0.0256663
0.0249827
-0.0289036
0.0287474
0.000156143
-0.00218028
0.00424339
-0.232387
0.230324
-0.0071163
0.00956215
-0.407175
0.404729
-0.0111894
0.0114099
-0.553511
0.553291
-0.0104908
0.00904276
-0.667153
0.668601
-0.00707796
0.00509559
-0.785519
0.787502
-0.00275971
0.000497438
-0.929451
0.931713
0.00211629
-0.00460915
-1.10396
1.10646
0.00744364
-0.0101022
-1.31464
1.3173
0.0130583
-0.0157537
-1.56947
1.57216
0.0181866
-0.0203602
-1.56659
1.56877
0.0219784
-0.0234178
-1.3081
1.30953
0.0244745
-0.0253828
-1.09628
1.09718
0.0260759
-0.0268113
-0.922449
0.923184
0.0274852
-0.0281532
-0.78081
0.781478
0.0282389
-0.0275555
-0.65781
0.657126
0.0254371
-0.0212421
-0.516184
0.511989
0.0161704
-0.0104148
-0.329039
0.323284
0.00599186
-0.00250923
-0.149698
0.146216
0.000672267
-0.0243167
0.0236444
-0.0286471
0.0285941
5.29837e-05
-0.00132572
0.00281631
-0.228563
0.227073
-0.00502826
0.00700501
-0.40254
0.400564
-0.00836995
0.0085155
-0.553182
0.553037
-0.00756275
0.00608752
-0.670181
0.671656
-0.00403407
0.00194754
-0.789496
0.791582
0.000510698
-0.00288537
-0.933888
0.936263
0.00560875
-0.008188
-1.10886
1.11144
0.0110935
-0.0137861
-1.31988
1.32257
0.0167323
-0.0193615
-1.57477
1.5774
0.0216747
-0.0236779
-1.57081
1.57281
0.0251176
-0.0263465
-1.31086
1.31209
0.0271998
-0.0278732
-1.09815
1.09883
0.0283541
-0.02888
-0.923868
0.924394
0.0293913
-0.0298583
-0.781964
0.782431
0.0296552
-0.0285428
-0.656202
0.65509
0.0259478
-0.0213296
-0.507651
0.503033
0.0160882
-0.0103335
-0.317584
0.31183
0.00595996
-0.00251244
-0.142786
0.139338
0.000679407
-0.0229819
0.0223025
-0.028597
0.0286537
-5.66695e-05
-0.00044752
0.00136094
-0.225885
0.224971
-0.00288475
0.00432822
-0.398876
0.397433
-0.00532925
0.00531643
-0.553062
0.553074
-0.00427522
0.00272145
-0.673315
0.674868
-0.000548513
-0.00168031
-0.793682
0.795911
0.00430783
-0.00683295
-0.93855
0.941075
0.00971379
-0.0124216
-1.11394
1.11665
0.0154409
-0.0182011
-1.3252
1.32796
0.0211665
-0.0237482
-1.57993
1.58252
0.0259491
-0.0277778
-1.57468
1.57651
0.0290306
-0.0300411
-1.31318
1.31419
0.0306827
-0.0311127
-1.09958
1.10001
0.0313724
-0.0316735
-0.924869
0.92517
0.0319964
-0.0321909
-0.782601
0.782795
0.0317088
-0.0300584
-0.653733
0.652083
0.0269447
-0.0218564
-0.498282
0.493194
0.0163728
-0.0105066
-0.306086
0.30022
0.00607917
-0.00257892
-0.135903
0.132403
0.000703127
-0.0216258
0.0209227
-0.0287657
0.0289374
-0.000171711
0.000473678
-0.000169947
-0.224375
0.224071
-0.000615393
0.00144576
-0.39631
0.395479
-0.00197215
0.00171681
-0.553324
0.553579
-0.000528696
-0.00117175
-0.676663
0.678364
0.0035198
-0.00593709
-0.798161
0.800578
0.00878328
-0.0115072
-0.943517
0.946241
0.0145966
-0.0174765
-1.11929
1.12217
0.0206529
-0.0235153
-1.33065
1.33352
0.0265299
-0.0290809
-1.58501
1.58756
0.0311728
-0.0328178
-1.57819
1.57984
0.0338713
-0.0346399
-1.31504
1.31581
0.035053
-0.0352257
-1.10052
1.10069
0.0352503
-0.0353098
-0.92541
0.925469
0.0354342
-0.0352809
-0.782607
0.782454
0.0344338
-0.0321771
-0.650238
0.647981
0.02848
-0.0228435
-0.487964
0.482327
0.0170226
-0.0109224
-0.294313
0.288213
0.00633873
-0.00270304
-0.128877
0.125241
0.000741683
-0.0202159
0.0194742
-0.0291899
0.0295044
-0.000314519
0.00147711
-0.00181719
-0.224119
0.224459
0.00187604
-0.00176836
-0.394967
0.394859
0.00184729
-0.00245674
-0.554187
0.554797
0.00387352
-0.00576855
-0.680366
0.682261
0.00835029
-0.0110093
-0.803016
0.805675
0.0141332
-0.017109
-0.948885
0.951861
0.0204626
-0.0235625
-1.12499
1.12809
0.0269424
-0.02994
-1.33632
1.33932
0.033027
-0.0355543
-1.59002
1.59255
0.0375308
-0.0389689
-1.58132
1.58276
0.0398016
-0.0403068
-1.31637
1.31688
0.0404709
-0.0403614
-1.10091
1.1008
0.0401238
-0.0399187
-0.925436
0.925231
0.0398391
-0.0392253
-0.781846
0.781233
0.0379267
-0.0349826
-0.645574
0.64263
0.0306114
-0.0243169
-0.476527
0.470233
0.0180415
-0.0115741
-0.282017
0.275549
0.00673118
-0.00288045
-0.121543
0.117692
0.000793607
-0.0187236
0.01793
-0.0298893
0.0303805
-0.000491172
0.00275976
-0.00385008
-0.225188
0.226278
0.00477516
-0.0054648
-0.395073
0.395763
0.00626056
-0.0073305
-0.55588
0.55695
0.00906008
-0.0112215
-0.684532
0.686693
0.0141143
-0.0170823
-0.80836
0.811328
0.0205561
-0.0238486
-0.954762
0.958054
0.0275343
-0.0309098
-1.13113
1.13451
0.0345434
-0.0377098
-1.34226
1.34543
0.04089
-0.0433964
-1.59498
1.59748
0.0452438
-0.0464562
-1.58402
1.58523
0.0470215
-0.0472402
-1.31714
1.31736
0.047124
-0.0466982
-1.10069
1.10026
0.0461719
-0.0456813
-0.924879
0.924388
0.0452886
-0.0442243
-0.78017
0.779106
0.0423416
-0.0385749
-0.639553
0.635786
0.0334006
-0.0263016
-0.46374
0.456641
0.0194324
-0.0124536
-0.268928
0.261949
0.0072473
-0.00310521
-0.113746
0.109604
0.000856659
-0.0171232
0.0162665
-0.0309401
0.0316519
-0.000711802
0.00425664
-0.00623741
-0.227782
0.229762
0.00822152
-0.00981847
-0.396836
0.398433
0.0114395
-0.0130885
-0.558659
0.560308
0.0152666
-0.0177899
-0.689316
0.691839
0.0210957
-0.0244559
-0.814329
0.817689
0.0283683
-0.0320533
-0.961283
0.964968
0.0361441
-0.0398499
-1.13783
1.14154
0.0437805
-0.047137
-1.34853
1.35189
0.0504095
-0.0528685
-1.59987
1.60233
0.0545432
-0.0554768
-1.58623
1.58717
0.0557335
-0.0556278
-1.31726
1.31716
0.0552049
-0.0544344
-1.09977
1.099
0.0535938
-0.0527776
-0.923677
0.922861
0.0519784
-0.0504054
-0.777588
0.776015
0.0477966
-0.0430475
-0.631909
0.62716
0.0369062
-0.0288186
-0.449298
0.44121
0.0211924
-0.0135471
-0.254753
0.247108
0.00787291
-0.00336862
-0.105335
0.10083
0.000927698
-0.0153938
0.0144661
-0.0324256
0.0334247
-0.00099908
0.00613512
-0.00917019
-0.232153
0.235189
0.0124256
-0.0150817
-0.400526
0.403182
0.0176711
-0.0200287
-0.562806
0.565163
0.0228009
-0.0258119
-0.694925
0.697936
0.029665
-0.0335239
-0.821098
0.824957
0.0379764
-0.0421336
-0.968598
0.972755
0.0467021
-0.0507871
-1.1452
1.14929
0.055045
-0.058593
-1.35518
1.35872
0.0619292
-0.0642896
-1.60464
1.607
0.0657252
-0.0663013
-1.58786
1.58843
0.0661878
-0.065686
-1.3166
1.3161
0.064917
-0.0637511
-1.09809
1.09693
0.0625542
-0.0614116
-0.921754
0.920612
0.0600845
-0.0579047
-0.773976
0.771796
0.0544219
-0.0484762
-0.622298
0.616352
0.0411558
-0.0318546
-0.432826
0.423525
0.0232884
-0.0148173
-0.239184
0.230713
0.00857824
-0.00365436
-0.0961748
0.0912509
0.0010012
-0.0135221
0.0125209
-0.0344716
0.0358677
-0.00139611
0.00859029
-0.0129756
-0.238623
0.243009
0.0177227
-0.0216186
-0.406509
0.410405
0.025349
-0.0285622
-0.568651
0.571864
0.0320986
-0.0357505
-0.701633
0.705285
0.0403082
-0.0447921
-0.82887
0.833354
0.0498994
-0.0546145
-0.97687
0.981585
0.0597294
-0.0642254
-1.15332
1.15782
0.0688072
-0.0725109
-1.36217
1.36587
0.0758388
-0.0780093
-1.60915
1.61132
0.0791048
-0.0792184
-1.5887
1.58882
0.0786567
-0.077629
-1.31503
1.314
0.0764462
-0.0748508
-1.09552
1.09392
0.0732812
-0.0717198
-0.919079
0.917518
0.0698447
-0.0669036
-0.76911
0.766169
0.0623238
-0.0549015
-0.610279
0.602857
0.0461375
-0.0353565
-0.413872
0.403091
0.0256519
-0.0162004
-0.22191
0.212459
0.00931667
-0.0039386
-0.0861628
0.0807847
0.00106957
-0.0115068
0.0104372
-0.0372778
0.0392323
-0.00195449
0.0120008
-0.0181073
-0.247714
0.25382
0.0246561
-0.0300053
-0.415283
0.420632
0.0350876
-0.0393491
-0.576583
0.580844
0.0438578
-0.0483479
-0.709764
0.714254
0.0538095
-0.0590631
-0.83789
0.843143
0.0649429
-0.0702823
-0.986266
0.991606
0.075966
-0.0808464
-1.16224
1.16712
0.0856735
-0.0894192
-1.3694
1.37314
0.0925748
-0.0943795
-1.61319
1.61499
0.0949617
-0.0944534
-1.58854
1.58803
0.0933301
-0.0916851
-1.31235
1.3107
0.0900043
-0.0879576
-1.09194
1.08989
0.0859975
-0.083868
-0.915428
0.913299
0.0814599
-0.0774962
-0.762594
0.75863
0.0715375
-0.0622885
-0.595273
0.586024
0.0517603
-0.0391972
-0.391913
0.37935
0.0281521
-0.0175894
-0.202643
0.19208
0.0100153
-0.00418626
-0.0752495
0.0694205
0.00112214
-0.00936309
0.00824095
-0.041162
0.0439865
-0.00282446
0.0169556
-0.0253196
-0.260162
0.268526
0.0341116
-0.0412175
-0.427516
0.434622
0.0479498
-0.0534827
-0.587088
0.592621
0.0592558
-0.0648486
-0.719737
0.72533
0.0714251
-0.077566
-0.848428
0.854569
0.0842673
-0.0902058
-0.996887
1.00283
0.0963623
-0.101483
-1.17183
1.17695
0.106344
-0.109901
-1.37659
1.38014
0.112602
-0.113769
-1.61635
1.61752
0.113587
-0.112234
-1.58701
1.58565
0.110378
-0.108006
-1.30837
1.306
0.105743
-0.103178
-1.08726
1.0847
0.100798
-0.0979922
-0.910451
0.907645
0.0949424
-0.089656
-0.753891
0.748604
0.0819703
-0.070467
-0.576543
0.565039
0.0578067
-0.043144
-0.366377
0.351714
0.0305776
-0.0188257
-0.181168
0.169417
0.0105727
-0.0043515
-0.0634732
0.057252
0.00114563
-0.00712833
0.0059827
-0.0467053
0.0510006
-0.00429533
0.024639
-0.0360782
-0.277126
0.288565
0.0477836
-0.0572164
-0.444238
0.453671
0.0659696
-0.0729661
-0.600777
0.607774
0.0802696
-0.0873558
-0.731935
0.739021
0.0951013
-0.102042
-0.860681
0.867621
0.109398
-0.115719
-1.0086
1.01492
0.122037
-0.127064
-1.18174
1.18677
0.13155
-0.134529
-1.38319
1.38617
0.136343
-0.13649
-1.61804
1.61818
0.135207
-0.132736
-1.58364
1.58117
0.129961
-0.126707
-1.30284
1.29959
0.123767
-0.12062
-1.08135
1.0782
0.117733
-0.114196
-0.903965
0.900429
0.110209
-0.103193
-0.742346
0.735329
0.0933245
-0.0790644
-0.553163
0.538903
0.0638885
-0.0468462
-0.336695
0.319653
0.0326412
-0.0197133
-0.157426
0.144498
0.010871
-0.00438402
-0.0510007
0.0445137
0.0011256
-0.00486554
0.00373993
-0.0549763
0.0623543
-0.00737797
0.038131
-0.0540488
-0.300756
0.316674
0.0698331
-0.0824822
-0.467097
0.479746
0.0934134
-0.101758
-0.618084
0.626429
0.11055
-0.118891
-0.746729
0.75507
0.127528
-0.134858
-0.874347
0.881678
0.142295
-0.148404
-1.02081
1.02692
0.154208
-0.158502
-1.19114
1.19544
0.161937
-0.163715
-1.38833
1.3901
0.16405
-0.162704
-1.61739
1.61605
0.159956
-0.15607
-1.57789
1.57401
0.152148
-0.14782
-1.29545
1.29112
0.144103
-0.140353
-1.074
1.07025
0.136808
-0.132436
-0.895777
0.891405
0.127061
-0.117686
-0.726981
0.717606
0.104987
-0.0873565
-0.52399
0.506359
0.069368
-0.049849
-0.302413
0.282894
0.0340541
-0.0201181
-0.131626
0.11769
0.0108558
-0.00427299
-0.038171
0.0315881
0.00105823
-0.00266633
0.0016081
-0.0692297
0.0733636
-0.00413388
0.0292149
-0.0430058
-0.335065
0.348856
0.0569846
-0.0685678
-0.497549
0.509132
0.0789078
-0.0885095
-0.638569
0.648171
0.0991831
-0.108941
-0.763017
0.772775
0.119773
-0.129418
-0.888141
0.897787
0.139674
-0.148768
-1.03208
1.04118
0.158209
-0.166235
-1.19862
1.20665
0.174101
-0.180246
-1.3907
1.39685
0.185502
-0.188642
-1.61347
1.61661
0.189636
-0.18906
-1.56908
1.56851
0.187409
-0.184964
-1.28582
1.28337
0.18286
-0.180357
-1.06502
1.06251
0.17797
-0.173709
-0.885287
0.881025
0.166222
-0.152299
-0.706388
0.692465
0.133256
-0.107857
-0.487794
0.462396
0.0832764
-0.0577767
-0.263354
0.237854
0.0382802
-0.0219232
-0.104418
0.0880606
0.0115044
-0.00440598
-0.0255287
0.0184304
0.00106694
-0.000630719
-0.000436225
-0.0805257
0.0786887
0.00183703
0.00749056
-0.0165727
-0.365453
0.374535
0.0271857
-0.0353811
-0.525399
0.533594
0.0436702
-0.0517944
-0.660308
0.668432
0.061629
-0.0707657
-0.782217
0.791354
0.0804692
-0.0893217
-0.906875
0.915727
0.0986954
-0.106662
-1.04997
1.05793
0.115106
-0.121904
-1.21446
1.22126
0.128486
-0.133305
-1.40264
1.40746
0.1368
-0.138348
-1.61887
1.62042
0.137744
-0.135541
-1.56714
1.56494
0.132262
-0.128067
-1.28017
1.27597
0.124244
-0.120073
-1.05771
1.05353
0.116057
-0.110471
-0.871951
0.866364
0.102474
-0.0900666
-0.674541
0.662134
0.0755021
-0.0579716
-0.435483
0.417952
0.0426355
-0.0283834
-0.212865
0.198613
0.0183347
-0.0103818
-0.0728359
0.0648829
0.00547988
-0.00213855
-0.0117667
0.00842536
0.000464434
0.00154464
-0.00200907
-0.0819727
0.0790735
0.00289916
-0.00172921
-0.0035344
-0.385961
0.391225
0.0107718
-0.0166752
-0.545972
0.551875
0.0227983
-0.0299115
-0.678673
0.685786
0.0384032
-0.046329
-0.799634
0.80756
0.0549724
-0.0626885
-0.923831
0.931547
0.0706017
-0.0776737
-1.0657
1.07277
0.084939
-0.0908455
-1.22758
1.23349
0.0960649
-0.0996037
-1.41154
1.41508
0.101982
-0.102258
-1.62116
1.62144
0.100395
-0.096934
-1.56201
1.55855
0.0926451
-0.0875519
-1.27139
1.2663
0.0824656
-0.0770503
-1.04751
1.0421
0.0718854
-0.0655513
-0.856658
0.850323
0.0582507
-0.0480785
-0.646509
0.636336
0.0376528
-0.0265272
-0.398761
0.387635
0.0182479
-0.0116112
-0.18398
0.177343
0.00747518
-0.00443516
-0.0570325
0.0539925
0.00248835
-0.000979698
-0.00520458
0.00369592
0.000212112
0.00265354
-0.00286566
-0.0806977
0.0779472
0.00275051
-0.00539297
0.00287625
-0.399609
0.402125
0.00179575
-0.0062457
-0.561134
0.565584
0.0113976
-0.0173487
-0.693815
0.699766
0.0245806
-0.0313526
-0.814875
0.821647
0.0387285
-0.0453356
-0.938729
0.945336
0.0524821
-0.0584464
-1.07939
1.08536
0.0647376
-0.0693583
-1.23894
1.24356
0.0736771
-0.076414
-1.41833
1.42107
0.0777595
-0.076905
-1.62117
1.62032
0.0743525
-0.0702273
-1.55444
1.55032
0.0653378
-0.059221
-1.26077
1.25465
0.0534828
-0.0472337
-1.03527
1.02903
0.0411789
-0.0346594
-0.840412
0.833892
0.0280007
-0.0202481
-0.623179
0.615426
0.0133729
-0.00751996
-0.375455
0.369602
0.00424092
-0.00233261
-0.169641
0.167733
0.00147555
-0.00107839
-0.0501197
0.0497225
0.000745005
-0.000265587
-0.0020451
0.00156569
4.21377e-05
0.00336446
-0.0034066
-0.0791561
0.0767094
0.0024467
-0.00656596
0.00567218
-0.408669
0.409563
-0.00224567
-0.000947605
-0.573255
0.576448
0.00511787
-0.0105051
-0.706484
0.711872
0.0165611
-0.0224876
-0.827737
0.833664
0.0288537
-0.0345641
-0.951478
0.957189
0.0406537
-0.045913
-1.09116
1.09642
0.0511709
-0.0553235
-1.24801
1.25216
0.0588811
-0.0609649
-1.42338
1.42547
0.0616408
-0.0602004
-1.6192
1.61776
0.0571212
-0.0522961
-1.5454
1.54058
0.046995
-0.0406014
-1.24835
1.24195
0.0344649
-0.0275741
-1.02175
1.01486
0.0212414
-0.0145252
-0.8245
0.817784
0.008795
-0.00284651
-0.605095
0.599147
-0.00141355
0.0038547
-0.361735
0.359294
-0.0042768
0.00361466
-0.163923
0.164585
-0.0026007
0.00147201
-0.0485457
0.0496744
-0.000705904
0.000330612
-0.00114923
0.00152453
-0.000102815
0.00372988
-0.00362706
-0.0777049
0.0755994
0.00210555
-0.00648603
0.0061217
-0.414828
0.415192
-0.00409671
0.00153398
-0.582532
0.585095
0.00248832
-0.00707972
-0.717187
0.721779
0.0122676
-0.0173998
-0.838813
0.843945
0.0230406
-0.0281165
-0.962535
0.967611
0.0336456
-0.0382049
-1.10138
1.10594
0.0428663
-0.046518
-1.25599
1.25964
0.0495178
-0.0511392
-1.42723
1.42885
0.0513397
-0.0498883
-1.61615
1.6147
0.046471
-0.0415536
-1.53525
1.53033
0.0360704
-0.029494
-1.23529
1.22872
0.0234198
-0.0162301
-1.00739
1.0002
0.00974315
-0.00316623
-0.809081
0.802504
-0.00199205
0.00665319
-0.590714
0.586053
-0.00954318
0.01041
-0.354098
0.353231
-0.00927756
0.00736258
-0.163347
0.165262
-0.00548856
0.0034132
-0.0501702
0.0522456
-0.00187515
0.000793239
-0.00203033
0.00311224
-0.000219808
0.0037072
-0.0034874
-0.0765759
0.0749247
0.00165114
-0.00564061
0.00562652
-0.419339
0.419353
-0.00402316
0.00211849
-0.590583
0.592488
0.00162454
-0.00576227
-0.726412
0.73055
0.01067
-0.0150727
-0.848682
0.853084
0.0200042
-0.0244763
-0.97264
0.977112
0.0296831
-0.0337824
-1.11051
1.11461
0.0378621
-0.0412482
-1.26307
1.26646
0.0443039
-0.0456662
-1.43045
1.43182
0.0457804
-0.0441288
-1.6128
1.61115
0.0409692
-0.0358245
-1.52518
1.52004
0.0305615
-0.0242168
-1.22196
1.21561
0.0180802
-0.011191
-0.992786
0.985897
0.00477682
0.00175136
-0.794241
0.787712
-0.00638709
0.0104515
-0.578601
0.574536
-0.0128262
0.0130737
-0.349466
0.349219
-0.0116264
0.00934121
-0.165336
0.167621
-0.00708534
0.00457729
-0.053702
0.05621
-0.00262845
0.00110859
-0.00417418
0.00569403
-0.000306447
0.0033682
-0.00306175
-0.0759418
0.0746377
0.0013041
-0.00458837
0.00471208
-0.42286
0.422737
-0.00332593
0.00151839
-0.597549
0.599356
0.00206038
-0.00573632
-0.734664
0.73834
0.0099223
-0.0141489
-0.857424
0.861651
0.0186768
-0.0232561
-0.981374
0.985953
0.0276978
-0.031577
-1.11878
1.12266
0.0357378
-0.0388279
-1.2697
1.27279
0.0413397
-0.0430449
-1.43306
1.43476
0.0432485
-0.0417879
-1.60953
1.60807
0.038694
-0.0340152
-1.51508
1.5104
0.0289711
-0.022859
-1.20897
1.20286
0.017047
-0.0104297
-0.97876
0.972143
0.00430771
0.00181698
-0.780102
0.773977
-0.00665356
0.0102458
-0.567645
0.564052
-0.012299
0.0128685
-0.346207
0.345637
-0.0117958
0.0096102
-0.168012
0.170197
-0.00743305
0.00493214
-0.057929
0.0604299
-0.0029165
0.00125072
-0.00699654
0.00866231
-0.00036323
0.00282827
-0.00246504
-0.0758316
0.0747427
0.00108884
-0.0033271
0.00322518
-0.42598
0.426082
-0.00212126
0.000362248
-0.603908
0.605667
0.00305966
-0.00659667
-0.742295
0.745832
0.0105934
-0.0143956
-0.865648
0.86945
0.0190153
-0.0227813
-0.989938
0.993704
0.0271629
-0.0308317
-1.12667
1.13034
0.0348413
-0.0380892
-1.27584
1.27909
0.0408397
-0.0422789
-1.4362
1.43764
0.042766
-0.0416448
-1.60651
1.60539
0.0391191
-0.0346786
-1.50561
1.50117
0.0300275
-0.0243057
-1.19689
1.19117
0.0189038
-0.0126466
-0.965283
0.959026
0.00699545
-0.000996489
-0.766831
0.760832
-0.00374204
0.00744743
-0.557601
0.553895
-0.0095294
0.0103157
-0.342803
0.342017
-0.00989856
0.00835571
-0.170228
0.171771
-0.00663575
0.00451494
-0.0619785
0.0640993
-0.00273819
0.00121237
-0.00992621
0.011452
-0.00037263
0.00218984
-0.00181721
-0.0760015
0.0752399
0.000761579
-0.00217852
0.00162665
-0.429168
0.42972
-0.000687311
-0.00126668
-0.609448
0.611402
0.00429164
-0.00766966
-0.749383
0.752761
0.0114823
-0.0153974
-0.873099
0.877014
0.0193804
-0.0232889
-0.99766
1.00157
0.0276125
-0.0310532
-1.13442
1.13786
0.0351275
-0.0383047
-1.28212
1.2853
0.041086
-0.0430278
-1.43947
1.44141
0.0439702
-0.043097
-1.6043
1.60342
0.0407888
-0.0370611
-1.49692
1.4932
0.0329833
-0.0276964
-1.18542
1.18013
0.0226298
-0.0170288
-0.952725
0.947124
0.011406
-0.00588519
-0.754063
0.748542
0.001159
0.00287462
-0.547921
0.543887
-0.00507984
0.00633761
-0.338798
0.33754
-0.00653498
0.0058941
-0.17144
0.172081
-0.0048318
0.00341008
-0.0651261
0.0665478
-0.00214868
0.000994974
-0.0124464
0.0136001
-0.000307166
0.00156091
-0.00125374
-0.0765942
0.0759934
0.000600769
-0.00120425
0.000747084
-0.432573
0.43303
0.000786008
-0.00264876
-0.615129
0.616992
0.00581551
-0.00905083
-0.755928
0.759163
0.012701
-0.0162014
-0.880581
0.884081
0.0202952
-0.023877
-1.00547
1.00905
0.0281377
-0.0320013
-1.14174
1.1456
0.0357006
-0.0391944
-1.2885
1.29199
0.0423822
-0.0444028
-1.44324
1.44526
0.0457027
-0.0456016
-1.60277
1.60266
0.0437479
-0.0406927
-1.48938
1.48633
0.0368996
-0.0321704
-1.17498
1.17025
0.0276176
-0.0222939
-0.941158
0.935834
0.0171583
-0.0118107
-0.742104
0.736756
0.00715382
-0.00268263
-0.538046
0.533575
-9.5377e-05
0.00186306
-0.3339
0.332133
-0.00280656
0.00295961
-0.171112
0.170959
-0.00263226
0.00198192
-0.0668598
0.0675102
-0.00132048
0.000650815
-0.0141768
0.0148465
-0.000212806
0.0010635
-0.000850692
-0.0774665
0.0770503
0.000416198
-0.000165405
-0.000502418
-0.436116
0.436784
0.00197673
-0.00414873
-0.62043
0.622602
0.00722317
-0.0102888
-0.762224
0.76529
0.0140204
-0.0173616
-0.887546
0.890887
0.0212901
-0.0249889
-1.01309
1.01679
0.029145
-0.0329671
-1.1493
1.15312
0.0368815
-0.040396
-1.29539
1.2989
0.0437653
-0.046529
-1.44756
1.45032
0.0482678
-0.0484661
-1.6025
1.6027
0.0473285
-0.0446423
-1.4832
1.48051
0.0414565
-0.0373307
-1.16555
1.16142
0.03292
-0.0279447
-0.930283
0.925308
0.0231088
-0.0177995
-0.730681
0.725371
0.0132205
-0.00844454
-0.528033
0.523257
0.00513791
-0.00251583
-0.328039
0.325417
0.000962122
-4.98804e-06
-0.169188
0.16823
-0.000480417
0.000590347
-0.0670942
0.0669843
-0.000496566
0.000296632
-0.014942
0.0151419
-0.000113013
0.000751287
-0.000638274
-0.0785753
0.0782932
0.000282078
0.000775507