/*--------------------------------*- C++ -*----------------------------------*\
  =========                 |
  \\      /  F ield         | OpenFOAM: The Open Source CFD Toolbox
   \\    /   O peration     | Website:  https://openfoam.org
    \\  /    A nd           | Version:  10
     \\/     M anipulation  |
\*---------------------------------------------------------------------------*/
FoamFile
{
    format      ascii;
    class       volScalarField;
    location    "51";
    object      p;
}
// * * * * * * * * * * * * * * * * * * * * * * * * * * * * * * * * * * * * * //

dimensions      [0 2 -2 0 0 0 0];

internalField   nonuniform List<scalar> 
8800
(
0.816646
0.768858
0.730168
0.701171
0.680305
0.665471
0.654872
0.647388
0.642563
0.640499
0.64176
0.645944
0.652584
0.661897
0.674673
0.692405
0.71718
0.75112
0.793668
0.85237
0.647899
0.655577
0.663051
0.666358
0.664852
0.659772
0.653282
0.647201
0.642472
0.639622
0.639336
0.641835
0.646317
0.652257
0.659022
0.665299
0.668938
0.6682
0.662778
0.654086
0.626308
0.632467
0.636593
0.639535
0.641581
0.642181
0.64107
0.63896
0.636938
0.636023
0.636977
0.63935
0.642143
0.644318
0.64492
0.643718
0.641373
0.637977
0.633418
0.629657
0.620511
0.623161
0.62591
0.628309
0.62994
0.631096
0.631832
0.631942
0.631639
0.631581
0.632323
0.633484
0.634315
0.634373
0.633757
0.632661
0.630841
0.628267
0.625862
0.624358
0.615147
0.616571
0.618346
0.620374
0.622153
0.623487
0.624469
0.625257
0.625862
0.626416
0.627055
0.627539
0.627627
0.627329
0.626624
0.625369
0.623667
0.621815
0.620505
0.619674
0.610092
0.611011
0.612249
0.61381
0.615436
0.616952
0.618228
0.619284
0.620236
0.621115
0.621789
0.622101
0.622044
0.621591
0.620699
0.61949
0.618155
0.616889
0.616064
0.615513
0.605212
0.605881
0.606839
0.608135
0.609535
0.610983
0.612411
0.613719
0.614902
0.615992
0.616792
0.617139
0.617035
0.616508
0.615686
0.614726
0.613703
0.612772
0.612184
0.611779
0.600463
0.600979
0.601757
0.60288
0.604147
0.605508
0.606939
0.608394
0.609802
0.611115
0.612094
0.612536
0.612483
0.612074
0.61145
0.610708
0.609919
0.609226
0.608789
0.608472
0.595773
0.596183
0.596834
0.597831
0.599024
0.600336
0.601763
0.603297
0.604892
0.606458
0.607668
0.608287
0.608414
0.608212
0.607801
0.607262
0.606673
0.606168
0.605841
0.605584
0.591058
0.591392
0.591954
0.59287
0.594013
0.595307
0.596764
0.59839
0.600162
0.602004
0.603512
0.604407
0.604795
0.604831
0.604638
0.604313
0.603909
0.603559
0.603315
0.603101
0.586233
0.58651
0.58701
0.58788
0.589002
0.590317
0.591842
0.593598
0.595587
0.597744
0.599632
0.600885
0.601586
0.601893
0.601937
0.601822
0.601601
0.601387
0.60121
0.601025
0.581213
0.581445
0.581906
0.582758
0.583899
0.585278
0.586913
0.588852
0.59112
0.593671
0.596024
0.597707
0.598772
0.59939
0.599694
0.599797
0.599757
0.599665
0.599543
0.599379
0.575908
0.576106
0.576546
0.577411
0.578613
0.5801
0.581899
0.58409
0.586716
0.589765
0.592683
0.594875
0.596364
0.597331
0.597927
0.598253
0.598407
0.598431
0.598355
0.598206
0.570224
0.570393
0.570831
0.571737
0.573041
0.574687
0.576717
0.579237
0.582321
0.58599
0.589593
0.592392
0.594379
0.595748
0.596672
0.597272
0.597614
0.597743
0.597707
0.597568
0.564047
0.564192
0.564641
0.565619
0.567072
0.568935
0.571272
0.574215
0.577877
0.582309
0.586745
0.590273
0.592849
0.594687
0.595984
0.596875
0.597431
0.597674
0.597674
0.597541
0.557247
0.557367
0.557844
0.558924
0.560577
0.562727
0.565456
0.568934
0.573315
0.578681
0.584129
0.588533
0.591812
0.594206
0.595938
0.597162
0.597957
0.598317
0.598352
0.598221
0.549656
0.54975
0.550269
0.551486
0.553396
0.555913
0.559147
0.563307
0.568586
0.575099
0.58177
0.587219
0.591325
0.594372
0.596628
0.59824
0.599298
0.59978
0.599847
0.599715
0.541043
0.541142
0.541714
0.543088
0.545327
0.548318
0.552197
0.557214
0.563614
0.57154
0.579684
0.586374
0.591457
0.59527
0.598145
0.600212
0.601569
0.602182
0.602281
0.602145
0.531122
0.531202
0.531862
0.533458
0.536126
0.53973
0.544426
0.550523
0.558315
0.567968
0.577885
0.586049
0.592288
0.597007
0.600597
0.603199
0.604897
0.605652
0.605781
0.605636
0.519527
0.519589
0.520347
0.522255
0.525473
0.52986
0.5356
0.543067
0.552599
0.564366
0.576409
0.586311
0.593902
0.599686
0.604103
0.607334
0.609413
0.610317
0.610473
0.610316
0.505722
0.505772
0.506672
0.50899
0.512937
0.518359
0.525466
0.534699
0.54642
0.560764
0.575333
0.587264
0.59641
0.60342
0.608808
0.61275
0.615243
0.616298
0.616476
0.616303
0.488954
0.488991
0.490106
0.493003
0.497948
0.504769
0.5137
0.525236
0.539726
0.557216
0.574743
0.588999
0.599919
0.608324
0.614801
0.619551
0.622483
0.623681
0.623872
0.62368
0.468103
0.468139
0.469591
0.473354
0.479734
0.488526
0.499956
0.51453
0.532498
0.553761
0.574725
0.591614
0.604525
0.614494
0.622166
0.627807
0.631182
0.632502
0.632691
0.632477
0.441432
0.441486
0.443518
0.448683
0.457284
0.468975
0.483929
0.502555
0.5249
0.550652
0.575501
0.595264
0.610328
0.621996
0.630981
0.637542
0.641322
0.642717
0.642883
0.642645
0.40594
0.40609
0.409315
0.417072
0.429439
0.445562
0.465547
0.489489
0.517184
0.54811
0.577244
0.600087
0.617417
0.630866
0.641244
0.648693
0.652778
0.654169
0.654281
0.654019
0.355885
0.35684
0.363263
0.376337
0.39524
0.418205
0.445113
0.47577
0.509778
0.546474
0.580156
0.606171
0.6258
0.641051
0.652825
0.661039
0.665267
0.666548
0.66658
0.666295
0.28237
0.289541
0.304429
0.327477
0.35615
0.388292
0.423685
0.462107
0.503155
0.546152
0.58475
0.614213
0.63638
0.65364
0.666906
0.675853
0.680179
0.681357
0.681338
0.681089
0.203146
0.220171
0.24433
0.278006
0.316847
0.358323
0.402294
0.448697
0.497225
0.547282
0.591822
0.625697
0.651144
0.670919
0.686142
0.695779
0.699968
0.700936
0.700943
0.7008
0.137156
0.157244
0.189093
0.231754
0.279586
0.329861
0.382156
0.4364
0.492273
0.549194
0.599408
0.637403
0.6659
0.687924
0.704435
0.714392
0.718417
0.719338
0.719439
0.719364
0.0831059
0.10485
0.1422
0.19126
0.246184
0.303873
0.363536
0.424973
0.487744
0.551195
0.606787
0.648638
0.679878
0.703843
0.721587
0.73211
0.736562
0.737549
0.737643
0.737608
0.0380345
0.0609766
0.102115
0.156255
0.216885
0.280693
0.346677
0.414506
0.483589
0.553134
0.613792
0.659263
0.693095
0.718959
0.738017
0.749424
0.754219
0.755197
0.755337
0.755338
-0.000314949
0.0233152
0.067309
0.125502
0.190925
0.25994
0.331415
0.404926
0.479748
0.554942
0.620343
0.669216
0.705486
0.733196
0.753449
0.765673
0.770878
0.772008
0.772188
0.772211
-0.0339478
-0.00984845
0.0364278
0.0979393
0.167417
0.240958
0.317297
0.395923
0.476006
0.556453
0.6263
0.678347
0.716877
0.746166
0.767486
0.780414
0.786021
0.78741
0.787648
0.787682
-0.0643313
-0.0398165
0.00833063
0.07268
0.145655
0.223155
0.303851
0.387139
0.472092
0.557475
0.631523
0.686548
0.727122
0.757769
0.780025
0.793499
0.799431
0.801059
0.801332
0.801362
-0.092401
-0.0675016
-0.0177348
0.0490369
0.125092
0.206097
0.29071
0.378264
0.467763
0.55783
0.63592
0.693789
0.736251
0.768157
0.791139
0.804996
0.811179
0.812978
0.813269
0.813282
-0.118937
-0.093606
-0.0423344
0.0265323
0.105321
0.189452
0.277602
0.369076
0.462835
0.557402
0.639453
0.700109
0.744387
0.777464
0.801026
0.815136
0.821475
0.82336
0.823635
0.823619
-0.144281
-0.11851
-0.0660771
0.00484862
0.086054
0.172991
0.264344
0.359426
0.457191
0.556111
0.642093
0.70555
0.75165
0.785823
0.809886
0.8241
0.830471
0.8324
0.832656
0.832607
-0.168841
-0.142499
-0.0890029
-0.0162576
0.0671021
0.156557
0.250818
0.349218
0.450745
0.55388
0.64381
0.71016
0.758158
0.793432
0.81788
0.83213
0.838499
0.840387
0.840641
0.840575
-0.192742
-0.165954
-0.111272
-0.0369315
0.0483586
0.140068
0.236956
0.338401
0.443446
0.550657
0.644577
0.713983
0.764038
0.800437
0.825213
0.839441
0.845745
0.847563
0.847749
0.847648
-0.216098
-0.188759
-0.133035
-0.0572496
0.0297752
0.123497
0.222744
0.326957
0.435274
0.5464
0.64435
0.717042
0.769371
0.80696
0.832033
0.846174
0.852297
0.853981
0.854093
0.85395
-0.239028
-0.21109
-0.154355
-0.0772344
0.0113308
0.10685
0.208205
0.314913
0.426235
0.541077
0.643084
0.719322
0.774217
0.813129
0.838477
0.852405
0.858215
0.859687
0.859717
0.859547
-0.261536
-0.232916
-0.175233
-0.096881
-0.00693651
0.0901621
0.193385
0.302316
0.41636
0.534673
0.640726
0.720774
0.77859
0.819084
0.844745
0.858276
0.863571
0.864748
0.864694
0.864509
-0.283461
-0.254198
-0.195606
-0.11616
-0.0249884
0.0735005
0.17835
0.289243
0.405711
0.527219
0.637219
0.721305
0.782443
0.824966
0.851137
0.864055
0.868488
0.869212
0.869062
0.868879
-0.304778
-0.274905
-0.215458
-0.135017
-0.0427658
0.0569269
0.163193
0.275776
0.394371
0.518749
0.632522
0.720782
0.78567
0.830837
0.858023
0.870243
0.873287
0.873165
0.872854
0.872717
-0.325553
-0.294998
-0.234758
-0.153416
-0.0602046
0.0405261
0.148002
0.262019
0.382435
0.509332
0.626596
0.719058
0.788072
0.836587
0.865708
0.877701
0.87891
0.877044
0.876192
0.876314
-0.345609
-0.314451
-0.253448
-0.171292
-0.0772441
0.0243823
0.132874
0.248086
0.370019
0.49907
0.619433
0.715967
0.789372
0.841847
0.874091
0.887375
0.887427
0.882993
0.880062
0.879481
-0.365039
-0.333253
-0.271543
-0.188674
-0.0939172
0.00845165
0.117754
0.233917
0.357059
0.487891
0.610898
0.711236
0.789254
0.84606
0.882424
0.899406
0.90113
0.895281
0.886642
0.872134
-0.383767
-0.351391
-0.289162
-0.205758
-0.110511
-0.00759863
0.102225
0.219032
0.343017
0.475156
0.600341
0.704068
0.787113
0.848413
0.888808
0.91119
0.915467
0.903561
0.884132
0.871701
-0.401613
-0.368994
-0.306107
-0.222329
-0.126688
-0.0234224
0.0865156
0.203758
0.328204
0.461133
0.587844
0.694025
0.782204
0.847784
0.888848
0.910874
0.918365
0.896069
0.828127
0.797476
-0.417909
-0.387299
-0.322043
-0.237841
-0.141691
-0.0385152
0.070935
0.188322
0.312836
0.445946
0.573354
0.680829
0.77322
0.843552
0.87773
0.89361
0.885669
0.832743
0.763747
0.721237
-0.474196
-0.403438
-0.33658
-0.25338
-0.157101
-0.0543245
0.0554209
0.172446
0.296551
0.42915
0.556279
0.663897
0.756458
0.833342
0.839045
0.844323
0.797879
0.729052
0.652949
0.61055
-0.435292
-0.419087
-0.358233
-0.2745
-0.179713
-0.0770574
0.0316795
0.148023
0.271083
0.402177
0.527165
0.632742
0.717165
0.797626
0.786963
0.676666
0.573003
0.500818
0.427996
0.459285
-0.466711
-0.437044
-0.375183
-0.292217
-0.197411
-0.094956
0.0140385
0.129733
0.251707
0.380986
0.503129
0.604369
0.680209
0.722584
0.675223
0.529085
0.402997
0.312615
0.214371
0.265114
-0.490924
-0.458304
-0.395138
-0.311949
-0.217049
-0.114689
-0.00577063
0.109087
0.229659
0.35655
0.474963
0.570121
0.636897
0.645858
0.541004
0.369829
0.218475
0.100639
-0.0299211
0.00320586
-0.514656
-0.480454
-0.416071
-0.331963
-0.23691
-0.13467
-0.0262528
0.0876476
0.206632
0.330768
0.444571
0.532435
0.583813
0.562022
0.405372
0.210555
0.0213219
-0.145761
-0.333936
-0.351922
-0.537779
-0.503108
-0.437804
-0.352905
-0.257642
-0.155587
-0.0477904
0.0650373
0.18219
0.303203
0.411731
0.492132
0.524826
0.467201
0.276358
0.0673174
-0.148888
-0.337378
-0.578923
-0.878305
-0.561199
-0.526512
-0.460633
-0.37521
-0.279712
-0.177783
-0.0705309
0.0411998
0.156426
0.274079
0.377064
0.449233
0.461841
0.353443
0.164231
-0.0441834
-0.247327
-0.418706
-0.486984
-0.56639
-0.585869
-0.551113
-0.484911
-0.399215
-0.30362
-0.201904
-0.0952814
0.0151873
0.12818
0.241963
0.339042
0.40047
0.388702
0.246778
0.0647428
-0.124692
-0.286205
-0.378138
-0.401916
-0.417892
-0.612106
-0.577226
-0.51081
-0.425009
-0.329497
-0.228157
-0.122398
-0.0134857
0.0968646
0.206144
0.296801
0.34463
0.315567
0.147838
-0.0253862
-0.189802
-0.315077
-0.353609
-0.366512
-0.367829
-0.640115
-0.605026
-0.538394
-0.452579
-0.357287
-0.256542
-0.151893
-0.0448642
0.0624125
0.166612
0.249972
0.283812
0.235919
0.0563888
-0.107886
-0.255109
-0.330163
-0.347157
-0.348541
-0.348365
-0.669959
-0.634571
-0.567682
-0.481918
-0.387
-0.287041
-0.183765
-0.0789571
0.0248323
0.123419
0.198591
0.221096
0.137603
-0.0272851
-0.18346
-0.304789
-0.340946
-0.339111
-0.338027
-0.337419
-0.701349
-0.665688
-0.598567
-0.512934
-0.41854
-0.319591
-0.217972
-0.115731
-0.015841
0.0766457
0.143393
0.149261
0.0476017
-0.105432
-0.243385
-0.31792
-0.328182
-0.330905
-0.33163
-0.331266
-0.733724
-0.697911
-0.63079
-0.545392
-0.451713
-0.354024
-0.254349
-0.155044
-0.0594228
0.0266069
0.0847645
0.0753618
-0.0338917
-0.171388
-0.286465
-0.317427
-0.325866
-0.32787
-0.327816
-0.327516
-0.766619
-0.730696
-0.663893
-0.57889
-0.486163
-0.390006
-0.292601
-0.196592
-0.10562
-0.0260717
0.0215775
0.00375432
-0.11017
-0.224246
-0.315848
-0.332031
-0.325412
-0.324852
-0.325041
-0.324984
-0.799142
-0.763329
-0.69699
-0.612822
-0.521333
-0.427046
-0.332253
-0.23987
-0.153943
-0.0808037
-0.0432344
-0.0648616
-0.180911
-0.264822
-0.314786
-0.328511
-0.326115
-0.324654
-0.324271
-0.324215
-0.829688
-0.79461
-0.729124
-0.646257
-0.556444
-0.464424
-0.372625
-0.28414
-0.203546
-0.136911
-0.103375
-0.143369
-0.247831
-0.304041
-0.299373
-0.322649
-0.330047
-0.328892
-0.32819
-0.327677
-0.856694
-0.822689
-0.759154
-0.678003
-0.590443
-0.501182
-0.412814
-0.328476
-0.253199
-0.193344
-0.161514
-0.222102
-0.325607
-0.354879
-0.343332
-0.350779
-0.349918
-0.348256
-0.347352
-0.346568
-0.878025
-0.845778
-0.785028
-0.706646
-0.622038
-0.536138
-0.451681
-0.371763
-0.301539
-0.248502
-0.221248
-0.287545
-0.412551
-0.522439
-0.498548
-0.451857
-0.41535
-0.399619
-0.392375
-0.388611
-0.891458
-0.861929
-0.804835
-0.730326
-0.649712
-0.567959
-0.48794
-0.412679
-0.347209
-0.299901
-0.276471
-0.333313
-0.46871
-0.715727
-0.671767
-0.528982
-0.468584
-0.444116
-0.43231
-0.428984
-0.894352
-0.868901
-0.81666
-0.747206
-0.671769
-0.595225
-0.520226
-0.44986
-0.388807
-0.344415
-0.315434
-0.32297
-0.362295
-0.563913
-0.529689
-0.428371
-0.388837
-0.378431
-0.377466
-0.377053
-0.884638
-0.864075
-0.818332
-0.755693
-0.686731
-0.616448
-0.547235
-0.482006
-0.424616
-0.381183
-0.33778
-0.237658
-0.0405106
0.12086
-0.00760921
-0.185086
-0.282688
-0.309331
-0.319456
-0.321347
-0.860159
-0.844549
-0.808044
-0.754572
-0.693635
-0.630599
-0.567822
-0.507942
-0.454531
-0.412996
-0.357302
-0.210562
0.16893
0.587395
0.249923
-0.113045
-0.286178
-0.354671
-0.381939
-0.390374
-0.823238
-0.813086
-0.786403
-0.743958
-0.692423
-0.637432
-0.581389
-0.526841
-0.478297
-0.441277
-0.406638
-0.436506
-0.630171
-0.870207
-0.99103
-0.885978
-0.802772
-0.763602
-0.753111
-0.755498
-0.780278
-0.774509
-0.758135
-0.726478
-0.684875
-0.637566
-0.587916
-0.538224
-0.493283
-0.463378
-0.456208
-0.770635
-1.37757
-1.94608
-1.88486
-1.55938
-1.32257
-1.15518
-1.06976
-1.06255
-0.740778
-0.737356
-0.729311
-0.707533
-0.673829
-0.632784
-0.587807
-0.540711
-0.495733
-0.460488
-0.458506
-0.625025
-0.951238
-1.3434
-1.5921
-1.63597
-1.58892
-1.44195
-1.26846
-1.17047
-0.711988
-0.709874
-0.705958
-0.691725
-0.663755
-0.626074
-0.582874
-0.534749
-0.483668
-0.431247
-0.405845
-0.398692
-0.412299
-0.364389
-0.244593
-0.103913
-0.0574193
-0.0152854
0.0617808
0.0962811
-0.689765
-0.689032
-0.68791
-0.680419
-0.657468
-0.621048
-0.576206
-0.524606
-0.466274
-0.405399
-0.350043
-0.305991
-0.124664
0.236044
0.593115
0.876418
1.00496
1.07115
1.10205
1.11016
-0.675853
-0.675471
-0.674992
-0.671657
-0.65403
-0.618062
-0.569683
-0.512481
-0.447418
-0.370376
-0.283934
-0.186391
0.0703812
0.477959
0.880929
1.21664
1.41404
1.51527
1.55552
1.56329
-0.666685
-0.666439
-0.665907
-0.665113
-0.652627
-0.617074
-0.564791
-0.501533
-0.425322
-0.335238
-0.235529
-0.128263
0.12597
0.511961
0.891081
1.22241
1.43986
1.5519
1.599
1.61372
-0.660614
-0.660623
-0.660419
-0.660181
-0.651639
-0.618973
-0.564242
-0.493753
-0.408579
-0.312614
-0.20808
-0.109839
0.112689
0.466573
0.803784
1.09415
1.30104
1.41567
1.47087
1.4889
-0.659126
-0.657753
-0.653564
-0.649637
-0.648232
-0.62559
-0.569905
-0.491695
-0.398804
-0.297625
-0.199138
-0.111834
0.0586884
0.368072
0.670616
0.924785
1.11623
1.22699
1.27931
1.29524
-0.682037
-0.677413
-0.666713
-0.660051
-0.664335
-0.649609
-0.584885
-0.493765
-0.392113
-0.286664
-0.192331
-0.11105
0.0162866
0.286673
0.533109
0.736958
0.897803
0.99294
1.03605
1.04798
-0.746935
-0.746164
-0.750765
-0.758256
-0.758251
-0.713022
-0.609648
-0.494361
-0.382522
-0.274805
-0.184945
-0.10975
-0.0133454
0.197535
0.394719
0.553484
0.672417
0.74368
0.776117
0.784603
-0.824265
-0.838165
-0.865597
-0.879601
-0.86065
-0.766797
-0.619994
-0.483448
-0.366075
-0.260253
-0.172779
-0.096498
-0.0167765
0.127058
0.275988
0.391948
0.482541
0.537236
0.562333
0.568108
-0.791468
-0.807184
-0.834839
-0.848535
-0.821504
-0.717288
-0.573512
-0.44414
-0.335383
-0.239963
-0.158486
-0.0866976
-0.0141175
0.0855504
0.194186
0.280383
0.347179
0.387739
0.405116
0.407623
-0.580652
-0.595152
-0.616839
-0.629583
-0.609896
-0.539789
-0.451928
-0.365559
-0.286287
-0.211102
-0.142486
-0.0795148
-0.0220345
0.0387859
0.116308
0.183442
0.237524
0.269475
0.281918
0.282113
-0.297991
-0.304846
-0.317489
-0.33247
-0.33729
-0.326013
-0.301096
-0.266481
-0.225441
-0.177029
-0.126698
-0.080883
-0.0402162
-0.00358899
0.0507812
0.102424
0.144802
0.169772
0.179631
0.17918
-0.0808798
-0.0836997
-0.0927431
-0.111016
-0.137291
-0.161099
-0.175225
-0.177683
-0.167466
-0.144998
-0.115483
-0.0866527
-0.0627198
-0.0469339
-0.00983885
0.0315653
0.0601575
0.0757296
0.0801753
0.0788556
0.0303856
0.0285476
0.0207983
0.00195657
-0.0289006
-0.0636254
-0.0935442
-0.113687
-0.122175
-0.118642
-0.106723
-0.0936449
-0.0843222
-0.0787881
-0.0595824
-0.0349877
-0.0162226
-0.00718038
-0.00480991
-0.00632652
0.0669695
0.0655423
0.0592452
0.043443
0.0167985
-0.0151619
-0.0463967
-0.0725236
-0.09061
-0.100094
-0.102927
-0.10307
-0.10403
-0.103621
-0.0933206
-0.0818558
-0.0750497
-0.0737689
-0.0741559
-0.0751511
0.0676198
0.0665174
0.061844
0.0501384
0.0300896
0.00461098
-0.0227431
-0.0485863
-0.070685
-0.0887453
-0.103257
-0.115982
-0.125137
-0.127021
-0.122557
-0.11828
-0.117681
-0.119453
-0.120801
-0.121498
0.055267
0.0544767
0.0512054
0.0430051
0.028675
0.00953889
-0.0125928
-0.0355416
-0.0581236
-0.0809784
-0.105185
-0.130296
-0.148278
-0.148369
-0.143725
-0.142112
-0.143635
-0.146408
-0.147622
-0.148098
0.0405054
0.0399665
0.0377557
0.0321813
0.0222047
0.00826284
-0.00889865
-0.0282152
-0.0494162
-0.0740271
-0.104216
-0.138353
-0.16254
-0.158648
-0.151274
-0.150887
-0.153459
-0.15651
-0.157625
-0.157899
0.0274556
0.0271065
0.0256625
0.0219603
0.0151469
0.00522507
-0.00760847
-0.023039
-0.0413351
-0.064727
-0.0960903
-0.133817
-0.157251
-0.150055
-0.143537
-0.142916
-0.147086
-0.150361
-0.151321
-0.151401
0.017292
0.0170581
0.0161653
0.0138196
0.00935803
0.00257706
-0.00657918
-0.0180839
-0.0324072
-0.0515565
-0.0779815
-0.110248
-0.127059
-0.118638
-0.114338
-0.117807
-0.123519
-0.127323
-0.128273
-0.128254
0.0100957
0.00995861
0.00943605
0.00806251
0.00533521
0.00100706
-0.00501818
-0.0127699
-0.0224369
-0.0348459
-0.0509144
-0.0700812
-0.0778491
-0.071427
-0.071844
-0.0786084
-0.0856206
-0.0894611
-0.0902896
-0.0902957
0.00521861
0.00514611
0.00490187
0.00426781
0.00287558
0.000493203
-0.00291627
-0.00720101
-0.0119549
-0.016411
-0.0191632
-0.0205816
-0.0163522
-0.0113842
-0.0201624
-0.031314
-0.0389011
-0.0421678
-0.042916
-0.0430418
0.00223011
0.00220049
0.00214845
0.00200562
0.00154382
0.000593704
-0.000801895
-0.00224741
-0.0027359
0.000175245
0.0107417
0.0282093
0.0500256
0.0458884
0.0299921
0.0156306
0.00821476
0.00602362
0.00522828
0.00472382
0.000579042
0.00056582
0.000611755
0.000762764
0.000890558
0.000863641
0.00080458
0.00127811
0.00366684
0.0115867
0.0311036
0.0618243
0.088857
0.0815731
0.0636178
0.049974
0.0459395
0.0446374
0.0436377
0.0425981
-0.000172139
-0.000183347
-0.000103037
0.000156444
0.000534773
0.000955209
0.00153091
0.00283964
0.00624997
0.0155
0.0367926
0.0687654
0.0947386
0.0848285
0.0696544
0.061791
0.0597756
0.0602924
0.0588396
0.0576062
-0.000306548
-0.000314785
-0.000261948
-6.18101e-05
0.000279964
0.000709141
0.0012953
0.00243153
0.00511758
0.0119405
0.0276035
0.0508135
0.0692663
0.0606985
0.0504217
0.0477151
0.0486379
0.0498199
0.0483906
0.0470911
-2.12078e-05
-3.29795e-05
-4.45972e-05
-6.35238e-05
-1.6746e-05
8.7681e-05
0.00020191
0.000416972
0.000863755
0.00206103
0.00509185
0.0107243
0.0158881
0.0174884
0.0157169
0.0179765
0.0175187
0.014276
0.010333
0.00964759
-0.104348
0.0628098
0.258146
0.428685
0.565182
0.672962
0.762241
0.838196
0.872693
0.849395
0.19945
0.320429
0.45066
0.563313
0.658377
0.737136
0.800918
0.846178
0.868833
0.880902
0.419067
0.502123
0.591175
0.669884
0.737622
0.794312
0.839393
0.872324
0.896117
0.914095
0.580381
0.639805
0.701732
0.759015
0.808861
0.851196
0.885968
0.913704
0.936538
0.954837
0.706197
0.74946
0.795559
0.8395
0.878318
0.912227
0.941249
0.965401
0.985815
1.00365
0.810755
0.843722
0.881928
0.917561
0.950268
0.979583
1.0052
1.02673
1.0446
1.06195
0.903454
0.932201
0.966236
0.998427
1.02843
1.05564
1.07943
1.09917
1.11469
1.13177
0.992136
1.02137
1.05542
1.0875
1.11714
1.14375
1.16664
1.18515
1.19853
1.21556
1.08751
1.12074
1.15741
1.19101
1.22107
1.24728
1.26924
1.28653
1.29841
1.31581
1.20254
1.24038
1.27904
1.3133
1.34266
1.36742
1.3878
1.4037
1.41517
1.43324
1.3475
1.38606
1.42221
1.4529
1.47859
1.50069
1.51975
1.53528
1.54772
1.56571
1.5226
1.55422
1.58041
1.60286
1.62284
1.64157
1.65929
1.67577
1.69112
1.70919
1.71122
1.72842
1.74346
1.75969
1.7756
1.79014
1.80335
1.81728
1.83482
1.85497
1.89294
1.90248
1.91402
1.92484
1.93412
1.94371
1.95449
1.96586
1.97722
1.99258
2.10018
2.10385
2.0889
2.07409
2.06782
2.07349
2.09197
2.12228
2.15446
2.18112
2.4065
2.27164
2.195
2.15262
2.1352
2.13916
2.16656
2.22298
2.3256
2.54996
0.707246
0.705117
0.700633
0.692007
0.67978
0.667647
0.657413
0.649511
0.643885
0.640619
0.640249
0.642972
0.648063
0.655276
0.664656
0.676191
0.688838
0.69987
0.70598
0.709033
0.631704
0.637551
0.643882
0.648372
0.650839
0.650511
0.647768
0.643951
0.640431
0.638158
0.637995
0.640176
0.643825
0.648103
0.651901
0.653778
0.652837
0.649352
0.644187
0.637566
0.623285
0.625581
0.628984
0.631977
0.634048
0.635539
0.636288
0.635963
0.634927
0.634029
0.634186
0.635594
0.637393
0.638686
0.638856
0.637957
0.636402
0.634062
0.630795
0.627873
0.617784
0.61887
0.620701
0.623076
0.625095
0.626516
0.627529
0.62827
0.628659
0.628865
0.629334
0.630119
0.630697
0.630748
0.630322
0.629464
0.627987
0.625896
0.623806
0.622422
0.612594
0.613257
0.614363
0.616063
0.617839
0.619463
0.620749
0.621753
0.62262
0.62339
0.624094
0.624618
0.624787
0.6246
0.624017
0.622949
0.621511
0.619959
0.618636
0.617855
0.607635
0.608096
0.608879
0.610172
0.611652
0.61316
0.614613
0.615896
0.617012
0.618044
0.618927
0.619461
0.619576
0.619277
0.618559
0.617552
0.616413
0.61527
0.614349
0.61383
0.602827
0.603172
0.60378
0.604842
0.606128
0.60749
0.608915
0.610343
0.611693
0.612943
0.614014
0.614663
0.614801
0.614493
0.613867
0.613068
0.612199
0.61132
0.61064
0.610261
0.598118
0.598386
0.598876
0.599778
0.600938
0.602221
0.603598
0.605065
0.606577
0.60806
0.609359
0.610175
0.610427
0.610265
0.609838
0.609249
0.608578
0.607922
0.607422
0.607132
0.593427
0.59364
0.594047
0.594838
0.595915
0.597148
0.598512
0.600021
0.601658
0.603367
0.604939
0.606
0.606476
0.606541
0.606333
0.605955
0.605482
0.605013
0.604651
0.604424
0.588668
0.58884
0.589189
0.589906
0.590935
0.592143
0.593531
0.595117
0.596901
0.598852
0.600749
0.602146
0.602926
0.603262
0.603291
0.603131
0.60286
0.602557
0.602308
0.602127
0.583756
0.583895
0.584202
0.584874
0.585884
0.587114
0.588563
0.590268
0.592251
0.594496
0.59679
0.598607
0.599753
0.600402
0.6007
0.600768
0.600695
0.60055
0.600397
0.600251
0.578605
0.578717
0.578996
0.579648
0.580675
0.581971
0.583526
0.585402
0.58765
0.59027
0.593056
0.595377
0.596953
0.597962
0.598561
0.598874
0.599002
0.599016
0.598946
0.598828
0.573124
0.573213
0.573476
0.574131
0.575211
0.576615
0.57833
0.580446
0.583038
0.586137
0.589528
0.592455
0.594537
0.595959
0.596895
0.597496
0.597844
0.598004
0.598006
0.59791
0.567208
0.567276
0.567532
0.568215
0.569385
0.570943
0.572882
0.575317
0.578347
0.582048
0.586181
0.589837
0.59252
0.594427
0.595749
0.596666
0.597256
0.597573
0.597644
0.597566
0.560736
0.560784
0.561041
0.561773
0.563074
0.564844
0.567079
0.569921
0.573507
0.577948
0.582985
0.587524
0.590926
0.59341
0.595181
0.596449
0.597319
0.597805
0.597944
0.597881
0.553561
0.55359
0.553852
0.554657
0.556133
0.558177
0.560793
0.564155
0.568441
0.573799
0.57994
0.58554
0.589798
0.59296
0.595265
0.596946
0.598134
0.598801
0.599008
0.598956
0.545499
0.545516
0.545778
0.546681
0.548384
0.550771
0.553876
0.5579
0.563064
0.569557
0.577043
0.583916
0.589188
0.593146
0.596081
0.598263
0.599808
0.600673
0.600949
0.600908
0.536244
0.53623
0.536553
0.537592
0.539582
0.542418
0.546151
0.551014
0.557281
0.565183
0.574304
0.582693
0.589164
0.594058
0.597731
0.600504
0.602461
0.603546
0.603894
0.603859
0.525527
0.525487
0.525854
0.527085
0.52944
0.532857
0.537389
0.543311
0.550958
0.560591
0.57169
0.581895
0.589785
0.595793
0.600335
0.603785
0.60622
0.607548
0.607969
0.607939
0.512874
0.512808
0.513251
0.514729
0.517565
0.52174
0.527307
0.534598
0.543998
0.555781
0.569271
0.581616
0.591152
0.598446
0.604007
0.60824
0.611219
0.612807
0.613301
0.613271
0.497653
0.497556
0.498122
0.499947
0.503427
0.508616
0.515559
0.524639
0.536278
0.55073
0.567086
0.581934
0.593364
0.602127
0.608872
0.613996
0.617576
0.619436
0.619994
0.619959
0.478942
0.478818
0.479579
0.481912
0.486298
0.492898
0.501722
0.513191
0.527719
0.545469
0.565227
0.582947
0.596535
0.606954
0.615008
0.621143
0.625372
0.627498
0.628106
0.628059
0.455345
0.455203
0.456293
0.459414
0.465163
0.473823
0.485309
0.500025
0.518279
0.540066
0.563804
0.584777
0.600748
0.61301
0.62249
0.629741
0.634638
0.637003
0.637634
0.637566
0.424567
0.424444
0.426137
0.430624
0.438652
0.450521
0.465925
0.485115
0.508166
0.534835
0.563117
0.587641
0.606156
0.620365
0.631403
0.639815
0.645326
0.647858
0.64847
0.648371
0.382499
0.382536
0.385564
0.3929
0.40514
0.42225
0.443444
0.468643
0.497644
0.529994
0.563312
0.591643
0.612821
0.629053
0.641681
0.651267
0.657252
0.659814
0.660351
0.660213
0.321451
0.322628
0.330051
0.343744
0.36368
0.38912
0.418465
0.45133
0.487398
0.526116
0.564774
0.596969
0.620795
0.639009
0.653163
0.663738
0.670022
0.672396
0.672756
0.672582
0.2488
0.250525
0.264757
0.288326
0.319084
0.35438
0.39265
0.433719
0.477394
0.523172
0.568096
0.605165
0.632525
0.653367
0.669441
0.681252
0.687812
0.690112
0.69046
0.690378
0.173714
0.179823
0.200865
0.234577
0.275656
0.320531
0.367694
0.417028
0.468414
0.521397
0.572799
0.614935
0.64596
0.669656
0.687957
0.700739
0.707207
0.709188
0.709423
0.709398
0.112306
0.120705
0.146321
0.18702
0.236147
0.289194
0.344383
0.401456
0.460202
0.520116
0.577717
0.62463
0.65903
0.685176
0.705122
0.718754
0.725263
0.727115
0.72754
0.727589
0.0623309
0.0713244
0.100484
0.146403
0.20164
0.261269
0.32324
0.387143
0.4526
0.518995
0.582449
0.633862
0.671401
0.699822
0.721344
0.735919
0.742814
0.745167
0.745699
0.745782
0.0204055
0.0296881
0.0613078
0.111224
0.171466
0.236558
0.304279
0.37415
0.445641
0.517999
0.586929
0.642571
0.683061
0.71367
0.736828
0.752413
0.760048
0.762763
0.763379
0.763477
-0.0158158
-0.00640697
0.0270757
0.0802001
0.144572
0.214325
0.287055
0.362209
0.439151
0.516995
0.591033
0.650635
0.693898
0.72652
0.751148
0.7677
0.776076
0.779038
0.779745
0.779844
-0.0479813
-0.0385182
-0.00359782
0.0522376
0.120078
0.193845
0.271
0.350903
0.432831
0.515766
0.594601
0.657922
0.703745
0.73815
0.764007
0.781395
0.790418
0.79367
0.794403
0.794491
-0.0773405
-0.0678196
-0.0317221
0.0264544
0.0972836
0.174562
0.255648
0.339855
0.426376
0.514087
0.597475
0.664334
0.712534
0.748556
0.775441
0.793488
0.802952
0.806439
0.807237
0.807319
-0.104735
-0.0951548
-0.0579954
0.00217552
0.0756703
0.156053
0.240652
0.328769
0.419545
0.511769
0.599552
0.669849
0.72033
0.757846
0.785674
0.804202
0.813918
0.817578
0.818413
0.818475
-0.13072
-0.121053
-0.082899
-0.0210329
0.0548577
0.138
0.225764
0.317446
0.412172
0.508689
0.600767
0.674476
0.727212
0.76617
0.794844
0.813706
0.823524
0.82726
0.828106
0.828132
-0.15577
-0.145912
-0.106907
-0.0434139
0.0345852
0.120196
0.210816
0.305751
0.404151
0.504759
0.60106
0.678222
0.733262
0.773676
0.803092
0.822177
0.832027
0.835744
0.83657
0.836562
-0.180112
-0.17002
-0.130234
-0.0651671
0.0146912
0.102508
0.195702
0.293605
0.395409
0.499914
0.600385
0.681089
0.738572
0.78052
0.810637
0.829858
0.839686
0.843347
0.844117
0.844087
-0.203843
-0.193526
-0.152886
-0.0864544
-0.00491456
0.084879
0.180379
0.280972
0.385914
0.494103
0.598688
0.683078
0.743213
0.786817
0.817617
0.836923
0.84667
0.850203
0.850885
0.850826
-0.227093
-0.216458
-0.175057
-0.107326
-0.0242726
0.0672813
0.164841
0.267855
0.375669
0.487315
0.595922
0.684164
0.747227
0.792668
0.824175
0.843496
0.853044
0.856368
0.856927
0.856822
-0.249839
-0.23891
-0.196742
-0.127808
-0.0433831
0.049736
0.149127
0.254298
0.364703
0.479545
0.592051
0.684294
0.750617
0.798159
0.830468
0.849708
0.858872
0.861863
0.862269
0.862127
-0.27212
-0.260868
-0.217885
-0.147874
-0.0622184
0.0322825
0.133283
0.240365
0.353077
0.470821
0.587046
0.683402
0.753322
0.803352
0.836712
0.855802
0.864307
0.866763
0.866979
0.866806
-0.29375
-0.282249
-0.238478
-0.167479
-0.080724
0.0149959
0.117382
0.226132
0.340866
0.461209
0.580899
0.6814
0.755232
0.808252
0.843149
0.862162
0.869633
0.871181
0.87109
0.870896
-0.314869
-0.30301
-0.258498
-0.186595
-0.098864
-0.00208152
0.101518
0.211683
0.328165
0.450793
0.573627
0.678188
0.756187
0.812747
0.849935
0.869354
0.875522
0.875477
0.874676
0.874449
-0.335308
-0.323122
-0.27791
-0.205172
-0.116556
-0.0188621
0.0857757
0.197141
0.315085
0.439645
0.565278
0.673668
0.755982
0.816583
0.856961
0.877943
0.883308
0.880967
0.878302
0.877227
-0.355123
-0.342624
-0.296657
-0.223155
-0.133762
-0.0352747
0.07024
0.18259
0.301742
0.427908
0.555928
0.667752
0.754397
0.819362
0.863664
0.88786
0.894501
0.89092
0.884281
0.875535
-0.374229
-0.361474
-0.314834
-0.240699
-0.150689
-0.0515968
0.0545749
0.167626
0.287681
0.415072
0.545036
0.659859
0.750899
0.820643
0.869242
0.898154
0.90923
0.906545
0.896449
0.890456
-0.392575
-0.379591
-0.332429
-0.257765
-0.167336
-0.0678261
0.0387975
0.152233
0.272863
0.401025
0.532415
0.649618
0.744741
0.819646
0.871618
0.904145
0.917752
0.919686
0.882161
0.830098