/*--------------------------------*- C++ -*----------------------------------*\
  =========                 |
  \\      /  F ield         | OpenFOAM: The Open Source CFD Toolbox
   \\    /   O peration     | Website:  https://openfoam.org
    \\  /    A nd           | Version:  10
     \\/     M anipulation  |
\*---------------------------------------------------------------------------*/
FoamFile
{
    format      ascii;
    class       surfaceScalarField;
    location    "51";
    object      phi;
}
// * * * * * * * * * * * * * * * * * * * * * * * * * * * * * * * * * * * * * //

dimensions      [0 3 -1 0 0 0 0];

internalField   nonuniform List<scalar> 
17370
(
-0.0916071
0.0960096
0.284608
-0.0775952
0.0594208
0.36495
-0.0430438
0.0316249
0.427587
-0.0223219
0.0162701
0.505303
-0.0116778
0.00880426
0.602276
-0.00659334
0.00510898
0.720542
-0.00387316
0.00299372
0.863786
-0.00222119
0.00164297
1.03603
-0.00111135
0.000690351
1.24292
-0.000279471
-0.000113069
1.49158
0.000500417
-0.000912295
1.4916
0.00131496
-0.00181847
1.24319
0.00236897
-0.00311339
1.03638
0.00397314
-0.00519517
0.864129
0.00667184
-0.00887517
0.721261
0.0117391
-0.0163172
0.603793
0.0223545
-0.0316419
0.508727
0.0430441
-0.0594112
0.432535
0.0775893
-0.0960041
0.36519
0.0916206
0.19739
-0.12709
0.08802
0.0390696
-0.364354
0.354027
-0.0714782
0.0818049
-0.446654
0.454252
-0.0791744
0.0715769
-0.521011
0.529106
-0.0637268
0.0556316
-0.61299
0.620758
-0.0482467
0.040479
-0.727163
0.733683
-0.0338681
0.0273481
-0.86758
0.872431
-0.0221452
0.0172942
-1.03856
1.0419
-0.0135963
0.0102564
-1.24472
1.24712
-0.00770493
0.00529868
-1.49284
1.49485
-0.00333427
0.00131962
-1.49269
1.49451
0.000500788
-0.00232073
-1.24411
1.24602
0.00429344
-0.00620395
-1.03761
1.04009
0.00853934
-0.0110194
-0.866187
0.869819
0.01428
-0.0179115
-0.724594
0.729751
0.0227017
-0.0278591
-0.609065
0.615635
0.0343352
-0.0409058
-0.515124
0.52246
0.0486262
-0.0559624
-0.43988
0.447659
0.063986
-0.0717658
-0.374709
0.377355
0.0792642
-0.0819109
-0.256899
0.224438
0.071561
-0.0391003
-0.0688078
0.0591942
0.00961361
-0.052117
0.0589463
-0.374835
0.368005
-0.0581017
0.0542623
-0.453944
0.457784
-0.0487783
0.0442215
-0.527615
0.532172
-0.0396741
0.0357799
-0.620799
0.624693
-0.0315683
0.027574
-0.734657
0.738651
-0.0232177
0.0193304
-0.873952
0.877839
-0.015285
0.0118279
-1.04336
1.04682
-0.00830872
0.00527629
-1.24865
1.25168
-0.0020681
-0.000913684
-1.49694
1.49993
0.00387428
-0.00702251
-1.49742
1.50057
0.00996761
-0.0133698
-1.25007
1.25347
0.0167096
-0.020622
-1.04565
1.04956
0.0243926
-0.0286331
-0.877138
0.881378
0.0325345
-0.0366553
-0.738983
0.743104
0.0404738
-0.0449465
-0.625972
0.630444
0.0494411
-0.0548645
-0.535017
0.540441
0.0586339
-0.0593952
-0.458077
0.458838
0.0524505
-0.0320633
-0.336766
0.316379
0.00967302
-0.0686644
0.0589914
-0.0534043
0.0492916
0.00411266
-0.0332512
0.0436787
-0.358557
0.34813
-0.0473583
0.0467748
-0.459577
0.46016
-0.04385
0.0406408
-0.536129
0.539339
-0.0369669
0.0336142
-0.628391
0.631744
-0.0299819
0.0267419
-0.742029
0.745269
-0.02329
0.0200929
-0.881331
0.884528
-0.0165004
0.0131496
-1.05024
1.05359
-0.00945196
0.00604829
-1.25494
1.25834
-0.00225812
-0.00135817
-1.50328
1.50689
0.00494359
-0.00864479
-1.50407
1.50777
0.0119274
-0.0154619
-1.25703
1.26057
0.0186477
-0.0220512
-1.05327
1.05667
0.0250808
-0.0283655
-0.884986
0.888271
0.0314703
-0.0349703
-0.746786
0.750286
0.0382114
-0.0417695
-0.634565
0.638123
0.0448788
-0.0476914
-0.544584
0.547397
0.048159
-0.0443177
-0.456955
0.453114
0.0336915
-0.0163784
-0.297063
0.27975
0.00417836
-0.0531419
0.0489636
-0.0461214
0.0435646
0.00255682
-0.0230561
0.0334102
-0.337536
0.327182
-0.0391488
0.0401016
-0.45991
0.458957
-0.0388545
0.0365296
-0.541995
0.54432
-0.0338907
0.0313467
-0.63471
0.637254
-0.0283719
0.0255257
-0.748351
0.751198
-0.0222896
0.0192773
-0.88758
0.890592
-0.0159285
0.0127969
-1.05676
1.0599
-0.00924316
0.00584535
-1.26174
1.26514
-0.00193665
-0.0018599
-1.51062
1.51442
0.00561698
-0.00940657
-1.51155
1.51534
0.0126446
-0.0159849
-1.26402
1.26736
0.018901
-0.0220045
-1.05987
1.06298
0.0247965
-0.0278064
-0.891465
0.894475
0.030466
-0.0332578
-0.753465
0.756257
0.0356493
-0.038134
-0.641077
0.643562
0.0403272
-0.0413999
-0.549233
0.550306
0.0402667
-0.0342646
-0.447991
0.441989
0.0236209
-0.0103736
-0.264563
0.251316
0.00263826
-0.0457202
0.0430819
-0.0414454
0.0396437
0.00180172
-0.0169543
0.0262449
-0.31731
0.308019
-0.0328467
0.0349715
-0.457396
0.455271
-0.0345411
0.032845
-0.546349
0.548045
-0.0306197
0.028493
-0.639563
0.64169
-0.0260563
0.0236785
-0.753794
0.756172
-0.0208646
0.0181196
-0.893445
0.89619
-0.0149383
0.0119073
-1.06294
1.06597
-0.00844631
0.00513441
-1.26845
1.27176
-0.00129839
-0.00244588
-1.51818
1.52193
0.00613989
-0.00982659
-1.51908
1.52277
0.0129369
-0.0161285
-1.27064
1.27383
0.0188865
-0.0217533
-1.066
1.06887
0.0242117
-0.02673
-0.89726
0.899778
0.0288654
-0.0310667
-0.758698
0.760899
0.0329991
-0.0350265
-0.645787
0.647815
0.0365312
-0.036725
-0.550888
0.551082
0.034323
-0.0273362
-0.4354
0.428414
0.0176582
-0.00747275
-0.239743
0.229557
0.00190125
-0.0408732
0.038972
-0.038093
0.03674
0.00135305
-0.0129566
0.0209618
-0.299375
0.29137
-0.0277365
0.0306644
-0.452715
0.449788
-0.0308762
0.0297548
-0.549483
0.550604
-0.0277576
0.0258326
-0.643745
0.64567
-0.0236225
0.0214829
-0.758411
0.76055
-0.0189773
0.0165115
-0.898734
0.9012
-0.013595
0.0107437
-1.06886
1.07171
-0.00741913
0.00420775
-1.27499
1.27821
-0.000480617
-0.00314513
-1.52559
1.52922
0.00670828
-0.0102484
-1.52638
1.52992
0.0132075
-0.0161934
-1.27695
1.27993
0.0187013
-0.0212234
-1.07159
1.07411
0.0233323
-0.0254685
-0.902092
0.904228
0.0273011
-0.0292096
-0.762944
0.764852
0.0308878
-0.0326482
-0.649683
0.651444
0.0334903
-0.0329478
-0.550912
0.550369
0.0296241
-0.0223233
-0.421213
0.413912
0.0138223
-0.00576935
-0.22054
0.212487
0.00147424
-0.037312
0.0358377
-0.0355578
0.0345151
0.00104269
-0.0101331
0.0169141
-0.284002
0.277221
-0.0234409
0.0268336
-0.446609
0.443216
-0.0276255
0.0269389
-0.551501
0.552187
-0.0251791
0.0234011
-0.64756
0.649338
-0.0213444
0.019343
-0.762618
0.76462
-0.0169872
0.014675
-0.903523
0.905835
-0.0119551
0.00928768
-1.0744
1.07707
-0.00614858
0.0030831
-1.2813
1.28437
0.000499868
-0.00398625
-1.53275
1.53623
0.00739615
-0.0107483
-1.53337
1.53672
0.0135023
-0.0162237
-1.28281
1.28553
0.0184682
-0.0207015
-1.0765
1.07873
0.0225711
-0.0244664
-0.906256
0.908151
0.0260852
-0.0277664
-0.766647
0.768328
0.029239
-0.0306723
-0.653054
0.654488
0.0310083
-0.0297517
-0.549481
0.548224
0.0258136
-0.0185956
-0.406628
0.39941
0.011193
-0.00463906
-0.205254
0.1987
0.00119028
-0.0345228
0.0333326
-0.0335985
0.032785
0.000813437
-0.0080421
0.0137512
-0.271005
0.265296
-0.0198044
0.0234055
-0.439709
0.436108
-0.0246838
0.0242488
-0.552781
0.553216
-0.0227654
0.0211013
-0.651112
0.652776
-0.0191466
0.0172406
-0.766572
0.768478
-0.0149929
0.0127822
-0.90803
0.91024
-0.0101766
0.0076276
-1.0796
1.08215
-0.00463946
0.00172127
-1.28731
1.29023
0.00168883
-0.00500273
-1.53961
1.54292
0.00822381
-0.0113521
-1.53995
1.54308
0.0138876
-0.0163637
-1.28814
1.29062
0.0183926
-0.0203988
-1.08088
1.08288
0.0220642
-0.023746
-0.909961
0.911643
0.0251828
-0.0266768
-0.769921
0.771415
0.0279623
-0.0290279
-0.655711
0.656776
0.0290014
-0.0270853
-0.546642
0.544726
0.0227584
-0.0158194
-0.392327
0.385388
0.00933854
-0.00385464
-0.192733
0.187249
0.000993089
-0.0322547
0.0312616
-0.032069
0.0314321
0.000636848
-0.00643356
0.0112268
-0.260073
0.255279
-0.0166988
0.0203121
-0.432499
0.428885
-0.0219268
0.0217273
-0.553571
0.553771
-0.0204882
0.018894
-0.654458
0.656053
-0.017004
0.0151543
-0.770353
0.772203
-0.0129726
0.0108284
-0.912342
0.914486
-0.00830322
0.00583706
-1.08458
1.08704
-0.00295455
0.00015793
-1.29303
1.29582
0.00309884
-0.00624143
-1.54611
1.54925
0.00926806
-0.0121779
-1.54608
1.54899
0.0145159
-0.016779
-1.293
1.29527
0.0186144
-0.0204096
-1.08482
1.08662
0.021886
-0.023371
-0.913252
0.914737
0.024641
-0.0259587
-0.772832
0.77415
0.0270944
-0.0277526
-0.657616
0.658274
0.0273649
-0.0249026
-0.542549
0.540087
0.0203457
-0.0137582
-0.378636
0.372048
0.00801381
-0.00330195
-0.182191
0.177479
0.000854821
-0.0303496
0.0294948
-0.0308746
0.0303803
0.000494276
-0.00514195
0.00914623
-0.250906
0.246902
-0.013992
0.0174682
-0.425347
0.421871
-0.019278
0.0192767
-0.553917
0.553918
-0.0182418
0.0166863
-0.657699
0.659254
-0.0148248
0.0129974
-0.774035
0.775862
-0.0108446
0.00873595
-0.916525
0.918633
-0.00626263
0.00385664
-1.08939
1.09179
-0.00105356
-0.00165141
-1.29851
1.30121
0.00477168
-0.00775176
-1.55227
1.55525
0.0105914
-0.0132926
-1.55178
1.55448
0.0154371
-0.0174854
-1.29744
1.29949
0.0191241
-0.0207079
-1.08835
1.08993
0.0220017
-0.0233081
-0.916165
0.917472
0.0244345
-0.0256003
-0.775409
0.776574
0.0265548
-0.0268486
-0.658724
0.659018
0.0260812
-0.023166
-0.537409
0.534493
0.0184839
-0.0122464
-0.365656
0.359418
0.00707212
-0.002916
-0.17308
0.168924
0.00075986
-0.0286993
0.0279395
-0.0299533
0.0295793
0.000373999
-0.00406203
0.0073741
-0.243266
0.239954
-0.0115818
0.0148124
-0.418532
0.415302
-0.0166952
0.0168606
-0.553892
0.553727
-0.0159215
0.0144497
-0.660851
0.662323
-0.0125959
0.0107633
-0.777682
0.779514
-0.00860377
0.00649453
-0.920641
0.922751
-0.00403257
0.00165096
-1.09409
1.09647
0.0010998
-0.00373722
-1.30381
1.30645
0.00675033
-0.00959345
-1.55811
1.56096
0.0122669
-0.0147721
-1.55706
1.55956
0.0167304
-0.0185719
-1.30145
1.3033
0.0200245
-0.0214083
-1.09147
1.09286
0.0225253
-0.0236538
-0.918724
0.919853
0.0246316
-0.0256299
-0.777675
0.778673
0.0263361
-0.0263313
-0.659165
0.659161
0.0251681
-0.0218578
-0.531389
0.528079
0.0171017
-0.0111675
-0.353362
0.347427
0.00641891
-0.00265481
-0.164997
0.161233
0.000697562
-0.0272232
0.0265257
-0.0292649
0.0289978
0.000267107
-0.00311792
0.00580617
-0.236974
0.234286
-0.00937539
0.0122754
-0.412257
0.409357
-0.0141147
0.0143742
-0.553574
0.553315
-0.0134901
0.012075
-0.663854
0.665269
-0.0102076
0.00834133
-0.781345
0.783211
-0.00614183
0.00400254
-0.924761
0.926901
-0.00151951
-0.000859512
-1.09874
1.10112
0.0035952
-0.00619121
-1.30899
1.31158
0.00912325
-0.0118508
-1.56369
1.56642
0.0143725
-0.0166886
-1.56194
1.56426
0.0184613
-0.0200929
-1.30505
1.30668
0.021354
-0.0225299
-1.09421
1.09539
0.0234623
-0.0244084
-0.920943
0.921889
0.0252386
-0.0260655
-0.779593
0.78042
0.0265044
-0.0262458
-0.65902
0.658761
0.0246524
-0.0209671
-0.524602
0.520917
0.0161471
-0.0104432
-0.341649
0.335945
0.00599378
-0.00249156
-0.157634
0.154132
0.000660978
-0.0258599
0.0251989
-0.0287868
0.0286208
0.000166006
-0.00224595
0.00434919
-0.23191
0.229807
-0.00727479
0.00977426
-0.406682
0.404183
-0.0114631
0.011738
-0.553121
0.552846
-0.0108745
0.00947517
-0.666783
0.668182
-0.00756565
0.00563726
-0.785081
0.78701
-0.0033656
0.00116609
-0.928936
0.931135
0.00136956
-0.00378673
-1.1034
1.10582
0.00653503
-0.00911385
-1.31408
1.31666
0.0119829
-0.0146019
-1.56903
1.57165
0.0169719
-0.0190963
-1.56645
1.56857
0.0206815
-0.022099
-1.30822
1.30964
0.0231596
-0.0241115
-1.09653
1.09749
0.0248453
-0.0255958
-0.922795
0.923545
0.0262709
-0.0269519
-0.781163
0.781844
0.0270964
-0.0264967
-0.658279
0.657679
0.0244909
-0.0204577
-0.517103
0.51307
0.0155634
-0.0100089
-0.330366
0.324811
0.00575071
-0.00240626
-0.150745
0.1474
0.000645089
-0.0245607
0.0239156
-0.0285106
0.0284465
6.40777e-05
-0.00139556
0.00292754
-0.228007
0.226475
-0.00519424
0.00722943
-0.401941
0.399906
-0.00866749
0.00888308
-0.552687
0.552472
-0.00800506
0.00659703
-0.669713
0.671121
-0.00461727
0.0026012
-0.788941
0.790957
-0.000221308
-0.00207797
-0.93323
0.935529
0.0047119
-0.00720279
-1.10813
1.11063
0.0100037
-0.0125962
-1.31915
1.32174
0.0154316
-0.0179638
-1.57416
1.57669
0.0201947
-0.0221295
-1.57056
1.5725
0.0235234
-0.0247202
-1.31096
1.31215
0.0255765
-0.0262948
-1.09843
1.09915
0.0268076
-0.0273379
-0.924262
0.924792
0.02784
-0.0283208
-0.782375
0.782856
0.0281742
-0.0271763
-0.656819
0.655821
0.0247346
-0.0203319
-0.50892
0.504517
0.0153225
-0.00982677
-0.319349
0.313854
0.00566188
-0.00238663
-0.144132
0.140857
0.000646647
-0.0232866
0.02264
-0.0284389
0.0284836
-4.46917e-05
-0.00051952
0.00147465
-0.225248
0.224293
-0.00305428
0.00455866
-0.398164
0.39666
-0.00563881
0.00570577
-0.552438
0.552371
-0.00475128
0.00327556
-0.67271
0.674186
-0.00118951
-0.000954881
-0.792979
0.795123
0.00348574
-0.00591462
-0.937721
0.94015
0.00867856
-0.0112698
-1.11302
1.11561
0.0141536
-0.0167861
-1.32424
1.32688
0.0196107
-0.0220657
-1.57912
1.58157
0.0241557
-0.0258889
-1.57429
1.57603
0.0270727
-0.0280211
-1.31323
1.31418
0.0286443
-0.0291097
-1.09986
1.10033
0.0293914
-0.0296831
-0.925301
0.925593
0.0299974
-0.0302153
-0.783073
0.783291
0.0298058
-0.0283257
-0.654539
0.653059
0.0254113
-0.0206068
-0.50002
0.495215
0.0154233
-0.00988568
-0.308415
0.302877
0.0057183
-0.00242899
-0.137621
0.134331
0.000664872
-0.0220032
0.0213384
-0.0285831
0.0287435
-0.000160379
0.000405267
-5.77951e-05
-0.223658
0.22331
-0.000784347
0.001677
-0.395478
0.394585
-0.00229452
0.00212621
-0.552557
0.552725
-0.00103651
-0.000573719
-0.675903
0.677513
0.00282016
-0.00513705
-0.797278
0.799595
0.00786141
-0.0104616
-0.942471
0.945071
0.0134026
-0.0161376
-1.11811
1.12084
0.0191467
-0.0218486
-1.32942
1.33212
0.0246811
-0.0270642
-1.58391
1.58629
0.0290059
-0.0305205
-1.5776
1.57912
0.0314796
-0.0321572
-1.31499
1.31567
0.0325263
-0.0327148
-1.10078
1.10097
0.0327423
-0.0327714
-0.925864
0.925893
0.0328728
-0.0327743
-0.783154
0.783055
0.0320401
-0.03
-0.651322
0.649282
0.0265602
-0.0212915
-0.490324
0.485055
0.0158554
-0.0101698
-0.297357
0.291671
0.00590782
-0.00252737
-0.131049
0.127668
0.000697944
-0.0206782
0.0199803
-0.0289833
0.0292831
-0.000299834
0.00139935
-0.00170395
-0.223324
0.223628
0.00170508
-0.00153165
-0.394011
0.393838
0.00150346
-0.00200581
-0.553247
0.553749
0.0033044
-0.00508874
-0.679418
0.681203
0.00754162
-0.0100718
-0.801914
0.804444
0.0130463
-0.0158761
-0.947571
0.950401
0.0190567
-0.0219853
-1.12349
1.12642
0.0251633
-0.0279663
-1.33474
1.33755
0.0308339
-0.033159
-1.58856
1.59089
0.0349507
-0.0362198
-1.58046
1.58173
0.0369236
-0.0372863
-1.31619
1.31655
0.0373706
-0.0372561
-1.1011
1.10098
0.0370063
-0.0367467
-0.925877
0.925617
0.0366235
-0.0360952
-0.782494
0.781965
0.0349447
-0.0322533
-0.647044
0.644353
0.0282204
-0.0224075
-0.479704
0.473891
0.0166247
-0.0106759
-0.285962
0.280014
0.00622579
-0.00267884
-0.124263
0.120716
0.00074476
-0.0192826
0.0185379
-0.0296549
0.0301313
-0.000476397
0.00268526
-0.00373725
-0.224318
0.22537
0.00461013
-0.0052351
-0.393992
0.394617
0.00592788
-0.0068791
-0.554745
0.555696
0.0084736
-0.0105071
-0.683342
0.685375
0.0132478
-0.0160649
-0.806984
0.809801
0.0193608
-0.0224744
-0.953135
0.956249
0.0259448
-0.0291071
-1.12927
1.13243
0.032491
-0.0354159
-1.34026
1.34319
0.038318
-0.0405613
-1.59307
1.59531
0.0421628
-0.0431469
-1.58278
1.58377
0.0435383
-0.0435569
-1.31673
1.31675
0.0433166
-0.0428563
-1.10075
1.10029
0.0422932
-0.0417116
-0.925255
0.924673
0.0412853
-0.0402968
-0.780917
0.779928
0.0386116
-0.0351793
-0.641528
0.638096
0.0304576
-0.0239871
-0.467988
0.461517
0.0177425
-0.0114048
-0.273998
0.26766
0.00667017
-0.00288168
-0.117115
0.113327
0.000804682
-0.0177892
0.0169846
-0.0306786
0.0313727
-0.000694107
0.00417384
-0.00611493
-0.226842
0.228783
0.00805892
-0.00958079
-0.395638
0.39716
0.0110933
-0.0126209
-0.557313
0.55884
0.0146556
-0.0170368
-0.687853
0.690234
0.0201743
-0.023355
-0.812631
0.815812
0.0270463
-0.0305079
-0.959268
0.96273
0.034335
-0.0377835
-1.13552
1.13896
0.0414133
-0.0444763
-1.34601
1.34908
0.0474073
-0.04954
-1.59739
1.59952
0.0509055
-0.0515472
-1.58451
1.58515
0.0515622
-0.0511856
-1.31652
1.31615
0.0505732
-0.0497136
-1.09963
1.09877
0.048793
-0.0478394
-0.923921
0.922967
0.0469993
-0.0455243
-0.778387
0.776912
0.0431784
-0.0388812
-0.634572
0.630274
0.0333422
-0.0260677
-0.454936
0.447662
0.0192253
-0.0123594
-0.261209
0.254343
0.0072388
-0.00313292
-0.109454
0.105349
0.000876233
-0.0161729
0.0152966
-0.0321337
0.0331134
-0.000979728
0.00604772
-0.00905231
-0.231151
0.234156
0.012247
-0.0148279
-0.399204
0.401784
0.0173079
-0.0195296
-0.561218
0.563439
0.0221291
-0.0249638
-0.693148
0.695983
0.0286019
-0.0322474
-0.819011
0.822657
0.0364463
-0.0403532
-0.966117
0.970024
0.044625
-0.0484153
-1.14234
1.14613
0.0523221
-0.0555238
-1.35203
1.35523
0.0584542
-0.0604199
-1.60146
1.60342
0.0614714
-0.0616764
-1.5855
1.58571
0.0612572
-0.0603938
-1.31543
1.31457
0.0593488
-0.0580338
-1.09761
1.0963
0.0567099
-0.0553377
-0.921764
0.920392
0.0539826
-0.0519127
-0.774839
0.772769
0.0487762
-0.0434478
-0.625903
0.620575
0.0369309
-0.0286733
-0.44026
0.432003
0.0210744
-0.013529
-0.247316
0.239771
0.00791882
-0.00342367
-0.101133
0.0966383
0.000955793
-0.0144125
0.0134567
-0.034149
0.0355186
-0.00136956
0.00849962
-0.0128547
-0.237576
0.241931
0.0175348
-0.0213518
-0.405066
0.408883
0.0249721
-0.0280474
-0.566778
0.569854
0.0314002
-0.0348536
-0.699459
0.702913
0.03916
-0.0433966
-0.826329
0.830566
0.0482112
-0.0526347
-0.973868
0.978291
0.0574014
-0.0615517
-1.14984
1.15399
0.0657236
-0.0690221
-1.35829
1.36159
0.0718683
-0.0735619
-1.60513
1.60682
0.0741845
-0.0738339
-1.58556
1.5852
0.0728906
-0.0714185
-1.31324
1.31177
0.0698652
-0.0680178
-1.09457
1.09272
0.0662421
-0.064404
-0.918666
0.916827
0.0624258
-0.0596449
-0.770047
0.767266
0.0555507
-0.0489776
-0.615184
0.608611
0.0412741
-0.0318113
-0.4236
0.414138
0.0232741
-0.0148876
-0.232023
0.223637
0.00868627
-0.00373971
-0.0920149
0.0870684
0.00103841
-0.0124946
0.0114562
-0.0369202
0.0388489
-0.00192868
0.0119003
-0.0179576
-0.246635
0.252692
0.0244382
-0.029707
-0.413708
0.418976
0.0346792
-0.0387994
-0.574406
0.578526
0.043128
-0.0474155
-0.707149
0.711436
0.0525949
-0.0575602
-0.834833
0.839798
0.0630935
-0.0680892
-0.982652
0.987648
0.0733677
-0.0778506
-1.15803
1.16251
0.0822077
-0.0854868
-1.36467
1.36795
0.0880828
-0.0893262
-1.60815
1.60939
0.0893449
-0.0882682
-1.5844
1.58332
0.0866462
-0.0844587
-1.30976
1.30757
0.0822968
-0.0798622
-1.09032
1.08789
0.0775901
-0.0751505
-0.914498
0.912059
0.0725551
-0.0688454
-0.763714
0.760005
0.0635816
-0.0555036
-0.601968
0.59389
0.0463664
-0.0354421
-0.404525
0.393601
0.025765
-0.0163729
-0.215021
0.205629
0.00949158
-0.00405372
-0.0819889
0.0765511
0.00111486
-0.0104174
0.00930253
-0.0407714
0.0435665
-0.00279502
0.0168269
-0.0251337
-0.259034
0.267341
0.0338471
-0.0408611
-0.425793
0.432807
0.047462
-0.052835
-0.584573
0.589946
0.0583815
-0.0637341
-0.716642
0.721994
0.0699888
-0.0758073
-0.84478
0.850599
0.0821315
-0.0877013
-0.992566
0.998136
0.0934238
-0.0981148
-1.16681
1.1715
0.102461
-0.105501
-1.37088
1.37392
0.107578
-0.108112
-1.61013
1.61066
0.107276
-0.105237
-1.58167
1.57963
0.102763
-0.0997042
-1.30473
1.30167
0.0968406
-0.0937474
-1.08472
1.08163
0.0909288
-0.0877827
-0.908935
0.905789
0.0845104
-0.079653
-0.755383
0.750526
0.0729434
-0.0630353
-0.585695
0.575787
0.0521686
-0.0394829
-0.382539
0.369853
0.0284429
-0.0178841
-0.196013
0.185454
0.0102573
-0.00432472
-0.071002
0.0650694
0.00117163
-0.00819994
0.00702831
-0.0462752
0.0505323
-0.00425713
0.0244725
-0.0358387
-0.275937
0.287304
0.0474444
-0.0567725
-0.442331
0.451659
0.0653698
-0.0721841
-0.597851
0.604665
0.0792268
-0.0860357
-0.728294
0.735103
0.0934358
-0.10004
-0.856384
0.862988
0.107005
-0.112942
-1.00354
1.00947
0.118799
-0.123363
-1.17583
1.1804
0.127288
-0.129697
-1.37642
1.37883
0.130812
-0.130238
-1.61048
1.60991
0.128202
-0.124925
-1.57687
1.5736
0.121415
-0.117338
-1.29787
1.2938
0.11367
-0.109841
-1.07758
1.07375
0.106431
-0.10248
-0.901709
0.897758
0.0983643
-0.0920491
-0.744549
0.738233
0.0835585
-0.0714358
-0.565662
0.55354
0.0585113
-0.0437578
-0.357073
0.342319
0.031135
-0.0192731
-0.174755
0.162893
0.0108755
-0.00449733
-0.0590977
0.0527195
0.00119004
-0.00589005
0.00470002
-0.0544929
0.0618174
-0.00732455
0.0379174
-0.0537407
-0.299476
0.315299
0.069384
-0.0818773
-0.464961
0.477454
0.0926161
-0.100786
-0.614688
0.622857
0.10934
-0.117384
-0.742498
0.750543
0.125664
-0.132642
-0.869372
0.87635
0.13966
-0.145356
-1.01496
1.02066
0.150667
-0.154471
-1.18429
1.18809
0.157316
-0.15849
-1.38038
1.38155
0.158069
-0.155926
-1.60834
1.60619
0.15234
-0.14755
-1.56944
1.56465
0.142782
-0.137487
-1.28889
1.28359
0.132857
-0.128178
-1.06877
1.06409
0.124114
-0.119362
-0.892597
0.887846
0.114056
-0.10586
-0.730535
0.722339
0.0951554
-0.0803371
-0.540962
0.526144
0.065017
-0.0479765
-0.327528
0.310487
0.0336351
-0.0204263
-0.151133
0.137925
0.0112838
-0.00454693
-0.0464769
0.0397401
0.00115684
-0.00357218
0.00241534
-0.0686635
0.0727739
-0.00411035
0.0290615
-0.0427573
-0.333629
0.347325
0.056594
-0.0679851
-0.495099
0.50649
0.0781288
-0.0875787
-0.634682
0.644132
0.0980616
-0.107536
-0.758185
0.767659
0.117987
-0.127247
-0.882465
0.891725
0.137033
-0.145645
-1.0254
1.03401
0.154489
-0.161889
-1.19077
1.19817
0.168954
-0.174232
-1.38151
1.38679
0.178348
-0.180223
-1.60276
1.60463
0.179806
-0.177637
-1.55874
1.55657
0.174457
-0.170206
-1.27737
1.27312
0.166294
-0.16174
-1.05806
1.05351
0.157866
-0.152945
-0.881291
0.87637
0.146071
-0.134364
-0.712362
0.700656
0.11877
-0.0979404
-0.510545
0.489716
0.077309
-0.0550565
-0.29328
0.271028
0.0372806
-0.0217553
-0.125307
0.109782
0.0115641
-0.00448583
-0.0335899
0.0265116
0.00110412
-0.00136467
0.000260553
-0.0798966
0.0780791
0.00181751
0.00747147
-0.0164886
-0.363864
0.372881
0.0269763
-0.0350128
-0.522603
0.530639
0.0431085
-0.0511212
-0.655966
0.663978
0.060777
-0.0696638
-0.776809
0.785696
0.0790415
-0.087566
-0.900448
0.908973
0.0965405
-0.104097
-1.04233
1.04988
0.112022
-0.118266
-1.20535
1.2116
0.124126
-0.128151
-1.39169
1.39572
0.130588
-0.130934
-1.60556
1.60591
0.12896
-0.125184
-1.55348
1.5497
0.1204
-0.114462
-1.26816
1.26222
0.108946
-0.102843
-1.04728
1.04118
0.0972482
-0.0907048
-0.866818
0.860275
0.0836056
-0.073482
-0.685034
0.674911
0.0619172
-0.047996
-0.467343
0.453422
0.0355379
-0.0236497
-0.248938
0.237049
0.015139
-0.0084205
-0.0950919
0.0883734
0.00435321
-0.00167016
-0.0198785
0.0171955
0.000384321
0.000820638
-0.00120496
-0.0813552
0.0784945
0.00286063
-0.00165237
-0.00359501
-0.384272
0.389519
0.0107344
-0.01658
-0.542861
0.548707
0.0226201
-0.0295727
-0.673995
0.680948
0.0379124
-0.0456266
-0.793721
0.801435
0.0540048
-0.0614616
-0.916776
0.924232
0.0690611
-0.0758018
-1.05726
1.064
0.08264
-0.0880827
-1.21738
1.22282
0.092694
-0.095559
-1.39902
1.40188
0.097029
-0.0962712
-1.60542
1.60467
0.0932296
-0.0884055
-1.54515
1.54033
0.0828062
-0.0762112
-1.25595
1.24935
0.0696951
-0.0626675
-1.03389
1.02687
0.0561478
-0.0487715
-0.850837
0.843461
0.0419417
-0.0334344
-0.661204
0.652697
0.02501
-0.0162491
-0.437597
0.428836
0.0100069
-0.00540693
-0.224451
0.219851
0.00291919
-0.0014756
-0.0814719
0.0800283
0.000788723
-0.000361426
-0.0143616
0.0139343
4.33304e-05
0.00174174
-0.00178507
-0.0801373
0.0774432
0.00269409
-0.00521397
0.00266818
-0.397902
0.400448
0.00194504
-0.0063874
-0.557873
0.562315
0.011501
-0.0173252
-0.688875
0.694699
0.0244709
-0.0310989
-0.808538
0.815166
0.0382807
-0.0446925
-0.931181
0.937593
0.0515967
-0.057307
-1.07031
1.07602
0.0632689
-0.0675385
-1.22784
1.2321
0.0713958
-0.0736235
-1.40449
1.40672
0.0742874
-0.0726594
-1.60342
1.60179
0.0692147
-0.0640421
-1.53491
1.52974
0.0581312
-0.0508253
-1.24241
1.2351
0.0439409
-0.0364075
-1.01888
1.01134
0.0292873
-0.0218734
-0.833778
0.826364
0.0152077
-0.00823892
-0.64109
0.634121
0.0023045
0.00227606
-0.41867
0.414089
-0.00425364
0.00457661
-0.213168
0.212845
-0.00395024
0.00267274
-0.0775064
0.0787839
-0.00157238
0.000624822
-0.0131101
0.0140577
-0.000230698
0.00209292
-0.00186222
-0.0786891
0.0763102
0.00237887
-0.00630513
0.00533732
-0.407027
0.407995
-0.00193425
-0.00132809
-0.569929
0.573191
0.00550415
-0.0107955
-0.701371
0.706662
0.0168224
-0.0226601
-0.821106
0.826944
0.0288948
-0.0344693
-0.943566
0.94914
0.0403899
-0.045473
-1.08159
1.08668
0.0505093
-0.0544272
-1.23623
1.24015
0.0576811
-0.059429
-1.40857
1.41032
0.0596464
-0.0576663
-1.59996
1.59798
0.0539366
-0.0483286
-1.52382
1.51822
0.04226
-0.0349849
-1.22768
1.2204
0.0280364
-0.0202859
-1.00319
0.995437
0.0132315
-0.00579175
-0.81704
0.8096
-0.000428158
0.00595699
-0.624365
0.618836
-0.00995349
0.012172
-0.407017
0.404799
-0.0120735
0.0103279
-0.209831
0.211576
-0.00810367
0.00546117
-0.0790704
0.0817129
-0.00325138
0.00136304
-0.014683
0.0165713
-0.000400609
0.00184759
-0.00144698
-0.0773582
0.075326
0.00203213
-0.00616291
0.00568445
-0.413331
0.413809
-0.00365133
0.00102017
-0.579272
0.581903
0.00309962
-0.00763949
-0.711997
0.716536
0.012847
-0.0179336
-0.831997
0.837084
0.0234949
-0.0284886
-0.954376
0.95937
0.0339188
-0.0383828
-1.09148
1.09595
0.0429295
-0.0464641
-1.24379
1.24732
0.0493132
-0.0507605
-1.41181
1.41325
0.0507039
-0.0489238
-1.59589
1.59411
0.045104
-0.0397051
-1.51217
1.50677
0.0337701
-0.0267109
-1.21298
1.20592
0.0202294
-0.0126364
-0.987456
0.979863
0.00576099
0.00129577
-0.801002
0.793945
-0.00704032
0.0118462
-0.610408
0.605602
-0.0149111
0.0163613
-0.399711
0.398261
-0.015329
0.0127329
-0.210622
0.213218
-0.0100056
0.00679222
-0.0834126
0.086626
-0.00408904
0.00177132
-0.0180719
0.0203896
-0.000492278
0.00115216
-0.000659885
-0.0763666
0.0747896
0.00157692
-0.00527422
0.00511666
-0.418059
0.418217
-0.00347273
0.00147137
-0.587445
0.589447
0.00240734
-0.00652377
-0.721232
0.725348
0.0114814
-0.0158795
-0.841772
0.84617
0.0207832
-0.0252285
-0.964341
0.968786
0.0304079
-0.0344925
-1.10045
1.10454
0.0385628
-0.0419401
-1.25068
1.25406
0.0449773
-0.0463103
-1.41473
1.41606
0.0463597
-0.0446179
-1.59196
1.59022
0.0413538
-0.0361146
-1.50127
1.49603
0.0307821
-0.0243856
-1.19886
1.19246
0.0182059
-0.0112221
-0.972315
0.965331
0.00463971
0.00224431
-0.785847
0.778963
-0.00741499
0.0119847
-0.597825
0.593255
-0.0147263
0.0158922
-0.394239
0.393073
-0.015147
0.0128261
-0.212972
0.215293
-0.0101437
0.00694461
-0.0887945
0.0919936
-0.00422641
0.00186749
-0.0221336
0.0244925
-0.000512444
0.000241622
0.000270822
-0.0758792
0.0746473
0.00123192
-0.0041978
0.00416087
-0.421851
0.421888
-0.00270517
0.00080037
-0.594584
0.596489
0.00294503
-0.0066378
-0.729555
0.733248
0.0109027
-0.0151578
-0.850504
0.854759
0.0197062
-0.0243088
-0.97305
0.977653
0.0287966
-0.032733
-1.10873
1.11267
0.0369708
-0.0401448
-1.25733
1.2605
0.042758
-0.0445576
-1.41733
1.41912
0.0448797
-0.043558
-1.5886
1.58727
0.0406401
-0.0361762
-1.49112
1.48665
0.0313228
-0.025382
-1.18588
1.17994
0.019671
-0.0130994
-0.958219
0.951647
0.00698424
-0.000757039
-0.771623
0.765396
-0.00434
0.00865628
-0.586252
0.581936
-0.0111188
0.0125728
-0.389396
0.387942
-0.0124113
0.0106302
-0.215006
0.216787
-0.00851867
0.00591231
-0.0938001
0.0964065
-0.00365712
0.00165766
-0.0260636
0.0280631
-0.000483615
-0.000668074
0.00115169
-0.0759187
0.0748958
0.00102295
-0.00292931
0.00265234
-0.425269
0.425546
-0.00140123
-0.000546346
-0.601123
0.603071
0.00401479
-0.0075843
-0.737313
0.740883
0.0116839
-0.0155468
-0.858788
0.862651
0.0202278
-0.0240703
-0.981694
0.985536
0.0285568
-0.0323441
-1.11677
1.12055
0.036503
-0.0399058
-1.26367
1.26708
0.0428487
-0.0444928
-1.42071
1.42235
0.0452479
-0.0444334
-1.58594
1.58513
0.0422419
-0.0381358
-1.48214
1.47803
0.0337244
-0.028189
-1.17414
1.1686
0.0229248
-0.0168581
-0.944928
0.938861
0.0114455
-0.00569712
-0.758685
0.752937
0.000806633
0.00360032
-0.575653
0.571247
-0.00639103
0.00786965
-0.384094
0.382615
-0.00827325
0.00734492
-0.216037
0.216965
-0.00602282
0.00424811
-0.0975562
0.0993309
-0.00267445
0.0012611
-0.0291638
0.0305771
-0.000386436
-0.00144143
0.00182787
-0.0762401
0.0755334
0.000706684
-0.00178945
0.00110116
-0.428796
0.429485
-7.11484e-05
-0.00217371
-0.606874
0.609119
0.00527823
-0.00871193
-0.744549
0.747983
0.0126458
-0.0166443
-0.866362
0.870361
0.0207289
-0.0247507
-0.989592
0.993613
0.0292263
-0.0328331
-1.12477
1.12838
0.0371095
-0.0404971
-1.27029
1.27368
0.0435433
-0.0457674
-1.42443
1.42665
0.0470801
-0.0466028
-1.58439
1.58391
0.0446711
-0.0412491
-1.4741
1.47068
0.0373672
-0.0322722
-1.163
1.15791
0.0274522
-0.0222688
-0.932877
0.927694
0.0171257
-0.0120202
-0.746771
0.741665
0.00733127
-0.00261092
-0.56544
0.56072
-0.000562564
0.00263839
-0.378314
0.376238
-0.0034578
0.00348264
-0.215801
0.215776
-0.0029673
0.00215968
-0.0996094
0.100417
-0.00143648
0.000723954
-0.031085
0.0317976
-0.000241388
-0.00198794
0.00222933
-0.0769779
0.0764278
0.000550095
-0.000826928
0.000254382
-0.432556
0.433129
0.00153278
-0.00355276
-0.61288
0.6149
0.00680393
-0.010116
-0.751283
0.754595
0.0139016
-0.0175097
-0.874017
0.877625
0.0217318
-0.0254584
-0.997645
1.00137
0.0299047
-0.0339619
-1.13244
1.1365
0.037904
-0.0416453
-1.27712
1.28086
0.0451492
-0.0475125
-1.42879
1.43116
0.049246
-0.0495698
-1.58366
1.58399
0.0480818
-0.0453069
-1.46715
1.46437
0.0417367
-0.0373302
-1.15298
1.14857
0.0332251
-0.0285562
-0.922303
0.917634
0.0240089
-0.019041
-0.735857
0.730889
0.014305
-0.00924969
-0.554787
0.549732
0.00553111
-0.00286117
-0.371761
0.369091
0.00125669
-0.00035477
-0.213835
0.212934
-5.98826e-05
0.000256278
-0.0997694
0.099573
-0.000298202
0.000231404
-0.0316739
0.0317407
-0.000105808
-0.00224778
0.00235359
-0.0779857
0.0776226
0.000363075
0.000224423
-0.00106576
-0.436414
0.437255
0.00267341
-0.00501161
-0.618434
0.620772
0.00819871
-0.0113596
-0.757788
0.760949
0.0152297
-0.0186934
-0.8812
0.884663
0.0227723
-0.0266343
-1.00558
1.00944
0.0309981
-0.0350338
-1.14041
1.14445
0.0392137
-0.0430047
-1.28453
1.28832
0.0467301
-0.0498734
-1.43382
1.43696
0.0520842
-0.0527264
-1.58426
1.5849
0.0519689
-0.04964
-1.46155
1.45922
0.0468301
-0.0432542
-1.14429
1.14072
0.0394821
-0.0352192
-0.912823
0.90856
0.0308396
-0.025637
-0.725244
0.720041
0.0207626
-0.0153402
-0.543842
0.53842
0.0112576
-0.00780605
-0.364265
0.360814
0.00554718
-0.00375793
-0.210137
0.208348
0.00238825
-0.00128158
-0.0980719
0.0969652
0.000565301
-0.000109903
-0.0310292
0.0305738
-2.57201e-05
-0.00221742
0.00224314
-0.0792239
0.0789913