/*--------------------------------*- C++ -*----------------------------------*\
  =========                 |
  \\      /  F ield         | OpenFOAM: The Open Source CFD Toolbox
   \\    /   O peration     | Website:  https://openfoam.org
    \\  /    A nd           | Version:  10
     \\/     M anipulation  |
\*---------------------------------------------------------------------------*/
FoamFile
{
    format      ascii;
    class       volVectorField;
    location    "51";
    object      U;
}
// * * * * * * * * * * * * * * * * * * * * * * * * * * * * * * * * * * * * * //

dimensions      [0 1 -1 0 0 0 0];

internalField   nonuniform List<vector> 
8800
(
(0.980142 -0.0915214 0)
(1.00234 -0.0587304 0)
(0.999577 -0.032131 0)
(0.999971 -0.0165253 0)
(1.00006 -0.00884566 0)
(1.00007 -0.00510077 0)
(1.00005 -0.00299848 0)
(1.00002 -0.00168797 0)
(0.999998 -0.000786278 0)
(1.00006 -8.85424e-05 0)
(0.999988 0.000617808 0)
(0.999995 0.00136977 0)
(1.00001 0.00239432 0)
(1.00003 0.00400033 0)
(1.00004 0.00674909 0)
(0.999992 0.0120507 0)
(0.999788 0.0230952 0)
(0.999028 0.0431577 0)
(1.00723 0.0790265 0)
(0.775024 0.0478395 0)
(0.358982 -0.0147488 0)
(1.0465 -0.072487 0)
(1.08846 -0.0660261 0)
(1.04942 -0.0509233 0)
(1.02553 -0.037707 0)
(1.01272 -0.025903 0)
(1.00656 -0.0167085 0)
(1.00362 -0.0102187 0)
(1.00218 -0.00558699 0)
(1.00151 -0.0019939 0)
(1.00138 0.00121837 0)
(1.00173 0.00452481 0)
(1.0027 0.0084121 0)
(1.00474 0.0137267 0)
(1.00897 0.0214081 0)
(1.01795 0.0319026 0)
(1.03578 0.0446751 0)
(1.0674 0.0581159 0)
(1.09469 0.0699612 0)
(0.845625 0.0555077 0)
(0.217784 -0.0013813 0)
(1.07566 -0.0506572 0)
(1.09939 -0.0489421 0)
(1.06437 -0.0400295 0)
(1.03988 -0.0325731 0)
(1.02378 -0.0253597 0)
(1.01401 -0.0181393 0)
(1.00851 -0.0115163 0)
(1.00565 -0.00575982 0)
(1.00448 -0.000469808 0)
(1.00479 0.00464081 0)
(1.00663 0.00992612 0)
(1.01056 0.0158968 0)
(1.01788 0.0226556 0)
(1.03049 0.0297601 0)
(1.05048 0.0368474 0)
(1.08002 0.0446215 0)
(1.10563 0.0519449 0)
(0.943252 0.0410138 0)
(0.217187 0.00140551 0)
(0.176637 -0.000628819 0)
(1.01938 -0.035466 0)
(1.10569 -0.0414156 0)
(1.07795 -0.0364038 0)
(1.05243 -0.0303616 0)
(1.0352 -0.0244848 0)
(1.02335 -0.0186878 0)
(1.01555 -0.0126887 0)
(1.01094 -0.00659363 0)
(1.00891 -0.000356745 0)
(1.00943 0.00579952 0)
(1.01251 0.0117121 0)
(1.01846 0.017481 0)
(1.02805 0.0230574 0)
(1.04225 0.0286054 0)
(1.06307 0.0343859 0)
(1.09383 0.0402695 0)
(1.0944 0.0417915 0)
(0.830167 0.0227816 0)
(0.175616 0.000648305 0)
(0.154726 -0.000462633 0)
(0.95816 -0.0256938 0)
(1.10438 -0.0351226 0)
(1.08806 -0.0326785 0)
(1.06123 -0.0281752 0)
(1.04319 -0.0232141 0)
(1.03082 -0.0179113 0)
(1.02223 -0.0123698 0)
(1.01668 -0.00646163 0)
(1.01403 -8.51169e-06 0)
(1.01466 0.00644978 0)
(1.01844 0.012319 0)
(1.02522 0.0176361 0)
(1.03535 0.0226455 0)
(1.05009 0.0274665 0)
(1.07202 0.0319067 0)
(1.10097 0.0357828 0)
(1.06965 0.0339862 0)
(0.74249 0.0144582 0)
(0.153197 0.000484555 0)
(0.14004 -0.000334584 0)
(0.901139 -0.0193309 0)
(1.09679 -0.0302328 0)
(1.09619 -0.0293617 0)
(1.06893 -0.0255846 0)
(1.0501 -0.0215019 0)
(1.03715 -0.016803 0)
(1.02818 -0.0115566 0)
(1.02224 -0.00583861 0)
(1.01925 0.000514163 0)
(1.01987 0.00688452 0)
(1.02386 0.0125311 0)
(1.03087 0.0175133 0)
(1.04138 0.0219834 0)
(1.05675 0.0259247 0)
(1.07954 0.0294411 0)
(1.10328 0.0321579 0)
(1.03786 0.028148 0)
(0.675666 0.0103118 0)
(0.137888 0.000360591 0)
(0.129298 -0.000253191 0)
(0.851247 -0.0149366 0)
(1.08442 -0.0261398 0)
(1.10186 -0.0264957 0)
(1.07574 -0.023183 0)
(1.05641 -0.0195352 0)
(1.04304 -0.015344 0)
(1.0337 -0.0104869 0)
(1.02748 -0.00499408 0)
(1.02427 0.00116874 0)
(1.02478 0.00732026 0)
(1.02879 0.0126819 0)
(1.03596 0.017243 0)
(1.04675 0.0211154 0)
(1.06249 0.0244558 0)
(1.08573 0.0274925 0)
(1.10251 0.0293146 0)
(1.00318 0.0236036 0)
(0.623622 0.00790835 0)
(0.126385 0.00028477 0)
(0.121107 -0.000194413 0)
(0.808722 -0.011754 0)
(1.06909 -0.0225523 0)
(1.10536 -0.0238779 0)
(1.08197 -0.0210241 0)
(1.06218 -0.0176094 0)
(1.04854 -0.0137055 0)
(1.03894 -0.00917677 0)
(1.03246 -0.00396586 0)
(1.02903 0.00195834 0)
(1.02939 0.00783956 0)
(1.03335 0.0128463 0)
(1.04058 0.0169503 0)
(1.05147 0.0203527 0)
(1.06746 0.0232952 0)
(1.09109 0.0260159 0)
(1.09886 0.0269317 0)
(0.968105 0.0200248 0)
(0.581869 0.00633957 0)
(0.117269 0.0002329 0)
(0.114752 -0.000149909 0)
(0.772845 -0.00937339 0)
(1.05218 -0.0193953 0)
(1.10767 -0.0214615 0)
(1.08781 -0.0189948 0)
(1.06761 -0.0157484 0)
(1.05372 -0.0120225 0)
(1.04393 -0.00770376 0)
(1.03723 -0.00273929 0)
(1.03355 0.00291232 0)
(1.0337 0.00847269 0)
(1.03755 0.0130959 0)
(1.04471 0.016796 0)
(1.05564 0.0198241 0)
(1.07187 0.0224382 0)
(1.0952 0.0248193 0)
(1.09244 0.0249456 0)
(0.933999 0.017248 0)
(0.547408 0.0052611 0)
(0.109787 0.000196705 0)
(0.109783 -0.000114881 0)
(0.742688 -0.00753023 0)
(1.03478 -0.016597 0)
(1.10901 -0.0191966 0)
(1.09334 -0.0170572 0)
(1.07285 -0.0139215 0)
(1.05867 -0.0103014 0)
(1.0487 -0.00611654 0)
(1.04179 -0.00133559 0)
(1.03784 0.00405802 0)
(1.03774 0.00929128 0)
(1.04138 0.0135522 0)
(1.04841 0.0168965 0)
(1.05933 0.0195872 0)
(1.07579 0.0219045 0)
(1.09803 0.0239087 0)
(1.08361 0.0232919 0)
(0.901464 0.0151173 0)
(0.518186 0.00450232 0)
(0.103451 0.000171513 0)
(0.105909 -8.59972e-05 0)
(0.717427 -0.00604725 0)
(1.01771 -0.0140867 0)
(1.10949 -0.017007 0)
(1.09875 -0.015158 0)
(1.07799 -0.0120453 0)
(1.06351 -0.00847493 0)
(1.05331 -0.00437618 0)
(1.04617 0.000272018 0)
(1.04193 0.00543682 0)
(1.04148 0.0103505 0)
(1.04484 0.0142608 0)
(1.05171 0.0172516 0)
(1.06262 0.0196081 0)
(1.07928 0.0216692 0)
(1.09954 0.0232875 0)
(1.07277 0.0219635 0)
(0.870653 0.013521 0)
(0.492753 0.00397268 0)
(0.0979153 0.00015495 0)
(0.102937 -6.10571e-05 0)
(0.69642 -0.00480582 0)
(1.0016 -0.0117976 0)
(1.10927 -0.0148635 0)
(1.10399 -0.013235 0)
(1.0831 -0.0101098 0)
(1.06829 -0.00653409 0)
(1.05784 -0.00245482 0)
(1.05041 0.00211209 0)
(1.0458 0.00709391 0)
(1.04495 0.0117207 0)
(1.04797 0.0152976 0)
(1.05463 0.0179537 0)
(1.0655 0.0199834 0)
(1.08232 0.0217795 0)
(1.10008 0.0229842 0)
(1.06024 0.0209646 0)
(0.841439 0.0123641 0)
(0.47003 0.00361359 0)
(0.0929218 0.000145008 0)
(0.100745 -3.81825e-05 0)
(0.679197 -0.00371832 0)
(0.986893 -0.00965815 0)
(1.10853 -0.012669 0)
(1.109 -0.0111794 0)
(1.08826 -0.0080227 0)
(1.0731 -0.00438514 0)
(1.06234 -0.00027312 0)
(1.05455 0.00425454 0)
(1.04948 0.00910027 0)
(1.04814 0.0134645 0)
(1.05076 0.0167071 0)
(1.05717 0.0190174 0)
(1.06799 0.0207099 0)
(1.08488 0.0222248 0)
(1.09964 0.0230676 0)
(1.04621 0.0203006 0)
(0.813542 0.0115736 0)
(0.449187 0.00338645 0)
(0.0882717 0.000140239 0)
(0.0992686 -1.57104e-05 0)
(0.665455 -0.00271539 0)
(0.973963 -0.00759441 0)
(1.10759 -0.0103703 0)
(1.11394 -0.00893437 0)
(1.09355 -0.00570764 0)
(1.07799 -0.00195231 0)
(1.06686 0.00224945 0)
(1.05864 0.00679321 0)
(1.05301 0.0115334 0)
(1.05106 0.0156368 0)
(1.05319 0.0185406 0)
(1.0593 0.0204887 0)
(1.07005 0.0218226 0)
(1.08699 0.0230733 0)
(1.09802 0.0234787 0)
(1.03078 0.0199571 0)
(0.786584 0.0110929 0)
(0.429552 0.00326547 0)
(0.0838056 0.000139835 0)
(0.0984912 8.18671e-06 0)
(0.65504 -0.00174065 0)
(0.963114 -0.00553054 0)
(1.10677 -0.00790327 0)
(1.1189 -0.00644773 0)
(1.09903 -0.00311956 0)
(1.08305 0.000818431 0)
(1.07148 0.00517725 0)
(1.06271 0.00980495 0)
(1.05639 0.0144869 0)
(1.05372 0.0183506 0)
(1.05527 0.0209096 0)
(1.06102 0.0224881 0)
(1.07166 0.0234234 0)
(1.08857 0.024368 0)
(1.09518 0.0242775 0)
(1.01397 0.0199509 0)
(0.760163 0.0108848 0)
(0.410586 0.00323407 0)
(0.0793965 0.000143053 0)
(0.0984342 2.9594e-05 0)
(0.647928 -0.000746845 0)
(0.954663 -0.00339492 0)
(1.10641 -0.00518379 0)
(1.12403 -0.00359447 0)
(1.10479 -9.66302e-05 0)
(1.08836 0.00408722 0)
(1.07626 0.00865673 0)
(1.06683 0.0134197 0)
(1.05969 0.0180782 0)
(1.05614 0.0216983 0)
(1.05696 0.0238815 0)
(1.06226 0.0250378 0)
(1.0728 0.0255506 0)
(1.08941 0.0261322 0)
(1.09089 0.0255014 0)
(0.995707 0.020314 0)
(0.733826 0.0109391 0)
(0.391794 0.00328674 0)
(0.074926 0.000149846 0)
(0.0991316 6.84993e-05 0)
(0.644206 0.000277256 0)
(0.948929 -0.00111255 0)
(1.10688 -0.00213767 0)
(1.12957 -0.00029825 0)
(1.11095 0.00344889 0)
(1.094 0.00795273 0)
(1.08126 0.0128115 0)
(1.07102 0.0177784 0)
(1.06286 0.0224449 0)
(1.05825 0.0258102 0)
(1.05822 0.0275859 0)
(1.06299 0.0282847 0)
(1.07339 0.0283402 0)
(1.08938 0.0284955 0)
(1.085 0.0272083 0)
(0.975807 0.0210645 0)
(0.707072 0.0112407 0)
(0.372717 0.00341559 0)
(0.0702858 0.000159709 0)
(0.100791 9.50816e-05 0)
(0.644257 0.00144123 0)
(0.946252 0.00140044 0)
(1.10855 0.00133757 0)
(1.13568 0.00352628 0)
(1.11762 0.00762451 0)
(1.10008 0.0125452 0)
(1.08657 0.0177953 0)
(1.07534 0.0230359 0)
(1.06592 0.0277546 0)
(1.06004 0.0308741 0)
(1.05901 0.0321729 0)
(1.06314 0.0323554 0)
(1.07334 0.0319181 0)
(1.08829 0.0315631 0)
(1.07734 0.0294385 0)
(0.953999 0.0222311 0)
(0.679385 0.0117886 0)
(0.352921 0.00361727 0)
(0.0653785 0.000172252 0)
(0.10347 0.000142273 0)
(0.648434 0.00286944 0)
(0.947142 0.00429077 0)
(1.11197 0.00537586 0)
(1.14255 0.00809104 0)
(1.12495 0.0126926 0)
(1.10674 0.0181409 0)
(1.09227 0.0238645 0)
(1.07981 0.0294405 0)
(1.06888 0.0342113 0)
(1.06145 0.0370114 0)
(1.05925 0.0377638 0)
(1.06263 0.0373622 0)
(1.07256 0.0363663 0)
(1.0859 0.0354325 0)
(1.06759 0.0322926 0)
(0.929923 0.023857 0)
(0.650197 0.0125874 0)
(0.331977 0.00388999 0)
(0.060111 0.000187261 0)
(0.107451 0.000203469 0)
(0.657324 0.00455091 0)
(0.952055 0.00770891 0)
(1.11763 0.0101291 0)
(1.1505 0.0135707 0)
(1.13316 0.0188539 0)
(1.1141 0.0249484 0)
(1.09846 0.0312555 0)
(1.0845 0.0372343 0)
(1.07171 0.0420476 0)
(1.06244 0.0444453 0)
(1.05887 0.0445551 0)
(1.06133 0.0434823 0)
(1.07095 0.0418253 0)
(1.08217 0.0402561 0)
(1.05539 0.0358856 0)
(0.903074 0.0259858 0)
(0.618883 0.0136424 0)
(0.309455 0.00423068 0)
(0.0543988 0.00020408 0)
(0.11306 0.000286263 0)
(0.671601 0.00664033 0)
(0.961654 0.0118501 0)
(1.12607 0.0158425 0)
(1.15987 0.0202029 0)
(1.14245 0.0263578 0)
(1.12234 0.033281 0)
(1.10523 0.0403164 0)
(1.08937 0.0467487 0)
(1.07435 0.0515601 0)
(1.06291 0.0534236 0)
(1.0577 0.0527553 0)
(1.05909 0.0508963 0)
(1.06838 0.0484877 0)
(1.07696 0.0461482 0)
(1.04027 0.0403012 0)
(0.872867 0.0286541 0)
(0.584774 0.0149477 0)
(0.284937 0.00462894 0)
(0.0481758 0.000221381 0)
(0.120798 0.000403153 0)
(0.692223 0.00937178 0)
(0.976822 0.0170262 0)
(1.13794 0.022876 0)
(1.17108 0.0284464 0)
(1.15315 0.0357649 0)
(1.13168 0.0436899 0)
(1.11265 0.051539 0)
(1.0944 0.0584083 0)
(1.07664 0.0630847 0)
(1.06268 0.0642211 0)
(1.0556 0.0625704 0)
(1.05581 0.0597869 0)
(1.06464 0.0565529 0)
(1.06995 0.0532547 0)
(1.02165 0.0456521 0)
(0.838587 0.0318885 0)
(0.547163 0.0164824 0)
(0.258048 0.00506713 0)
(0.0414043 0.000237664 0)
(0.13141 0.00057437 0)
(0.720525 0.0131067 0)
(0.998703 0.0236967 0)
(1.15406 0.0317558 0)
(1.18479 0.0388806 0)
(1.16559 0.0477253 0)
(1.14222 0.0568194 0)
(1.1207 0.0655162 0)
(1.09949 0.0726995 0)
(1.07849 0.0769691 0)
(1.06161 0.0770726 0)
(1.05243 0.0742094 0)
(1.05135 0.0703233 0)
(1.05957 0.0660671 0)
(1.06068 0.0616465 0)
(0.998808 0.0519932 0)
(0.799417 0.0356706 0)
(0.505356 0.0181898 0)
(0.228519 0.0055104 0)
(0.0340963 0.000250168 0)
(0.146163 0.00084972 0)
(0.75851 0.0184649 0)
(1.02891 0.0326524 0)
(1.17534 0.0433979 0)
(1.20173 0.0524691 0)
(1.18009 0.0631609 0)
(1.15404 0.0735529 0)
(1.12923 0.0829985 0)
(1.10434 0.0901781 0)
(1.07951 0.0936066 0)
(1.05938 0.092245 0)
(1.04793 0.0878388 0)
(1.04551 0.0826686 0)
(1.05282 0.0772087 0)
(1.04852 0.0715302 0)
(0.970808 0.05935 0)
(0.754464 0.0399487 0)
(0.458752 0.0199741 0)
(0.196293 0.00590566 0)
(0.0263488 0.00025499 0)
(0.167223 0.00132381 0)
(0.809386 0.026609 0)
(1.06998 0.0454495 0)
(1.20281 0.059654 0)
(1.2225 0.0714029 0)
(1.19674 0.0837713 0)
(1.16689 0.0952889 0)
(1.13782 0.104986 0)
(1.1085 0.111491 0)
(1.07936 0.113355 0)
(1.05573 0.109929 0)
(1.04192 0.103614 0)
(1.03808 0.0969474 0)
(1.04402 0.0904077 0)
(1.03275 0.0829516 0)
(0.936529 0.0676348 0)
(0.702867 0.0445759 0)
(0.40709 0.0216892 0)
(0.161723 0.00618044 0)
(0.0183908 0.000246543 0)
(0.197965 0.00237685 0)
(0.878802 0.0402472 0)
(1.12547 0.0659023 0)
(1.237 0.0840669 0)
(1.24691 0.0984211 0)
(1.21501 0.111927 0)
(1.18002 0.123601 0)
(1.14572 0.132417 0)
(1.11133 0.137161 0)
(1.07751 0.136494 0)
(1.0503 0.13031 0)
(1.03418 0.12165 0)
(1.02904 0.113221 0)
(1.03313 0.105499 0)
(1.01248 0.0958194 0)
(0.894602 0.0765588 0)
(0.64409 0.0492575 0)
(0.351086 0.0231975 0)
(0.12611 0.00629873 0)
(0.0107161 0.000218817 0)
(0.239882 0.00857191 4.13984e-20)
(0.970775 0.0674402 3.62327e-20)
(1.19317 0.100127 -1.2714e-20)
(1.27484 0.120149 0)
(1.27224 0.137 -3.29694e-34)
(1.23274 0.14985 4.83346e-21)
(1.1918 0.15996 -8.7884e-21)
(1.15172 0.166548 0)
(1.11187 0.168489 1.82044e-34)
(1.07305 0.16449 -1.10195e-20)
(1.04196 0.155044 0)
(1.02329 0.143852 -1.31371e-20)
(1.01677 0.133722 -3.87829e-20)
(1.01876 0.125107 -1.83409e-20)
(0.985049 0.113102 -5.52476e-21)
(0.840212 0.0885131 -3.28474e-21)
(0.572341 0.0550557 0)
(0.288471 0.0250054 2.3001e-21)
(0.089871 0.00675953 2.71597e-21)
(0.00360235 0.000268542 4.8886e-20)
(0.269286 0.0239295 2.90659e-20)
(1.04664 0.109925 5.25251e-22)
(1.24888 0.148932 3.33886e-21)
(1.30867 0.169086 0)
(1.29442 0.185765 -1.66028e-20)
(1.24785 0.196455 -1.8966e-20)
(1.20098 0.204285 -8.83959e-21)
(1.15501 0.208406 -3.17378e-20)
(1.10937 0.207531 0)
(1.06495 0.200302 4.69889e-20)
(1.02921 0.187679 4.67188e-20)
(1.00737 0.173949 1.39187e-20)
(0.998526 0.161801 5.08394e-20)
(0.99454 0.150953 7.15328e-20)
(0.943147 0.135304 0)
(0.768343 0.103382 1.01007e-19)
(0.488677 0.0622311 1.44989e-19)
(0.222612 0.0270149 1.61072e-19)
(0.0547867 0.00656303 -1.84193e-19)
(-0.00318806 -0.000217069 -3.46201e-21)
(0.27042 0.0396345 0)
(1.09455 0.165048 4.83995e-21)
(1.28623 0.208987 0)
(1.33486 0.228626 -2.08173e-20)
(1.31169 0.242253 0)
(1.25921 0.24915 -3.7006e-20)
(1.20677 0.253343 1.80199e-20)
(1.15514 0.253934 -6.36825e-20)
(1.10394 0.249443 -1.56749e-21)
(1.05413 0.238442 2.43194e-20)
(1.01387 0.222377 1.03124e-19)
(0.988908 0.206057 -2.75028e-22)
(0.977648 0.192002 -3.70411e-20)
(0.96814 0.178959 -6.76978e-20)
(0.905201 0.158822 8.02047e-20)
(0.71833 0.119015 -1.4211e-19)
(0.44293 0.0700224 -1.8811e-20)
(0.19384 0.0298038 0)
(0.04138 0.00644683 -9.2896e-25)
(-0.00579864 -0.000847502 0)
(0.264279 0.053266 5.52033e-20)
(1.12044 0.223532 -2.82057e-20)
(1.30923 0.273611 -2.33417e-20)
(1.35207 0.293374 9.63808e-21)
(1.32268 0.303156 -1.63529e-20)
(1.26577 0.305637 7.75318e-20)
(1.2087 0.305512 3.76087e-20)
(1.15218 0.301953 0)
(1.09599 0.293364 -1.21417e-19)
(1.04122 0.278276 0)
(0.996723 0.258631 -5.41901e-20)
(0.968675 0.239628 -6.71669e-20)
(0.954852 0.223484 -4.04773e-20)
(0.941026 0.208054 -4.93153e-20)
(0.872675 0.18371 0)
(0.685468 0.13714 0)
(0.421401 0.0811992 -1.22774e-19)
(0.186503 0.0351155 2.43141e-20)
(0.0395253 0.00725088 -1.42119e-20)
(-0.00659771 -0.00133516 -1.66322e-20)
(0.257021 0.0653619 -1.593e-20)
(1.13197 0.281925 0)
(1.3219 0.339251 4.46164e-20)
(1.3613 0.359609 2.64544e-20)
(1.32751 0.365609 3.84264e-20)
(1.26734 0.363653 0)
(1.20663 0.359096 3.65342e-20)
(1.14606 0.351234 7.05067e-20)
(1.08557 0.338394 6.20843e-20)
(1.02635 0.319033 1.15223e-19)
(0.97791 0.295534 0)
(0.946898 0.273614 -1.45233e-19)
(0.930589 0.255396 -8.77143e-20)
(0.913495 0.23786 -5.19103e-20)
(0.843748 0.209746 3.19752e-19)
(0.663036 0.157613 3.80863e-20)
(0.413943 0.095738 1.7889e-19)
(0.191373 0.0430864 -8.47361e-19)
(0.0454826 0.00987977 5.01838e-19)
(-0.0053709 -0.00137399 -6.04779e-19)
(0.250121 0.0763271 1.25692e-22)
(1.13436 0.338401 2.68164e-21)
(1.32708 0.403973 -4.02303e-21)
(1.36415 0.4254 -2.42581e-20)
(1.32712 0.427837 -3.09805e-20)
(1.2645 0.421616 1.79145e-21)
(1.2009 0.412804 -3.96838e-20)
(1.137 0.400754 7.28332e-20)
(1.07282 0.383715 -1.33867e-19)
(1.00961 0.360046 0)
(0.957532 0.332693 -6.56924e-20)
(0.923761 0.308024 -1.621e-21)
(0.905194 0.287985 -9.62214e-20)
(0.885393 0.268421 0)
(0.816277 0.23674 -6.94777e-20)
(0.645393 0.180167 -1.65189e-19)
(0.412821 0.112502 4.41692e-19)
(0.20088 0.0535554 -4.3459e-19)
(0.0554652 0.0144901 6.17559e-19)
(-0.0027166 -0.00086483 -6.41651e-19)
(0.244391 0.0865062 -4.10297e-22)
(1.13112 0.392305 1.49424e-21)
(1.32686 0.466778 -6.81733e-21)
(1.36205 0.489526 8.49771e-21)
(1.32257 0.488772 -1.53883e-20)
(1.25807 0.478575 0)
(1.19216 0.465797 -3.6354e-20)
(1.12549 0.449793 -7.61751e-20)
(1.0581 0.428717 -6.94724e-20)
(0.991319 0.400894 0)
(0.935956 0.369985 -6.81502e-20)
(0.899664 0.342866 -8.48428e-20)
(0.878875 0.320956 1.04591e-19)
(0.856871 0.299289 -6.37224e-20)
(0.788908 0.264573 -3.04254e-19)
(0.628948 0.204079 1.81321e-19)
(0.412351 0.130626 5.41953e-20)
(0.210863 0.0656382 0)
(0.0659798 0.0204399 -5.99059e-19)
(0.000330185 5.0185e-05 -2.19849e-20)
(0.239919 0.0962102 3.21996e-21)
(1.12449 0.443439 -4.35966e-21)
(1.32271 0.527178 2.33657e-21)
(1.35618 0.551276 3.22694e-20)
(1.31479 0.547745 -5.43915e-20)
(1.24886 0.533952 7.04051e-20)
(1.18108 0.517548 7.84202e-20)
(1.11204 0.497862 -1.21718e-19)
(1.04182 0.472982 4.33757e-20)
(0.971861 0.441249 -2.84048e-19)
(0.913576 0.406968 -7.73657e-20)
(0.874955 0.377262 0)
(0.852014 0.353179 1.13592e-19)
(0.828249 0.329551 1.36461e-19)
(0.76166 0.292128 1.63822e-19)
(0.611626 0.228061 -1.97385e-19)
(0.409478 0.149395 -5.85139e-20)
(0.217962 0.0785967 6.87292e-20)
(0.0748764 0.0270244 0)
(0.00318907 0.00116928 -4.78137e-20)
(0.236596 0.105598 -5.71047e-20)
(1.11604 0.491904 3.01626e-20)
(1.31592 0.585332 -8.17153e-22)
(1.34755 0.61032 1.77469e-20)
(1.30457 0.604369 -2.29856e-20)
(1.23754 0.587363 -4.06078e-21)
(1.16824 0.5677 -8.59516e-20)
(1.09715 0.544634 -4.41121e-20)
(1.02442 0.516209 -1.20924e-19)
(0.951594 0.480801 2.85297e-22)
(0.890613 0.443067 -2.41954e-19)
(0.849825 0.410421 2.05415e-19)
(0.825015 0.384144 -1.25019e-19)
(0.799937 0.358819 1.50733e-19)
(0.734435 0.318663 0)
(0.592975 0.25057 -1.07267e-19)
(0.403477 0.167512 -1.50616e-22)
(0.221104 0.0910717 -3.00054e-19)
(0.0808314 0.033322 -4.40772e-20)
(0.00540495 0.0022818 0)
(0.234288 0.114795 0)
(1.10671 0.537912 3.57629e-20)
(1.30717 0.640767 9.72078e-21)
(1.33689 0.666534 -1.42331e-20)
(1.29257 0.658445 -3.11175e-20)
(1.2247 0.638597 0)
(1.15414 0.616012 -3.8107e-20)
(1.08127 0.58987 -1.09444e-21)
(1.00626 0.558198 2.59172e-19)
(0.930773 0.519302 -3.89017e-20)
(0.867177 0.477974 -1.7483e-19)
(0.824374 0.442317 1.0664e-19)
(0.798105 0.414185 -2.17657e-21)
(0.771816 0.387281 1.60143e-19)
(0.7066 0.343636 9.93129e-20)
(0.572516 0.271363 -2.31802e-19)
(0.394144 0.184221 2.74739e-19)
(0.21969 0.102083 8.13125e-20)
(0.0831229 0.0385565 3.3557e-19)
(0.00675994 0.00318363 -8.96238e-19)
(0.232939 0.123937 -2.09434e-20)
(1.09713 0.581655 2.71504e-20)
(1.29728 0.693305 -1.74411e-20)
(1.32481 0.719895 7.04713e-21)
(1.27934 0.709874 0)
(1.21083 0.687517 -3.01755e-20)
(1.13919 0.662331 1.28917e-19)
(1.06474 0.633422 9.62064e-20)
(0.987662 0.598812 0)
(0.909598 0.556613 -5.61422e-19)
(0.843407 0.511726 4.72956e-19)
(0.798751 0.47336 0)
(0.771323 0.443679 1.46117e-19)
(0.743616 0.414671 -2.19179e-21)
(0.677943 0.366581 -3.16948e-19)
(0.550091 0.289966 1.24178e-19)
(0.381483 0.198626 0)
(0.214249 0.110752 4.38627e-19)
(0.0819915 0.042135 0)
(0.00723121 0.00372265 -4.2398e-19)
(0.232368 0.133098 2.57504e-20)
(1.08779 0.623234 3.69829e-20)
(1.28645 0.74303 -1.6889e-20)
(1.3118 0.770391 0)
(1.26533 0.758636 -2.3182e-20)
(1.1963 0.734072 0)
(1.12376 0.706568 -1.25492e-19)
(1.0479 0.675206 -4.39266e-20)
(0.968889 0.637981 4.5353e-20)
(0.888292 0.592709 -2.77676e-19)
(0.819494 0.54453 4.87128e-20)
(0.773092 0.50385 0)
(0.744526 0.472463 -3.1178e-19)
(0.714949 0.440185 2.18418e-21)
(0.648515 0.386904 0)
(0.525867 0.305914 1.67385e-21)
(0.365637 0.21006 4.00706e-19)
(0.205045 0.116705 -3.78931e-19)
(0.0780961 0.0438463 1.11621e-19)
(0.00687497 0.00381125 0)
(0.232247 0.142141 0)
(1.07889 0.662779 4.57537e-20)
(1.27508 0.790093 2.73685e-20)
(1.29825 0.81807 -2.45843e-21)
(1.25088 0.804755 -5.23605e-21)
(1.18145 0.778243 -6.72673e-20)
(1.10814 0.748694 4.74061e-20)
(1.03101 0.715189 -5.24264e-20)
(0.950184 0.675667 2.03114e-19)
(0.86706 0.627628 -4.43281e-19)
(0.795639 0.576567 -3.68992e-21)
(0.747473 0.533771 -1.36036e-19)
(0.717484 0.499997 5.05939e-19)
(0.685642 0.463236 -2.55022e-21)
(0.618542 0.404489 -2.45704e-19)
(0.500327 0.319171 -4.38989e-19)
(0.347053 0.21847 0)
(0.192591 0.11974 0)
(0.0719727 0.0438805 1.20471e-19)
(0.00604974 0.00360232 -7.0703e-20)
(0.232699 0.151193 3.75488e-20)
(1.07047 0.700114 -1.05449e-19)
(1.26348 0.834549 -2.95224e-20)
(1.28447 0.862999 0)
(1.23626 0.848278 -1.55089e-21)
(1.16652 0.820045 -5.83064e-20)
(1.09257 0.788711 1.12309e-19)
(1.01431 0.753366 2.04222e-19)
(0.93175 0.711871 2.63077e-19)
(0.846114 0.661428 -3.61335e-19)
(0.772031 0.607919 -4.05689e-19)
(0.721909 0.562903 3.63638e-19)
(0.690063 0.525773 0)
(0.655765 0.483639 -1.11436e-19)
(0.588283 0.419557 -2.65793e-19)
(0.473702 0.329736 -3.15173e-19)
(0.326027 0.223569 -3.73524e-19)
(0.17737 0.119819 1.10392e-19)
(0.0638609 0.0421366 -6.49201e-20)
(0.00483474 0.00308259 2.61488e-22)
(0.233277 0.160157 0)
(1.06268 0.735813 0)
(1.25185 0.876512 2.56041e-21)
(1.27066 0.905276 0)
(1.22171 0.889286 3.28406e-21)
(1.15173 0.859531 3.67093e-20)
(1.07723 0.826648 0)
(0.997961 0.789751 2.38214e-20)
(0.913764 0.746596 4.37478e-19)
(0.82565 0.694157 -8.30433e-19)
(0.748815 0.638581 0)
(0.696404 0.591004 -2.33781e-19)
(0.662223 0.549551 -3.03805e-21)
(0.625478 0.501554 -2.41672e-21)
(0.557928 0.432252 2.83776e-19)
(0.44621 0.337361 -2.75003e-22)
(0.302769 0.225188 -8.03782e-19)
(0.160037 0.1169 2.37344e-19)
(0.0547235 0.0388757 7.01335e-20)
(0.00341958 0.00232934 0)
(0.233889 0.168963 -1.53517e-19)
(1.05524 0.769821 -7.32384e-20)
(1.24027 0.916042 -9.24753e-20)
(1.25699 0.945009 8.13128e-20)
(1.20738 0.927849 -1.00691e-20)
(1.13723 0.89676 0)
(1.06229 0.862552 6.59265e-20)
(0.98212 0.824373 -5.33222e-20)
(0.896373 0.779861 3.86792e-21)
(0.805837 0.725848 6.12647e-20)
(0.726111 0.668502 5.24073e-19)
(0.670963 0.617953 -8.18963e-20)
(0.633988 0.571421 -3.11343e-19)
(0.594874 0.517266 -1.29666e-19)
(0.527451 0.442436 1.54275e-19)
(0.418043 0.341661 -8.97441e-23)
(0.278259 0.223186 2.16432e-19)
(0.141742 0.111304 -5.10303e-19)
(0.045311 0.0344972 6.03148e-19)
(0.00196503 0.00144304 8.79429e-20)
(0.234368 0.17749 5.89099e-20)
(1.04816 0.80225 -4.16979e-20)
(1.22886 0.953238 6.24464e-21)
(1.24359 0.982317 5.54942e-20)
(1.19339 0.964075 8.96361e-21)
(1.12314 0.931805 -6.07133e-20)
(1.04786 0.896479 1.80776e-20)
(0.966893 0.857252 -2.21234e-19)
(0.879699 0.811665 -4.79381e-19)
(0.786804 0.756492 -4.93279e-19)
(0.70403 0.69763 0)
(0.645638 0.64379 -3.59667e-19)
(0.605403 0.591722 4.48531e-19)
(0.56385 0.531066 0)
(0.496586 0.449834 -3.3009e-19)
(0.389383 0.342157 1.97086e-19)
(0.253463 0.217365 -2.32454e-19)
(0.123807 0.103463 -2.74418e-19)
(0.0364473 0.0295179 -4.85529e-19)
(0.00062749 0.000542269 -3.78521e-19)
(0.235162 0.185873 -6.71822e-20)
(1.0413 0.833077 4.46259e-20)
(1.21769 0.988173 1.01174e-19)
(1.23052 1.01729 8.30922e-20)
(1.17984 0.998054 -1.52507e-20)
(1.10954 0.964753 -2.8629e-20)
(1.03402 0.928484 6.09738e-20)
(0.952361 0.88843 -2.25598e-19)
(0.863823 0.842029 -2.83067e-19)
(0.768662 0.786079 5.14613e-19)
(0.682668 0.725932 1.14844e-18)
(0.620531 0.66868 0)
(0.576511 0.610916 0)
(0.532136 0.543289 -1.49219e-19)
(0.46479 0.454145 0)
(0.360197 0.337967 4.23747e-19)
(0.229533 0.206978 4.99761e-19)
(0.108171 0.0934979 0)
(0.0293834 0.0244508 0)
(-0.000448878 -0.000242221 4.06513e-19)
(0.23559 0.193805 7.70856e-20)
(1.0347 0.86229 6.21847e-20)
(1.20681 1.02097 7.38869e-20)
(1.21786 1.05005 -8.26653e-20)
(1.16678 1.02989 -2.37165e-20)
(1.09651 0.995685 2.35532e-20)
(1.02082 0.958631 -8.25018e-20)
(0.93858 0.917933 -1.46973e-22)
(0.848818 0.870957 -5.01653e-21)
(0.751487 0.814579 -5.15735e-21)
(0.662147 0.753401 5.90876e-19)
(0.595789 0.692849 0)
(0.547397 0.629504 4.53332e-19)
(0.499391 0.55435 3.17871e-19)
(0.431165 0.455293 7.6946e-19)
(0.32981 0.327878 2.27981e-19)
(0.207576 0.18981 -2.69019e-19)
(0.0986723 0.0791794 -1.57971e-19)
(0.0292366 0.0183978 0)
(0.000430745 -0.000266121 4.36518e-19)
(0.236309 0.201736 -1.75253e-19)
(1.0283 0.889982 0)
(1.19621 1.05168 8.84402e-20)
(1.20562 1.08068 -7.12056e-20)
(1.15427 1.05969 3.68169e-20)
(1.08406 1.02469 -1.47001e-20)
(1.00832 0.98698 1.54303e-19)
(0.925583 0.945794 -1.89608e-20)
(0.834723 0.898454 0)
(0.735342 0.841944 -5.64945e-19)
(0.642587 0.780032 -1.28134e-18)
(0.571603 0.716543 5.2792e-20)
(0.518223 0.647957 6.2409e-19)
(0.46537 0.564788 0)
(0.394524 0.45382 5.18842e-19)
(0.295993 0.3111 0)
(0.185931 0.161096 0)
(0.0991782 0.047895 -1.70874e-19)
(0.0561171 0.000489444 0)
(0.0283505 0.0118363 1.16921e-19)
(0.23664 0.209056 -1.97139e-19)
(1.02209 0.916498 0)
(1.18588 1.08051 1.48406e-19)
(1.19376 1.10943 0)
(1.14227 1.0877 -2.38578e-20)
(1.07216 1.05205 0)
(0.996444 1.01384 6.68506e-21)
(0.913272 0.972351 3.05884e-20)
(0.821416 0.924884 3.52848e-20)
(0.720055 0.86855 -6.17829e-19)
(0.623815 0.806285 3.82617e-20)
(0.547791 0.740482 4.25136e-19)
(0.488652 0.6671 6.08302e-19)
(0.42922 0.575343 8.22514e-20)
(0.352932 0.451235 4.0637e-19)
(0.254063 0.288832 0)
(0.153237 0.117748 5.67433e-19)
(0.081206 -0.00411406 -3.32329e-19)
(0.0434763 0.0456295 3.85072e-19)
(-0.0690842 0.434818 -4.53891e-19)
(0.236945 0.21617 1.64037e-19)
(1.01581 0.941612 2.51406e-19)
(1.17575 1.10778 0)
(1.18214 1.13673 5.12217e-21)
(1.13058 1.11451 7.31551e-20)
(1.06053 1.07847 -1.36373e-20)
(0.984883 1.04002 4.99127e-20)
(0.901245 0.998543 0)
(0.808374 0.95134 2.31315e-19)
(0.704963 0.895696 -3.19599e-20)
(0.604924 0.833629 0)
(0.523152 0.766396 0)
(0.456935 0.68858 5.43724e-19)
(0.388829 0.586964 -2.54223e-19)
(0.303247 0.449692 -4.11063e-19)
(0.199177 0.265219 0)
(0.0891535 0.116481 2.85842e-19)
(0.00502343 0.439869 -3.30744e-19)
(0.0340528 1.88665 -1.80692e-19)
(0.0634917 2.8098 -2.31326e-19)
(0.237059 0.222432 -1.24121e-19)
(1.00966 0.965506 -3.24244e-19)
(1.16583 1.13347 8.91433e-20)
(1.17074 1.16245 7.22695e-20)
(1.11924 1.13989 0)
(1.04925 1.10364 -2.0995e-20)
(0.973831 1.0652 6.27133e-20)
(0.889687 1.02394 -1.44669e-20)
(0.795858 0.977299 3.45307e-20)
(0.69043 0.922748 5.8582e-19)
(0.586498 0.861421 6.43875e-19)
(0.498649 0.793987 4.73534e-19)
(0.424005 0.712472 5.45603e-19)
(0.345855 0.598557 -5.95351e-19)
(0.251249 0.452373 -6.19532e-19)
(0.132308 0.300424 0)
(0.0461275 0.829796 0)
(0.102827 2.54916 1.57428e-19)
(0.103845 3.2 0)
(0.10696 3.38763 3.75092e-19)
(0.239741 0.228122 0)
(1.00422 0.98837 0)
(1.15588 1.15743 0)
(1.15935 1.18639 2.21706e-20)
(1.10793 1.1636 6.82918e-20)
(1.03809 1.12744 -2.90195e-20)
(0.963184 1.08928 3.80885e-20)
(0.878555 1.04843 -1.39122e-20)
(0.783835 1.00263 2.84688e-19)
(0.676479 0.949557 -9.49428e-21)
(0.568681 0.889582 1.26746e-18)
(0.47463 0.823188 -5.45916e-20)
(0.390094 0.739841 6.58376e-20)
(0.302883 0.607724 8.59658e-20)
(0.188789 0.467129 -4.08878e-21)
(0.103647 0.962507 1.82453e-21)
(0.142249 2.71572 -8.26469e-19)
(0.15123 3.2918 -3.10572e-19)
(0.139725 3.42618 1.60043e-19)
(0.126549 3.4485 -1.77558e-19)
(0.157285 0.18438 7.40637e-20)
(0.993527 1.01297 0)
(1.1456 1.17991 -1.81996e-19)
(1.1485 1.209 -1.97229e-19)
(1.09749 1.18646 1.66606e-19)
(1.02798 1.15056 3.57975e-20)
(0.952911 1.1123 -3.60968e-20)
(0.867982 1.07212 1.46191e-19)
(0.772479 1.02749 -2.30832e-19)
(0.663391 0.976287 0)
(0.551878 0.918333 6.20175e-19)
(0.451686 0.853951 -3.84861e-19)
(0.355646 0.773729 0)
(0.254922 0.617509 7.97452e-20)
(0.152637 0.775063 1.91053e-19)
(0.157022 2.48541 -2.24591e-19)
(0.216574 3.32335 2.52111e-19)
(0.195767 3.44004 1.35178e-19)
(0.162576 3.46158 1.52194e-19)
(0.140446 3.47184 2.39888e-19)
(0.28326 0.267195 -1.34762e-19)
(0.978577 1.02317 0)
(1.12761 1.20543 1.98671e-19)
(1.134 1.24091 2.20421e-19)
(1.08059 1.21967 -1.88427e-19)
(1.0105 1.18423 -5.99791e-20)
(0.934559 1.14763 1.91946e-20)
(0.849143 1.10867 1.15382e-20)
(0.752461 1.06622 2.15948e-19)
(0.64081 1.01859 4.97523e-19)
(0.523859 0.96537 3.46468e-20)
(0.413218 0.905771 3.39725e-19)
(0.294943 0.821423 6.10787e-20)
(0.21514 0.947329 -7.79738e-20)
(0.231517 2.3351 -1.78107e-19)
(0.293639 3.32657 1.69153e-19)
(0.276544 3.47019 -1.85976e-19)
(0.240853 3.49185 -1.07401e-19)
(0.203385 3.5194 -8.77429e-20)
(0.151763 3.5132 -1.04015e-20)
(0.271242 0.264108 0)
(0.976431 1.04611 5.82354e-20)
(1.1196 1.22904 -4.12487e-20)
(1.1238 1.26457 -2.65435e-20)
(1.07013 1.24298 -1.32063e-19)
(1.0001 1.20778 6.35178e-20)
(0.923861 1.17138 -3.98084e-21)
(0.838289 1.13321 1.0064e-20)
(0.741191 1.09221 -2.22334e-19)
(0.628373 1.04712 -1.40407e-20)
(0.508709 0.997688 -1.11096e-18)
(0.39361 0.942707 4.83929e-20)
(0.282684 0.888826 -5.74342e-20)
(0.256412 1.48405 -7.17615e-20)
(0.331833 3.09695 1.78878e-20)
(0.352436 3.4684 6.35027e-22)
(0.311757 3.52479 2.59345e-19)
(0.274179 3.55093 1.23328e-19)
(0.225292 3.57434 -2.38548e-20)
(0.166146 3.57023 -4.5475e-20)
(0.254841 0.262485 1.48482e-19)
(0.972698 1.07172 3.98606e-19)
(1.11114 1.2548 -1.18635e-19)
(1.11303 1.28965 -1.0047e-19)
(1.05911 1.26765 0)
(0.989281 1.23252 1.20656e-19)
(0.913039 1.19639 9.53354e-21)
(0.827583 1.15897 8.47986e-21)
(0.730381 1.1195 -2.48546e-20)
(0.616886 1.07709 -4.41993e-19)
(0.495309 1.03179 -5.08757e-19)
(0.377677 0.981746 -3.94085e-19)
(0.281362 1.01868 -4.32348e-19)
(0.325114 2.19191 4.47463e-19)
(0.418253 3.37677 3.69681e-19)
(0.396465 3.52664 0)
(0.350663 3.57135 0)
(0.31242 3.61209 -1.7272e-20)
(0.261165 3.67242 0)
(0.17828 3.6485 -1.01154e-20)
(0.243968 0.264348 -2.23606e-19)
(0.966975 1.09843 -3.39893e-19)
(1.10127 1.28179 0)
(1.10092 1.31553 6.14001e-21)
(1.04685 1.29294 -1.4557e-19)
(0.977349 1.25776 1.99153e-19)
(0.901438 1.22194 1.51741e-20)
(0.816299 1.18515 3.54756e-21)
(0.719226 1.14712 -1.50584e-19)
(0.605437 1.10731 2.16368e-20)
(0.482776 1.06629 0)
(0.362338 1.02405 0)
(0.305956 1.27148 -3.91993e-19)
(0.408004 2.87098 1.58871e-19)
(0.490069 3.48586 1.98754e-19)
(0.44258 3.5595 0)
(0.402087 3.62282 7.99505e-21)