/*--------------------------------*- C++ -*----------------------------------*\
  =========                 |
  \\      /  F ield         | OpenFOAM: The Open Source CFD Toolbox
   \\    /   O peration     | Website:  https://openfoam.org
    \\  /    A nd           | Version:  10
     \\/     M anipulation  |
\*---------------------------------------------------------------------------*/
FoamFile
{
    format      ascii;
    class       volScalarField;
    location    "59";
    object      p;
}
// * * * * * * * * * * * * * * * * * * * * * * * * * * * * * * * * * * * * * //

dimensions      [0 2 -2 0 0 0 0];

internalField   nonuniform List<scalar> 
8800
(
0.76707
0.719283
0.680595
0.651601
0.630739
0.615912
0.605321
0.597849
0.593041
0.591001
0.592288
0.596494
0.60315
0.612474
0.62526
0.642997
0.667777
0.70172
0.744271
0.802973
0.598318
0.605997
0.613473
0.616782
0.61528
0.610205
0.603723
0.597652
0.592939
0.590111
0.58985
0.592374
0.596877
0.602832
0.609608
0.615893
0.619536
0.618802
0.613384
0.604695
0.57672
0.58288
0.587007
0.589953
0.592004
0.592612
0.59151
0.589414
0.587411
0.586523
0.587505
0.589904
0.592715
0.594905
0.595518
0.594323
0.591984
0.588593
0.584035
0.580275
0.570908
0.573559
0.576311
0.578715
0.580352
0.581516
0.582263
0.58239
0.582108
0.582079
0.582854
0.584042
0.584895
0.584969
0.584366
0.583279
0.581467
0.578898
0.576496
0.574992
0.565525
0.56695
0.568729
0.570762
0.572548
0.573892
0.574887
0.575694
0.576325
0.576911
0.577588
0.578104
0.578218
0.57794
0.57725
0.576006
0.574314
0.572468
0.571162
0.570331
0.560446
0.561367
0.562608
0.564175
0.565809
0.567337
0.568628
0.569705
0.570687
0.571606
0.572324
0.572674
0.572649
0.57222
0.571347
0.570153
0.56883
0.567572
0.566751
0.5662
0.555536
0.556206
0.557168
0.558471
0.559881
0.561342
0.562787
0.564121
0.565339
0.566475
0.567328
0.567721
0.567656
0.567159
0.566362
0.565421
0.564413
0.563493
0.562909
0.562503
0.550749
0.551266
0.552049
0.553179
0.554457
0.555833
0.557286
0.558769
0.560218
0.561586
0.562629
0.563128
0.563124
0.562753
0.562161
0.561443
0.560674
0.559994
0.559561
0.559244
0.546013
0.546424
0.547079
0.548085
0.549291
0.55062
0.552071
0.55364
0.555283
0.556915
0.558201
0.558891
0.559078
0.558925
0.558553
0.558045
0.55748
0.556992
0.55667
0.556412
0.541242
0.541577
0.542143
0.543069
0.544226
0.54554
0.547027
0.548692
0.550522
0.552441
0.554043
0.555025
0.555486
0.555584
0.55544
0.555154
0.554782
0.554452
0.554215
0.553999
0.536349
0.536626
0.537131
0.538011
0.539149
0.540487
0.542046
0.54385
0.545907
0.548159
0.550159
0.551518
0.552308
0.552691
0.552797
0.552734
0.552553
0.552364
0.552194
0.552007
0.531244
0.531477
0.531943
0.532806
0.533966
0.535371
0.537044
0.539041
0.541389
0.544055
0.546543
0.548354
0.549529
0.55024
0.550623
0.55079
0.550801
0.55074
0.550626
0.550459
0.525837
0.526035
0.526481
0.527358
0.528581
0.530097
0.53194
0.534196
0.536916
0.5401
0.54318
0.545528
0.547153
0.548238
0.548933
0.549343
0.549563
0.549621
0.549554
0.549401
0.520028
0.520198
0.520641
0.52156
0.522887
0.524565
0.526645
0.52924
0.532432
0.536259
0.540057
0.543046
0.5452
0.546715
0.547764
0.548468
0.548892
0.549066
0.549038
0.548894
0.513699
0.513845
0.514301
0.515292
0.516769
0.518669
0.521062
0.52409
0.527879
0.532495
0.537162
0.540918
0.543699
0.545719
0.547169
0.548191
0.54885
0.549145
0.549154
0.549015
0.506714
0.506835
0.507318
0.508413
0.510092
0.512284
0.515079
0.518657
0.523186
0.528769
0.534486
0.53916
0.542684
0.545298
0.547223
0.548612
0.549531
0.54995
0.549993
0.549854
0.498893
0.498992
0.499518
0.500753
0.502691
0.505254
0.508562
0.512834
0.518283
0.525047
0.532032
0.537799
0.542199
0.545514
0.548007
0.549823
0.551033
0.551582
0.551657
0.551515
0.490011
0.490112
0.490692
0.492084
0.494353
0.497398
0.501359
0.506502
0.51309
0.5213
0.529807
0.536873
0.542306
0.546444
0.549609
0.551926
0.553462
0.55415
0.554255
0.554106
0.479759
0.479841
0.480512
0.482129
0.484831
0.488494
0.493282
0.499521
0.507528
0.517502
0.527833
0.536428
0.543077
0.548183
0.552118
0.555023
0.556932
0.557766
0.557897
0.557738
0.467769
0.467836
0.468606
0.470535
0.473795
0.478251
0.484098
0.491726
0.501498
0.513621
0.526127
0.536518
0.544581
0.550814
0.555645
0.559235
0.561549
0.562531
0.562684
0.562511
0.453492
0.453547
0.45446
0.456804
0.4608
0.466302
0.473529
0.48294
0.494924
0.509661
0.524737
0.537214
0.546894
0.554426
0.560293
0.564653
0.567401
0.568527
0.568692
0.568502
0.436168
0.436212
0.437337
0.440264
0.445268
0.452186
0.461251
0.472982
0.487753
0.505661
0.523741
0.538598
0.550108
0.5591
0.566123
0.57134
0.574534
0.575786
0.575953
0.575742
0.414643
0.414686
0.416158
0.419964
0.426423
0.435333
0.44692
0.461717
0.480001
0.501713
0.523252
0.540766
0.554306
0.564913
0.573179
0.579321
0.582936
0.584276
0.584427
0.584194
0.387196
0.387257
0.389314
0.394537
0.403247
0.415082
0.430222
0.44909
0.471763
0.497975
0.523413
0.543828
0.559546
0.571882
0.581493
0.588542
0.592502
0.593869
0.593981
0.593727
0.350797
0.350956
0.354218
0.362053
0.374565
0.390866
0.411069
0.435284
0.463329
0.494726
0.524442
0.54792
0.565902
0.580019
0.591009
0.598859
0.603016
0.604317
0.604368
0.604095
0.299666
0.300638
0.307118
0.320316
0.339431
0.362636
0.389818
0.420792
0.455176
0.49234
0.526569
0.55317
0.573416
0.589273
0.601562
0.610007
0.614142
0.615272
0.615248
0.614964
0.224908
0.232143
0.247133
0.270365
0.299336
0.33179
0.367507
0.406267
0.447681
0.491104
0.53019
0.560163
0.582867
0.600634
0.614217
0.623095
0.627084
0.628029
0.627959
0.627711
0.144525
0.16166
0.185953
0.219879
0.259079
0.300916
0.34524
0.391987
0.440853
0.49125
0.536124
0.570316
0.596089
0.616177
0.631325
0.640457
0.643995
0.644668
0.644615
0.64446
0.0775385
0.0977253
0.129714
0.172719
0.220961
0.271644
0.324321
0.378909
0.43508
0.492249
0.542651
0.580799
0.609431
0.631537
0.64766
0.656667
0.659879
0.660479
0.66048
0.660375
0.022678
0.0445174
0.0820092
0.131437
0.186826
0.244966
0.305032
0.366815
0.429857
0.493492
0.549161
0.591024
0.622258
0.646103
0.663186
0.672344
0.675531
0.676194
0.676222
0.676145
-0.0229988
2.05811e-05
0.0412948
0.0958227
0.156957
0.221256
0.287676
0.355869
0.425216
0.494902
0.555563
0.600951
0.634658
0.660224
0.678312
0.687991
0.691424
0.691985
0.692041
0.691994
-0.0617561
-0.0380689
0.00606629
0.0646395
0.130608
0.200152
0.272094
0.345982
0.421068
0.49639
0.561773
0.610537
0.646641
0.673909
0.693069
0.703418
0.707067
0.707675
0.707746
0.707728
-0.095613
-0.0714869
-0.0250845
0.0368209
0.106873
0.180976
0.257812
0.336842
0.417214
0.497818
0.567687
0.619677
0.658079
0.687002
0.707161
0.718149
0.722133
0.722844
0.722942
0.722942
-0.12606
-0.101547
-0.0532983
0.0114552
0.0850288
0.16313
0.244359
0.328083
0.413361
0.498951
0.5731
0.628176
0.668752
0.699186
0.720352
0.731911
0.73622
0.737105
0.737213
0.737221
-0.154058
-0.129195
-0.0793667
-0.0121602
0.0645134
0.146158
0.231335
0.319359
0.409226
0.499568
0.57785
0.635892
0.678523
0.710334
0.73237
0.744463
0.749048
0.750064
0.75016
0.750156
-0.180406
-0.155146
-0.103853
-0.0345416
0.0448948
0.129699
0.218445
0.310428
0.404605
0.499508
0.58183
0.642769
0.687366
0.72047
0.743215
0.755679
0.760462
0.761566
0.761656
0.761635
-0.20548
-0.17981
-0.127295
-0.0560227
0.0258677
0.113505
0.205488
0.301118
0.399346
0.498654
0.584973
0.648812
0.695324
0.72962
0.752945
0.765667
0.770542
0.771682
0.771746
0.771701
-0.229699
-0.203501
-0.149956
-0.076846
0.00722352
0.0974026
0.192324
0.291309
0.393343
0.496914
0.587242
0.65404
0.702495
0.737921
0.761738
0.774535
0.779426
0.780552
0.780598
0.780528
-0.253196
-0.226581
-0.171905
-0.0971866
-0.011165
0.0812931
0.178869
0.280935
0.386532
0.494231
0.588604
0.658487
0.708983
0.74553
0.769713
0.782491
0.787313
0.788402
0.78843
0.788335
-0.276104
-0.248985
-0.193284
-0.117129
-0.0293601
0.065133
0.165093
0.269963
0.378877
0.49055
0.589013
0.662179
0.7149
0.75263
0.777101
0.789722
0.794374
0.795376
0.795353
0.79524
-0.298555
-0.270874
-0.21418
-0.136708
-0.0473909
0.0489153
0.151005
0.258406
0.370371
0.485833
0.588419
0.665117
0.720349
0.75938
0.784054
0.796358
0.800697
0.801546
0.80147
0.801334
-0.320572
-0.292241
-0.234626
-0.155929
-0.0652319
0.032664
0.136644
0.246299
0.361038
0.480055
0.586762
0.667262
0.725384
0.765959
0.790776
0.802516
0.806352
0.806977
0.806848
0.806701
-0.342001
-0.313056
-0.254559
-0.174771
-0.0828562
0.0164395
0.122064
0.233712
0.350927
0.47323
0.583972
0.668542
0.730004
0.772542
0.797568
0.808459
0.811472
0.811742
0.811553
0.811409
-0.362824
-0.333293
-0.273968
-0.193193
-0.10021
0.000296132
0.107352
0.220717
0.340114
0.465381
0.579999
0.668836
0.734134
0.779239
0.804838
0.814709
0.816381
0.815938
0.815642
0.815554
-0.38311
-0.352922
-0.29283
-0.211165
-0.117235
-0.0156866
0.0925896
0.207413
0.328683
0.456569
0.574795
0.667992
0.737599
0.785983
0.812961
0.822153
0.82197
0.819976
0.81927
0.81947
-0.40269
-0.37192
-0.311092
-0.228629
-0.133874
-0.0314284
0.0778701
0.19391
0.316749
0.446882
0.568344
0.665834
0.740127
0.79243
0.821928
0.831803
0.830198
0.82579
0.823197
0.822809
-0.421658
-0.390278
-0.328772
-0.245617
-0.150161
-0.0469716
0.0631387
0.18015
0.304245
0.436252
0.560511
0.662088
0.741412
0.798061
0.831107
0.843924
0.843527
0.836993
0.828918
0.814927
-0.439943
-0.407984
-0.345986
-0.262327
-0.166376
-0.0626417
0.0479881
0.165664
0.29065
0.424056
0.550668
0.655993
0.740912
0.802172
0.838814
0.856398
0.857846
0.845191
0.825297
0.813794
-0.457369
-0.425173
-0.362543
-0.27856
-0.182171
-0.0780997
0.0326411
0.150769
0.276261
0.410546
0.538864
0.647056
0.73777
0.803587
0.840872
0.858295
0.862353
0.838861
0.771233
0.740913
-0.473273
-0.443095
-0.378117
-0.293828
-0.196758
-0.0928468
0.0174118
0.135694
0.261294
0.39584
0.52502
0.634951
0.73052
0.801609
0.832248
0.844343
0.832963
0.778448
0.709355
0.666863
-0.528686
-0.458905
-0.392239
-0.309258
-0.211758
-0.108345
0.00223188
0.120155
0.245375
0.37947
0.508513
0.619
0.715233
0.792816
0.796943
0.798952
0.748453
0.6776
0.600766
0.558012
-0.490124
-0.474116
-0.413334
-0.32936
-0.233946
-0.130592
-0.0210499
0.0962057
0.220411
0.353058
0.48015
0.588984
0.677354
0.759823
0.745693
0.631269
0.525351
0.451664
0.377995
0.408223
-0.520942
-0.491645
-0.429949
-0.346798
-0.251395
-0.148173
-0.0383737
0.0782315
0.201351
0.332174
0.456436
0.561046
0.639776
0.683848
0.634657
0.484717
0.356197
0.264342
0.165373
0.215154
-0.544675
-0.512442
-0.449523
-0.366219
-0.270704
-0.167589
-0.0578836
0.0578735
0.179574
0.307973
0.428462
0.526844
0.59683
0.606223
0.498899
0.325377
0.172163
0.0529513
-0.0783753
-0.0457144
-0.567896
-0.534128
-0.470023
-0.385797
-0.290198
-0.187238
-0.0780646
0.0367148
0.156799
0.282391
0.398158
0.488655
0.543385
0.521233
0.362108
0.165396
-0.0251748
-0.193246
-0.381843
-0.400474
-0.590523
-0.556299
-0.491298
-0.406293
-0.310548
-0.207812
-0.0992977
0.0143783
0.132589
0.254973
0.365316
0.44789
0.483058
0.424755
0.231973
0.0212774
-0.196032
-0.385272
-0.627141
-0.924759
-0.613444
-0.579209
-0.513661
-0.428164
-0.33223
-0.229665
-0.121739
-0.00920136
0.107025
0.225936
0.330548
0.404675
0.418782
0.309427
0.118775
-0.0911973
-0.29547
-0.467706
-0.536977
-0.61593
-0.637614
-0.603308
-0.537455
-0.451723
-0.355736
-0.253435
-0.146191
-0.034968
0.0789544
0.193863
0.29236
0.355492
0.344609
0.201651
0.0182077
-0.172726
-0.335539
-0.428412
-0.452484
-0.468391
-0.663339
-0.628899
-0.56285
-0.477047
-0.381194
-0.279332
-0.173012
-0.0634075
0.04779
0.158049
0.249963
0.298912
0.270488
0.101624
-0.0729228
-0.238774
-0.365261
-0.404325
-0.417195
-0.41852
-0.690818
-0.656159
-0.589909
-0.504131
-0.408553
-0.307357
-0.202217
-0.094568
0.0134664
0.118502
0.202918
0.237571
0.189608
0.00925902
-0.156252
-0.304751
-0.38076
-0.397912
-0.399261
-0.399077
-0.720112
-0.685149
-0.618654
-0.532969
-0.437825
-0.337496
-0.233807
-0.128462
-0.024008
0.075289
0.151313
0.174441
0.0904085
-0.0750581
-0.232412
-0.354767
-0.39135
-0.389668
-0.388738
-0.388128
-0.750932
-0.715681
-0.648977
-0.56347
-0.468918
-0.369689
-0.267747
-0.16506
-0.064598
0.028511
0.0960076
0.102308
6.05509e-05
-0.153543
-0.292879
-0.368355
-0.378755
-0.381515
-0.38224
-0.381953
-0.782723
-0.747314
-0.680619
-0.595398
-0.50164
-0.403774
-0.303879
-0.204228
-0.108124
-0.0214828
0.0374269
0.0290111
-0.0810462
-0.220108
-0.336792
-0.368643
-0.376733
-0.378106
-0.377916
-0.37765
-0.815012
-0.779484
-0.713129
-0.62835
-0.535639
-0.43942
-0.341914
-0.245672
-0.154308
-0.0740341
-0.0255299
-0.0406778
-0.155416
-0.274158
-0.367329
-0.382998
-0.375459
-0.374675
-0.374652
-0.374449
-0.846893
-0.811451
-0.745602
-0.661733
-0.570359
-0.476144
-0.381392
-0.288907
-0.202676
-0.128573
-0.0898901
-0.105351
-0.220066
-0.316431
-0.369672
-0.380028
-0.37624
-0.374228
-0.373354
-0.37303
-0.87678
-0.842028
-0.777064
-0.694602
-0.60502
-0.513229
-0.42164
-0.333235
-0.252413
-0.184601
-0.149351
-0.178399
-0.272061
-0.351644
-0.361645
-0.375509
-0.377068
-0.374268
-0.373239
-0.372688
-0.903054
-0.869394
-0.806371
-0.725742
-0.638561
-0.549719
-0.461769
-0.377764
-0.302385
-0.241257
-0.206434
-0.250065
-0.319337
-0.360153
-0.39179
-0.385026
-0.381726
-0.381129
-0.381105
-0.380648
-0.923575
-0.891628
-0.831479
-0.753722
-0.669677
-0.584429
-0.500652
-0.421408
-0.351415
-0.297116
-0.265993
-0.314211
-0.364647
-0.380352
-0.406158
-0.406998
-0.409942
-0.412889
-0.412745
-0.411679
-0.936062
-0.906819
-0.85039
-0.776653
-0.696835
-0.615987
-0.536999
-0.462878
-0.398301
-0.350434
-0.324298
-0.377006
-0.432666
-0.439016
-0.425649
-0.452994
-0.467301
-0.468233
-0.464205
-0.463376
-0.937854
-0.912673
-0.861159
-0.792679
-0.718305
-0.64297
-0.569382
-0.500713
-0.441609
-0.399414
-0.373895
-0.433675
-0.54632
-0.650085
-0.592747
-0.532952
-0.496542
-0.480093
-0.473733
-0.472555
-0.926797
-0.906494
-0.861595
-0.800169
-0.732567
-0.663795
-0.596392
-0.533361
-0.479576
-0.44151
-0.415062
-0.458257
-0.549491
-0.802035
-0.696173
-0.527556
-0.448751
-0.427344
-0.421621
-0.419052
-0.900775
-0.885454
-0.849867
-0.797881
-0.738632
-0.67745
-0.61674
-0.559396
-0.509932
-0.474849
-0.433528
-0.380105
-0.282657
-0.269619
-0.285834
-0.296497
-0.316903
-0.326782
-0.329401
-0.327866
-0.862296
-0.852379
-0.826716
-0.785984
-0.736496
-0.683682
-0.629872
-0.577743
-0.531367
-0.496476
-0.45441
-0.283458
0.0226804
0.38702
0.238483
-0.0622519
-0.239922
-0.307612
-0.326728
-0.33157
-0.818067
-0.81242
-0.797038
-0.767295
-0.728164
-0.683405
-0.636162
-0.588442
-0.544139
-0.507852
-0.469489
-0.396511
-0.304755
-0.251831
-0.38063
-0.507904
-0.564843
-0.571114
-0.57998
-0.592068
-0.777997
-0.774574
-0.767145
-0.747373
-0.716659
-0.678881
-0.636933
-0.592693
-0.548688
-0.514727
-0.492969
-0.640616
-1.1193
-1.73256
-1.99965
-1.96913
-1.81992
-1.56397
-1.33979
-1.29193
-0.749226
-0.747051
-0.7433
-0.73101
-0.706528
-0.673286
-0.634289
-0.590508
-0.544981
-0.501139
-0.484866
-0.572602
-0.945982
-1.43089
-1.78564
-1.76401
-1.58831
-1.36876
-1.16401
-1.09156
-0.727943
-0.727126
-0.725921
-0.719754
-0.700625
-0.669593
-0.630232
-0.584374
-0.531905
-0.471275
-0.426108
-0.404814
-0.409744
-0.300662
-0.131852
0.099344
0.271364
0.38045
0.444071
0.469333
-0.716053
-0.715688
-0.715045
-0.712257
-0.6984
-0.668415
-0.626684
-0.57657
-0.516805
-0.448956
-0.374418
-0.299331
-0.116049
0.28711
0.710876
1.09303
1.34643
1.46023
1.50521
1.51472
-0.70899
-0.708606
-0.707665
-0.706683
-0.698681
-0.670241
-0.625208
-0.568998
-0.503357
-0.420296
-0.320809
-0.216661
0.0459602
0.499734
0.970708
1.40092
1.66997
1.78959
1.82614
1.83057
-0.707071
-0.706904
-0.706582
-0.707071
-0.702888
-0.675838
-0.626218
-0.565067
-0.490649
-0.398445
-0.292115
-0.177866
0.0534561
0.461838
0.865561
1.22095
1.45545
1.55935
1.58886
1.59343
-0.705789
-0.706714
-0.709445
-0.713035
-0.710621
-0.682127
-0.630335
-0.565333
-0.484883
-0.389299
-0.281722
-0.175658
0.00341694
0.334283
0.637473
0.883385
1.04326
1.12017
1.15503
1.16646
-0.701012
-0.701649
-0.701047
-0.699284
-0.696624
-0.67783
-0.636618
-0.570785
-0.485845
-0.386636
-0.287449
-0.19573
-0.0593437
0.196682
0.431175
0.60864
0.726757
0.794302
0.831966
0.845971
-0.71775
-0.714165
-0.69731
-0.66827
-0.655999
-0.670798
-0.65178
-0.583862
-0.492356
-0.39013
-0.297217
-0.217828
-0.11011
0.101197
0.293774
0.439777
0.551512
0.618716
0.652116
0.662256
-0.782916
-0.778268
-0.769753
-0.762161
-0.757721
-0.757486
-0.7026
-0.607076
-0.49881
-0.391971
-0.305536
-0.237216
-0.15413
0.0179256
0.178468
0.30884
0.40878
0.468877
0.495666
0.502262
-0.905741
-0.918856
-0.955979
-0.984863
-0.97802
-0.923976
-0.783705
-0.634349
-0.502238
-0.389983
-0.304576
-0.241445
-0.17751
-0.0421891
0.0902362
0.193912
0.275236
0.323667
0.344553
0.348499
-0.990169
-1.01338
-1.05242
-1.07881
-1.06769
-0.99156
-0.811737
-0.633321
-0.49031
-0.377582
-0.295526
-0.23487
-0.175451
-0.0772315
0.0237235
0.102379
0.163027
0.197982
0.212076
0.214161
-0.891352
-0.914602
-0.950021
-0.978642
-0.969779
-0.882954
-0.722356
-0.572067
-0.448255
-0.349897
-0.275955
-0.218814
-0.163859
-0.100039
-0.0272883
0.0319375
0.0782107
0.104512
0.115741
0.115535
-0.598714
-0.615892
-0.645607
-0.67492
-0.678306
-0.628684
-0.541843
-0.453602
-0.376028
-0.30689
-0.249617
-0.203662
-0.164313
-0.120565
-0.0683245
-0.0234621
0.0114001
0.0309105
0.0373627
0.0368327
-0.264002
-0.272531
-0.290964
-0.317897
-0.342511
-0.348776
-0.341422
-0.321011
-0.292507
-0.256784
-0.220414
-0.188763
-0.167732
-0.141755
-0.104421
-0.0718343
-0.0474771
-0.0349221
-0.0310912
-0.0327729
-0.0377513
-0.0415208
-0.053919
-0.0794929
-0.117294
-0.158905
-0.191592
-0.211756
-0.217196
-0.208946
-0.192113
-0.174845
-0.163204
-0.153574
-0.13287
-0.114263
-0.101728
-0.097664
-0.0972663
-0.0988555
0.0578798
0.0557329
0.0465301
0.0241203
-0.0135709
-0.0597213
-0.103544
-0.138805
-0.161542
-0.170609
-0.167408
-0.159847
-0.156391
-0.155284
-0.152686
-0.15021
-0.150493
-0.153126
-0.155211
-0.156015
0.0754049
0.0738403
0.0669935
0.0499121
0.0203633
-0.0177873
-0.0583984
-0.095601
-0.124966
-0.143692
-0.149584
-0.145845
-0.142796
-0.151004
-0.161719
-0.171419
-0.18122
-0.188859
-0.191764
-0.192196
0.0614849
0.0603445
0.0555292
0.0435214
0.0223527
-0.00632211
-0.03949
-0.0729236
-0.10358
-0.128501
-0.142491
-0.144098
-0.142917
-0.158463
-0.175042
-0.188212
-0.198629
-0.204885
-0.206791
-0.207204
0.0397549
0.0389558
0.0356603
0.0274475
0.012653
-0.00832254
-0.0343696
-0.0631089
-0.0928579
-0.122621
-0.148115
-0.165967
-0.174974
-0.187767
-0.196408
-0.202675
-0.207721
-0.210366
-0.211284
-0.21185
0.0195856
0.0190319
0.0167978
0.0112054
0.000888994
-0.0143933
-0.0345679
-0.0588329
-0.0871206
-0.121204
-0.161996
-0.208245
-0.236119
-0.233728
-0.223902
-0.218156
-0.216155
-0.21608
-0.216232
-0.216693
0.0041219
0.00372003
0.00220963
-0.00160416
-0.00882126
-0.019993
-0.0355629
-0.0557401
-0.0817355
-0.117378
-0.168406
-0.23533
-0.274808
-0.255846
-0.234155
-0.223861
-0.220493
-0.22035
-0.22026
-0.220237
-0.00598337
-0.0062786
-0.00730835
-0.00989292
-0.0149121
-0.0229801
-0.03474
-0.0508026
-0.0726288
-0.105475
-0.154709
-0.219129
-0.246456
-0.226358
-0.209533
-0.205733
-0.207772
-0.209825
-0.209943
-0.209588
-0.0112648
-0.0114594
-0.0121495
-0.013818
-0.0171723
-0.0228122
-0.031336
-0.0434265
-0.0603357
-0.084829
-0.120143
-0.16132
-0.172297
-0.162188
-0.159504
-0.166005
-0.173998
-0.1778
-0.178108
-0.177665
-0.012537
-0.0126557
-0.0130826
-0.0141047
-0.0161794
-0.0198417
-0.0255574
-0.0337319
-0.0447846
-0.0593071
-0.0749814
-0.08722
-0.0847584
-0.0844182
-0.0972414
-0.111797
-0.12227
-0.126697
-0.127412
-0.127332
-0.0107637
-0.0108244
-0.0110505
-0.0115554
-0.0126931
-0.0148003
-0.0181922
-0.0229775
-0.0289424
-0.0344269
-0.0330676
-0.0195254
0.00191672
-0.0161684
-0.0403466
-0.059242
-0.0702419
-0.0729973
-0.0741192
-0.0743019
-0.0068977
-0.00691497
-0.00698641
-0.00715266
-0.00759197
-0.00853236
-0.0101154
-0.0122983
-0.0145967
-0.0147827
-0.00597455
0.0162692
0.0391375
0.019802
-0.0040484
-0.020197
-0.0267235
-0.028455
-0.0292286
-0.0296711
-0.00173401
-0.00170872
-0.00171608
-0.00162629
-0.00148944
-0.00140486
-0.00158793
-0.00208331
-0.00234351
-0.00236765
-0.000391672
0.00631861
0.0148707
0.00712744
0.0043557
0.00455206
0.00479996
0.00364828
0.000197567
-0.000865287
-0.153931
0.0126284
0.207006
0.376669
0.51213
0.618682
0.706724
0.781703
0.815918
0.792653
0.147857
0.268286
0.397836
0.509752
0.604016
0.681967
0.74508
0.789906
0.812344
0.824466
0.366088
0.448686
0.537234
0.615392
0.682592
0.738812
0.783535
0.816226
0.839882
0.857896
0.526492
0.585628
0.647055
0.704009
0.753527
0.795588
0.830151
0.857741
0.880492
0.898812
0.651654
0.694657
0.740524
0.784226
0.822845
0.856587
0.885481
0.909542
0.929903
0.947751
0.755802
0.788615
0.826664
0.862146
0.894725
0.923939
0.949476
0.97095
0.988787
1.00614
0.848244
0.876902
0.910831
0.942931
0.972852
1
1.02374
1.04345
1.05894
1.07602
0.936769
0.965951
0.999936
1.03196
1.06155
1.08812
1.11098
1.12946
1.14282
1.15986
1.03205
1.06524
1.10187
1.13544
1.16547
1.19165
1.2136
1.23087
1.24274
1.26014
1.14702
1.18484
1.22347
1.25771
1.28705
1.3118
1.33216
1.34805
1.35952
1.37758
1.29195
1.33049
1.36662
1.3973
1.42298
1.44507
1.46412
1.47965
1.49208
1.51007
1.46702
1.49864
1.52481
1.54726
1.56723
1.58595
1.60367
1.62014
1.63549
1.65356
1.65563
1.67283
1.68786
1.70409
1.71999
1.73453
1.74773
1.76166
1.7792
1.79935
1.83734
1.84688
1.85842
1.86923
1.87851
1.88809
1.89888
1.91024
1.9216
1.93696
2.04458
2.04824
2.03329
2.01848
2.01221
2.01788
2.03636
2.06667
2.09884
2.1255
2.3509
2.21603
2.13939
2.09701
2.07959
2.08355
2.11095
2.16736
2.26998
2.49435
0.657668
0.65554
0.651056
0.642433
0.630209
0.618082
0.607856
0.599964
0.594353
0.591107
0.590763
0.593511
0.598622
0.60585
0.615241
0.626782
0.639434
0.650469
0.656582
0.659636
0.582119
0.587966
0.5943
0.598793
0.601264
0.600941
0.598206
0.5944
0.590896
0.588645
0.588509
0.590716
0.594386
0.59868
0.60249
0.604375
0.60344
0.599959
0.594796
0.588176
0.57369
0.575986
0.57939
0.582386
0.584462
0.58596
0.586718
0.586406
0.585387
0.584514
0.5847
0.586137
0.58796
0.58927
0.589453
0.588564
0.587016
0.584681
0.581418
0.578498
0.568173
0.569259
0.571092
0.57347
0.575495
0.576924
0.577947
0.578704
0.579113
0.579346
0.579849
0.580666
0.581271
0.581343
0.580933
0.580086
0.578618
0.576535
0.574449
0.573066
0.562961
0.563624
0.564732
0.566437
0.568219
0.569853
0.571151
0.572172
0.573062
0.573864
0.574607
0.57517
0.575371
0.575209
0.574645
0.573592
0.572166
0.570623
0.569306
0.568526
0.557975
0.558435
0.559221
0.56052
0.562007
0.563525
0.564993
0.566296
0.56744
0.568508
0.569439
0.570019
0.570173
0.569904
0.56921
0.568222
0.567098
0.565966
0.565052
0.564535
0.553134
0.553478
0.554089
0.555157
0.556451
0.557826
0.559267
0.560718
0.562099
0.563393
0.564521
0.565225
0.565411
0.565142
0.564546
0.563772
0.562922
0.562057
0.561386
0.561008
0.548383
0.54865
0.549143
0.550051
0.551221
0.552518
0.553914
0.555408
0.556957
0.558492
0.559858
0.560742
0.561054
0.56094
0.560551
0.559994
0.559347
0.55871
0.558219
0.557931
0.54364
0.543853
0.544263
0.545061
0.546149
0.547398
0.548785
0.550324
0.552005
0.553776
0.555428
0.556573
0.557122
0.557247
0.557087
0.556749
0.556309
0.555862
0.555512
0.555286
0.538819
0.538991
0.539342
0.540066
0.541108
0.542335
0.543749
0.545372
0.547208
0.549232
0.551226
0.552725
0.553594
0.554004
0.554094
0.553984
0.553755
0.55348
0.553245
0.553065
0.533832
0.53397
0.534279
0.534959
0.535984
0.537234
0.538714
0.540462
0.542508
0.544841
0.547251
0.549191
0.550445
0.551185
0.551559
0.551691
0.551671
0.551562
0.551425
0.55128
0.528588
0.528699
0.528981
0.529641
0.530683
0.532003
0.533593
0.535519
0.53784
0.540565
0.543489
0.54596
0.547668
0.54879
0.549485
0.54988
0.550072
0.550133
0.550082
0.549964
0.522993
0.523081
0.523347
0.524012
0.525108
0.526538
0.528292
0.530466
0.53314
0.536361
0.539918
0.543025
0.54527
0.546833
0.547888
0.548593
0.549026
0.549242
0.549265
0.549169
0.51694
0.517007
0.517266
0.517958
0.519146
0.520734
0.522717
0.525216
0.528343
0.532184
0.536512
0.540385
0.543266
0.545348
0.546819
0.547866
0.548562
0.548948
0.549044
0.548965
0.5103
0.510347
0.510608
0.51135
0.51267
0.514472
0.516756
0.519673
0.523372
0.52798
0.533247
0.538041
0.541681
0.544376
0.546331
0.547761
0.548764
0.549333
0.5495
0.549434
0.502919
0.502949
0.503215
0.504031
0.505527
0.507608
0.510278
0.513726
0.518142
0.523693
0.530102
0.536003
0.540543
0.54396
0.546493
0.548378
0.549726
0.550492
0.550729
0.550675
0.494607
0.494623
0.494891
0.495804
0.497534
0.499959
0.503128
0.507249
0.51256
0.519273
0.527067
0.534291
0.539898
0.544163
0.547376
0.549811
0.551551
0.552531
0.552839
0.552792
0.485053
0.485039
0.485368
0.486421
0.488436
0.491316
0.495119
0.500089
0.506519
0.514665
0.524136
0.532934
0.539801
0.545065
0.549075
0.55215
0.554342
0.55556
0.55594
0.555898
0.473972
0.473934
0.474307
0.475555
0.477941
0.481408
0.486019
0.492065
0.499899
0.509811
0.521306
0.53197
0.54031
0.546746
0.551691
0.555502
0.558216
0.559689
0.56014
0.560098
0.460885
0.46082
0.461271
0.462772
0.465643
0.469877
0.475534
0.482963
0.492568
0.50466
0.518586
0.531446
0.541495
0.549281
0.555321
0.559977
0.563275
0.565015
0.56553
0.565484
0.445146
0.445052
0.445627
0.447479
0.451001
0.45626
0.463307
0.472541
0.484406
0.499187
0.516018
0.531431
0.543437
0.552758
0.560044
0.565659
0.569593
0.571601
0.572167
0.572111
0.425821
0.425699
0.426476
0.428843
0.433281
0.439963
0.448908
0.46055
0.475326
0.493434
0.513697
0.532023
0.546229
0.557263
0.565917
0.572602
0.577204
0.579458
0.580053
0.579979
0.401498
0.40136
0.402469
0.405633
0.411457
0.420223
0.431859
0.446776
0.465308
0.48748
0.511741
0.533336
0.54995
0.562859
0.572981
0.580822
0.586068
0.588513
0.589103
0.589003
0.369882
0.369764
0.371483
0.376027
0.384147
0.396154
0.411735
0.431148
0.454489
0.481548
0.510363
0.535524
0.554697
0.56958
0.581262
0.590261
0.596049
0.598584
0.599123
0.59899
0.326828
0.326872
0.32993
0.33735
0.349725
0.367018
0.388437
0.413905
0.443234
0.475998
0.509841
0.538765
0.560566
0.577456
0.590689
0.600767
0.606888
0.609351
0.609789
0.609621
0.264597
0.265792
0.273267
0.287101
0.307245
0.332943
0.362579
0.395762
0.432183
0.47131
0.510466
0.543213
0.567611
0.586432
0.601092
0.61198
0.618163
0.620316
0.620586
0.620395
0.190779
0.192525
0.206831
0.230582
0.261622
0.297248
0.335855
0.377261
0.421278
0.467419
0.512744
0.55023
0.578
0.59928
0.615701
0.627422
0.633525
0.635447
0.63568
0.635584
0.114597
0.12075
0.141878
0.175837
0.217255
0.262515
0.310057
0.359749
0.411468
0.464757
0.516431
0.558813
0.590056
0.613941
0.632272
0.644639
0.650281
0.651753
0.651918
0.651889
0.0522787
0.060729
0.0864166
0.127371
0.176919
0.230404
0.286006
0.343448
0.402505
0.462666
0.520435
0.567444
0.601914
0.628085
0.647761
0.660531
0.666107
0.667409
0.667616
0.667643
0.00158955
0.0106354
0.0398631
0.0860444
0.141732
0.201845
0.264263
0.328554
0.394325
0.460936
0.524488
0.575886
0.613367
0.641662
0.662775
0.67607
0.681553
0.683127
0.683419
0.68349
-0.0408467
-0.0315185
0.00015583
0.0503296
0.111059
0.176676
0.244881
0.315167
0.386978
0.459532
0.528517
0.584086
0.62445
0.654822
0.677306
0.691345
0.697283
0.699119
0.699435
0.699518
-0.0773864
-0.0679455
-0.0344302
0.0189447
0.0838425
0.154156
0.227402
0.302994
0.38027
0.458322
0.532426
0.59197
0.635111
0.667482
0.69133
0.706305
0.712764
0.714763
0.715118
0.715198
-0.109695
-0.100216
-0.0652867
-0.00920826
0.0591809
0.13354
0.211248
0.291621
0.373915
0.457093
0.536042
0.599379
0.645167
0.679429
0.704593
0.720384
0.727425
0.729603
0.729978
0.730036
-0.13905
-0.129528
-0.0934385
-0.0350252
0.0363572
0.114262
0.195938
0.280648
0.367569
0.45557
0.539147
0.606127
0.654443
0.690465
0.716846
0.733368
0.74095
0.743285
0.743675
0.743715
-0.166324
-0.156751
-0.119638
-0.0592207
0.0148321
0.0958734
0.181096
0.26975
0.360966
0.453537
0.541585
0.612105
0.662838
0.700515
0.727941
0.745077
0.75307
0.75554
0.755941
0.755959
-0.192078
-0.182444
-0.144369
-0.0822596
-0.00579948
0.0780364
0.166454
0.258708
0.353918
0.450834
0.543237
0.617259
0.670362
0.709607
0.737962
0.75557
0.76377
0.766358
0.766758
0.766749
-0.216816
-0.207022
-0.168095
-0.104405
-0.025808
0.06052
0.151823
0.247365
0.346291
0.447344
0.544023
0.621574
0.677064
0.717822
0.747032
0.764972
0.773245
0.775822
0.776222
0.776192
-0.240781
-0.230765
-0.191091
-0.125865
-0.0453744
0.0431762
0.137081
0.235622
0.337993
0.44299
0.543892
0.625042
0.683006
0.7253
0.755241
0.773376
0.781636
0.784171
0.784542
0.784483
-0.26408
-0.253856
-0.213392
-0.146795
-0.0646159
0.0259323
0.122165
0.223428
0.328978
0.437708
0.542784
0.62766
0.688257
0.732178
0.76282
0.781036
0.789165
0.791599
0.79192
0.791838
-0.286879
-0.276355
-0.23514
-0.167268
-0.0835782
0.00874676
0.107059
0.210774
0.319235
0.431476
0.540647
0.629404
0.692884
0.738608
0.769943
0.788095
0.795981
0.798237
0.798478
0.798369
-0.309139
-0.298341
-0.256394
-0.187325
-0.102271
-0.00837098
0.0917891
0.197689
0.308781
0.424279
0.537435
0.630226
0.696919
0.744714
0.77679
0.794715
0.802148
0.804125
0.804257
0.804119
-0.33092
-0.319817
-0.277093
-0.206953
-0.120678
-0.0253923
0.0763926
0.184228
0.297666
0.416136
0.533107
0.630056
0.700336
0.750605
0.783595
0.801114
0.807792
0.809319
0.80932
0.809164
-0.352052
-0.340715
-0.297231
-0.226115
-0.138755
-0.042249
0.0609324
0.170457
0.285958
0.407099
0.527637
0.628809
0.703057
0.756328
0.790629
0.807692
0.813226
0.813958
0.813731
0.813571
-0.372677
-0.360995
-0.316796
-0.244791
-0.156474
-0.0589043
0.0454981
0.156456
0.273742
0.397244
0.521034
0.626381
0.704933
0.761814
0.798104
0.815039
0.819113
0.818383
0.817573
0.817407
-0.392631
-0.380635
-0.335762
-0.262939
-0.173757
-0.0752756
0.0301688
0.142343
0.261125
0.386633
0.513335
0.622665
0.705763
0.766832
0.805968
0.823791
0.826776
0.823817
0.821342
0.820413
-0.411975
-0.399677
-0.354074
-0.280509
-0.190569
-0.0912947
0.0150272
0.128196
0.248218
0.375402
0.504607
0.617557
0.705311
0.770985
0.813701
0.834023
0.837813
0.833322
0.826836
0.818464
-0.430627
-0.41808
-0.371825
-0.297655
-0.207117
-0.10723
-0.000255024
0.113624
0.234583
0.36306
0.494329
0.610513
0.703095
0.773921
0.820639
0.845024
0.852371
0.848169
0.837775
0.832482
-0.44854
-0.435767
-0.389002
-0.31435
-0.223406
-0.123077
-0.0156654
0.0986081
0.220171
0.349486
0.482301
0.601139
0.698323
0.774838
0.824786
0.852499
0.862205
0.861904
0.824058