/*--------------------------------*- C++ -*----------------------------------*\
  =========                 |
  \\      /  F ield         | OpenFOAM: The Open Source CFD Toolbox
   \\    /   O peration     | Website:  https://openfoam.org
    \\  /    A nd           | Version:  10
     \\/     M anipulation  |
\*---------------------------------------------------------------------------*/
FoamFile
{
    format      ascii;
    class       volVectorField;
    location    "59";
    object      U;
}
// * * * * * * * * * * * * * * * * * * * * * * * * * * * * * * * * * * * * * //

dimensions      [0 1 -1 0 0 0 0];

internalField   nonuniform List<vector> 
8800
(
(0.980139 -0.0915208 0)
(1.00234 -0.0587303 0)
(0.999579 -0.0321299 0)
(0.999973 -0.0165242 0)
(1.00007 -0.00884438 0)
(1.00008 -0.00509906 0)
(1.00005 -0.00299453 0)
(1.00002 -0.00168316 0)
(0.999999 -0.000781634 0)
(1.00006 -8.28019e-05 0)
(0.999987 0.000625903 0)
(0.999994 0.00138125 0)
(1.00002 0.0024063 0)
(1.00004 0.00400722 0)
(1.00004 0.0067508 0)
(0.999996 0.0120515 0)
(0.999795 0.0230951 0)
(0.99903 0.0431565 0)
(1.00724 0.0790255 0)
(0.775025 0.0478395 0)
(0.35899 -0.0147484 0)
(1.0465 -0.0724821 0)
(1.08847 -0.0660194 0)
(1.04943 -0.0509134 0)
(1.02553 -0.0376933 0)
(1.01274 -0.0258877 0)
(1.00658 -0.0166911 0)
(1.00363 -0.0101992 0)
(1.00219 -0.00556551 0)
(1.00151 -0.00196898 0)
(1.00138 0.00124524 0)
(1.00173 0.0045551 0)
(1.0027 0.00844387 0)
(1.00475 0.0137543 0)
(1.00898 0.0214265 0)
(1.01795 0.0319135 0)
(1.03578 0.0446836 0)
(1.06741 0.0581236 0)
(1.09469 0.0699553 0)
(0.845616 0.0555084 0)
(0.217802 -0.00138032 0)
(1.07568 -0.0506433 0)
(1.09941 -0.0489245 0)
(1.06439 -0.0400065 0)
(1.0399 -0.0325461 0)
(1.02382 -0.0253311 0)
(1.01403 -0.0181072 0)
(1.00852 -0.0114796 0)
(1.00566 -0.00571689 0)
(1.00448 -0.000421625 0)
(1.00479 0.00469193 0)
(1.00663 0.00997952 0)
(1.01056 0.0159453 0)
(1.01789 0.0226934 0)
(1.03049 0.0297871 0)
(1.05047 0.0368679 0)
(1.08002 0.0446394 0)
(1.10563 0.0519586 0)
(0.94323 0.0410197 0)
(0.217165 0.00140621 0)
(0.176668 -0.000628216 0)
(1.01943 -0.0354508 0)
(1.10573 -0.0413903 0)
(1.07799 -0.0363707 0)
(1.05247 -0.0303233 0)
(1.03525 -0.0244437 0)
(1.02339 -0.0186414 0)
(1.01557 -0.0126344 0)
(1.01095 -0.00652926 0)
(1.00891 -0.000284416 0)
(1.00943 0.00587647 0)
(1.0125 0.0117906 0)
(1.01846 0.017551 0)
(1.02805 0.0231138 0)
(1.04224 0.0286504 0)
(1.06305 0.0344217 0)
(1.09382 0.0403001 0)
(1.09438 0.041815 0)
(0.830104 0.022792 0)
(0.17558 0.000648991 0)
(0.154772 -0.00046198 0)
(0.95825 -0.0256749 0)
(1.10444 -0.0350886 0)
(1.08811 -0.0326339 0)
(1.0613 -0.0281235 0)
(1.04326 -0.0231564 0)
(1.03087 -0.0178454 0)
(1.02226 -0.0122923 0)
(1.0167 -0.00637057 0)
(1.01403 9.23249e-05 0)
(1.01465 0.0065555 0)
(1.01842 0.0124268 0)
(1.02521 0.017733 0)
(1.03535 0.0227237 0)
(1.05006 0.0275316 0)
(1.07198 0.0319594 0)
(1.10094 0.0358272 0)
(1.06959 0.0340203 0)
(0.742366 0.0144723 0)
(0.153141 0.000485292 0)
(0.140103 -0.000333826 0)
(0.901286 -0.0193078 0)
(1.09687 -0.0301892 0)
(1.09627 -0.0293039 0)
(1.06903 -0.0255172 0)
(1.0502 -0.021426 0)
(1.03723 -0.0167156 0)
(1.02823 -0.0114533 0)
(1.02227 -0.0057179 0)
(1.01926 0.000648315 0)
(1.01985 0.00702537 0)
(1.02383 0.0126736 0)
(1.03085 0.0176416 0)
(1.04136 0.0220901 0)
(1.0567 0.0260186 0)
(1.07948 0.0295196 0)
(1.10321 0.0322223 0)
(1.03774 0.0281952 0)
(0.67546 0.0103304 0)
(0.137805 0.000361525 0)
(0.129382 -0.000252332 0)
(0.851464 -0.0149091 0)
(1.08455 -0.0260856 0)
(1.10197 -0.0264228 0)
(1.07588 -0.0230969 0)
(1.05654 -0.0194351 0)
(1.04314 -0.0152271 0)
(1.03376 -0.0103507 0)
(1.02752 -0.0048374 0)
(1.02429 0.00134243 0)
(1.02476 0.00750222 0)
(1.02874 0.0128665 0)
(1.03592 0.0174117 0)
(1.04671 0.0212547 0)
(1.06241 0.0245822 0)
(1.08564 0.0276038 0)
(1.1024 0.0294035 0)
(1.00297 0.0236681 0)
(0.623306 0.00793287 0)
(0.126269 0.000286 0)
(0.121214 -0.000193492 0)
(0.809024 -0.0117227 0)
(1.06928 -0.022489 0)
(1.10552 -0.0237912 0)
(1.08215 -0.0209185 0)
(1.06235 -0.0174842 0)
(1.04867 -0.0135585 0)
(1.03904 -0.00900413 0)
(1.03253 -0.00376649 0)
(1.02905 0.00217951 0)
(1.02936 0.00807002 0)
(1.03329 0.0130807 0)
(1.04052 0.0171681 0)
(1.05141 0.0205365 0)
(1.06736 0.023467 0)
(1.09097 0.0261705 0)
(1.09871 0.0270611 0)
(0.967769 0.0201105 0)
(0.581413 0.00637099 0)
(0.117111 0.000234396 0)
(0.114886 -0.000148835 0)
(0.773247 -0.00933791 0)
(1.05246 -0.0193224 0)
(1.10788 -0.0213591 0)
(1.08803 -0.0188686 0)
(1.06782 -0.0155959 0)
(1.05388 -0.0118397 0)
(1.04406 -0.00748857 0)
(1.03732 -0.0024916 0)
(1.03358 0.00319034 0)
(1.03368 0.00876637 0)
(1.03747 0.0133962 0)
(1.04464 0.0170778 0)
(1.05554 0.0200674 0)
(1.07172 0.0226704 0)
(1.09503 0.0250311 0)
(1.0922 0.0251179 0)
(0.93349 0.0173579 0)
(0.546775 0.00530042 0)
(0.109579 0.000198503 0)
(0.109948 -0.000113568 0)
(0.743205 -0.00749034 0)
(1.03516 -0.0165142 0)
(1.10929 -0.0190739 0)
(1.09362 -0.0168992 0)
(1.07311 -0.0137283 0)
(1.05889 -0.0100723 0)
(1.04887 -0.00584789 0)
(1.04191 -0.00102498 0)
(1.0379 0.00440646 0)
(1.03771 0.00966011 0)
(1.04128 0.0139299 0)
(1.04831 0.0172537 0)
(1.05921 0.0198952 0)
(1.07561 0.0222048 0)
(1.09781 0.0241977 0)
(1.08325 0.0235201 0)
(0.900721 0.0152603 0)
(0.517324 0.00455258 0)
(0.103178 0.000173768 0)
(0.106109 -8.4458e-05 0)
(0.718078 -0.0060033 0)
(1.01822 -0.0139935 0)
(1.10985 -0.0168652 0)
(1.09908 -0.0149759 0)
(1.0783 -0.0118239 0)
(1.06378 -0.00820681 0)
(1.05354 -0.00405428 0)
(1.04634 0.000650668 0)
(1.04201 0.00586827 0)
(1.04146 0.0108155 0)
(1.04473 0.0147408 0)
(1.05158 0.0177148 0)
(1.06245 0.0200188 0)
(1.07904 0.0220689 0)
(1.09923 0.0236759 0)
(1.07225 0.0222572 0)
(0.869598 0.0137026 0)
(0.491598 0.0040351 0)
(0.097562 0.000157547 0)
(0.103176 -5.93235e-05 0)
(0.69722 -0.00475854 0)
(1.00225 -0.0116942 0)
(1.10972 -0.014698 0)
(1.10439 -0.0130156 0)
(1.08349 -0.00983662 0)
(1.06864 -0.00620402 0)
(1.05814 -0.00206172 0)
(1.05063 0.00257477 0)
(1.04592 0.00762626 0)
(1.04494 0.0122992 0)
(1.04785 0.0158988 0)
(1.05448 0.0185373 0)
(1.0653 0.0205049 0)
(1.08204 0.0222939 0)
(1.09966 0.0234828 0)
(1.05948 0.0213402 0)
(0.83997 0.012595 0)
(0.468501 0.00369141 0)
(0.0924685 0.000148109 0)
(0.101028 -3.62168e-05 0)
(0.680157 -0.00366751 0)
(0.987713 -0.00954569 0)
(1.1091 -0.0124862 0)
(1.10949 -0.0109313 0)
(1.08873 -0.00770753 0)
(1.07354 -0.00399964 0)
(1.06272 0.000196032 0)
(1.05485 0.00481455 0)
(1.04966 0.00974989 0)
(1.04815 0.0141755 0)
(1.05063 0.0174511 0)
(1.057 0.0197518 0)
(1.06774 0.0213814 0)
(1.08454 0.0228978 0)
(1.0991 0.0236739 0)
(1.04513 0.020792 0)
(0.811526 0.0118689 0)
(0.447179 0.0034841 0)
(0.0876949 0.00014407 0)
(0.0996019 -1.34238e-05 0)
(0.666581 -0.0026607 0)
(0.974964 -0.00747401 0)
(1.10831 -0.0101691 0)
(1.11453 -0.0086563 0)
(1.09413 -0.00535074 0)
(1.07855 -0.00150689 0)
(1.06735 0.00279841 0)
(1.05903 0.00746092 0)
(1.05326 0.0123215 0)
(1.05112 0.0165158 0)
(1.05308 0.019473 0)
(1.05912 0.021427 0)
(1.06976 0.0226953 0)
(1.08659 0.0239511 0)
(1.09731 0.0242749 0)
(1.02925 0.0205826 0)
(0.783861 0.0114626 0)
(0.426947 0.00338485 0)
(0.0830797 0.00014416 0)
(0.0988783 1.08889e-05 0)
(0.656335 -0.00168385 0)
(0.964317 -0.00540667 0)
(1.10767 -0.00768485 0)
(1.11964 -0.0061292 0)
(1.09975 -0.00269869 0)
(1.08375 0.00134575 0)
(1.07211 0.00582876 0)
(1.06323 0.0106028 0)
(1.05674 0.0154388 0)
(1.05384 0.0194245 0)
(1.05517 0.0220575 0)
(1.06084 0.023649 0)
(1.07135 0.0245314 0)
(1.08811 0.0254927 0)
(1.09425 0.0253105 0)
(1.01184 0.0207529 0)
(0.756524 0.0113507 0)
(0.40723 0.00338087 0)
(0.0784898 0.000148112 0)
(0.0988783 3.31442e-05 0)
(0.649389 -0.000690021 0)
(0.956074 -0.00327137 0)
(1.10751 -0.00495706 0)
(1.12496 -0.00324993 0)
(1.10569 0.000369584 0)
(1.08923 0.00468638 0)
(1.07705 0.00941685 0)
(1.0675 0.0143669 0)
(1.06015 0.0192233 0)
(1.05633 0.0230098 0)
(1.05691 0.0253018 0)
(1.06211 0.0264984 0)
(1.07247 0.0269769 0)
(1.08888 0.0275776 0)
(1.08969 0.0268185 0)
(0.992763 0.0213264 0)
(0.729005 0.0115143 0)
(0.387507 0.00346265 0)
(0.0738038 0.000155446 0)
(0.0996371 7.0426e-05 0)
(0.64582 0.000331678 0)
(0.950555 -0.000992481 0)
(1.1082 -0.00190462 0)
(1.13071 7.21513e-05 0)
(1.11207 0.0039601 0)
(1.09508 0.00863233 0)
(1.08226 0.0136946 0)
(1.07189 0.0188924 0)
(1.06349 0.0238115 0)
(1.05856 0.0273995 0)
(1.05825 0.0293238 0)
(1.0629 0.0301055 0)
(1.07306 0.0301518 0)
(1.08877 0.0303331 0)
(1.08346 0.0288525 0)
(0.971778 0.0223331 0)
(0.700748 0.0119434 0)
(0.36729 0.00362293 0)
(0.0689131 0.000165654 0)
(0.101363 9.90299e-05 0)
(0.64601 0.00149183 0)
(0.948104 0.00151373 0)
(1.11016 0.00158148 0)
(1.13708 0.00393044 0)
(1.11901 0.00820848 0)
(1.10143 0.0133339 0)
(1.08784 0.0188242 0)
(1.07645 0.0243457 0)
(1.06677 0.0293724 0)
(1.06052 0.0327638 0)
(1.05916 0.0342695 0)
(1.06314 0.0346004 0)
(1.07306 0.0341795 0)
(1.08756 0.0338747 0)
(1.07528 0.0315085 0)
(0.948537 0.0238008 0)
(0.671161 0.0126342 0)
(0.346122 0.00385625 0)
(0.0637208 0.000178334 0)
(0.104113 0.000146316 0)
(0.650333 0.00292253 0)
(0.949222 0.00439989 0)
(1.11388 0.00561359 0)
(1.14429 0.0085099 0)
(1.12666 0.0133267 0)
(1.10841 0.0190208 0)
(1.09385 0.0250399 0)
(1.08123 0.0309598 0)
(1.07 0.0361138 0)
(1.06215 0.0392649 0)
(1.05956 0.0402849 0)
(1.06276 0.0401252 0)
(1.07238 0.039174 0)
(1.08504 0.0383278 0)
(1.06481 0.0348799 0)
(0.92257 0.0257816 0)
(0.639604 0.0135869 0)
(0.323559 0.00415798 0)
(0.0581415 0.000192832 0)
(0.108166 0.000208258 0)
(0.659337 0.00460224 0)
(0.954363 0.00781577 0)
(1.11987 0.0103689 0)
(1.15264 0.014006 0)
(1.13525 0.0195331 0)
(1.11616 0.0259319 0)
(1.10042 0.0325995 0)
(1.08626 0.0389916 0)
(1.07316 0.044278 0)
(1.06344 0.0471284 0)
(1.05943 0.047593 0)
(1.06168 0.0468517 0)
(1.07095 0.0452955 0)
(1.08125 0.0438497 0)
(1.05161 0.0390773 0)
(0.893263 0.0282981 0)
(0.605376 0.0147895 0)
(0.299174 0.0045172 0)
(0.0521038 0.000208151 0)
(0.113856 0.000291742 0)
(0.67373 0.00668828 0)
(0.964173 0.0119609 0)
(1.12868 0.0160886 0)
(1.16246 0.020675 0)
(1.14501 0.0271291 0)
(1.12486 0.0344012 0)
(1.10764 0.0418479 0)
(1.09157 0.0487647 0)
(1.0762 0.0541427 0)
(1.06427 0.0565724 0)
(1.05859 0.0563499 0)
(1.0598 0.0549616 0)
(1.06861 0.0527589 0)
(1.07598 0.0505592 0)
(1.03512 0.0441871 0)
(0.859884 0.0313679 0)
(0.567753 0.0162154 0)
(0.27259 0.00491601 0)
(0.0455668 0.000222736 0)
(0.121691 0.000411951 0)
(0.694463 0.0094202 0)
(0.979529 0.0171408 0)
(1.14098 0.0231273 0)
(1.17422 0.0289378 0)
(1.15625 0.0366143 0)
(1.13472 0.0449421 0)
(1.11558 0.053265 0)
(1.09712 0.0606943 0)
(1.07901 0.06603 0)
(1.06452 0.067845 0)
(1.05692 0.0667603 0)
(1.05702 0.0646146 0)
(1.06535 0.0616666 0)
(1.0689 0.0586028 0)
(1.01462 0.05028 0)
(0.821562 0.0349699 0)
(0.526013 0.0178086 0)
(0.243526 0.00532528 0)
(0.0385304 0.00023452 0)
(0.132382 0.000581562 0)
(0.722811 0.0131694 0)
(1.0016 0.0238314 0)
(1.15756 0.0320231 0)
(1.18854 0.0393844 0)
(1.1693 0.0486444 0)
(1.14586 0.0582061 0)
(1.12421 0.0674496 0)
(1.10277 0.0752704 0)
(1.0814 0.0803062 0)
(1.06401 0.0812192 0)
(1.05432 0.0790621 0)
(1.05317 0.0759572 0)
(1.06088 0.0721217 0)
(1.05942 0.0680087 0)
(0.989174 0.057368 0)
(0.777325 0.039023 0)
(0.479517 0.0194712 0)
(0.211869 0.00570166 0)
(0.0310563 0.000240864 0)
(0.147206 0.000858361 0)
(0.760807 0.0185498 0)
(1.03201 0.0328246 0)
(1.17935 0.0437252 0)
(1.20616 0.0530855 0)
(1.18449 0.0642249 0)
(1.15835 0.0751271 0)
(1.1334 0.0851654 0)
(1.10829 0.0930462 0)
(1.08311 0.0973328 0)
(1.0625 0.0969229 0)
(1.05058 0.0934043 0)
(1.04816 0.0891788 0)
(1.05481 0.0843917 0)
(1.04683 0.0789387 0)
(0.957633 0.0653563 0)
(0.726193 0.0433557 0)
(0.427861 0.0210483 0)
(0.177789 0.00598564 0)
(0.0232899 0.000238591 0)
(0.168351 0.00133417 0)
(0.811706 0.0267248 0)
(1.07334 0.045675 0)
(1.20747 0.0600672 0)
(1.22768 0.0721625 0)
(1.2019 0.0850076 0)
(1.17192 0.0970517 0)
(1.14271 0.107368 0)
(1.11318 0.114632 0)
(1.08372 0.117446 0)
(1.05966 0.115114 0)
(1.04549 0.109866 0)
(1.04182 0.104346 0)
(1.04706 0.0986037 0)
(1.03023 0.0912412 0)
(0.918559 0.0739684 0)
(0.667379 0.0476658 0)
(0.371187 0.0223324 0)
(0.141923 0.00610673 0)
(0.0154872 0.000224008 0)
(0.1992 0.00239021 0)
(0.881219 0.0403968 0)
(1.12926 0.0662276 0)
(1.24239 0.0846262 0)
(1.25288 0.0993332 0)
(1.22091 0.113329 0)
(1.18577 0.125551 0)
(1.15132 0.135023 0)
(1.11674 0.140565 0)
(1.08268 0.140909 0)
(1.05515 0.1359 0)
(1.03883 0.128465 0)
(1.03401 0.12141 0)
(1.03731 0.114558 0)
(1.00834 0.104731 0)
(0.87029 0.0826816 0)
(0.600763 0.0514955 0)
(0.31089 0.0231448 0)
(0.105836 0.00603864 0)
(0.00813228 0.000195126 0)
(0.241247 0.00861582 3.29602e-20)
(0.973463 0.0676608 2.90324e-20)
(1.19755 0.100633 -1.02989e-20)
(1.28102 0.12102 0)
(1.27898 0.138128 -2.78678e-34)
(1.23941 0.151463 4.11464e-21)
(1.19833 0.162128 -7.64777e-21)
(1.15812 0.169368 0)
(1.11814 0.17211 1.62128e-34)
(1.0792 0.169175 -9.9309e-21)
(1.04795 0.161 0)
(1.02928 0.151176 -1.19958e-20)
(1.0234 0.14264 -3.55193e-20)
(1.02427 0.135389 -1.68318e-20)
(0.977684 0.122063 -5.08642e-21)
(0.807293 0.0932661 -3.0275e-21)
(0.520942 0.0554098 0)
(0.245144 0.0238618 2.11913e-21)
(0.069649 0.00610374 2.50195e-21)
(0.00125062 0.000188239 4.50554e-20)
(0.270738 0.0240546 2.06701e-20)
(1.04959 0.110243 5.33523e-22)
(1.25389 0.149655 2.59054e-21)
(1.31543 0.170233 0)
(1.30183 0.187177 -1.36635e-20)
(1.25522 0.198317 -1.58308e-20)
(1.20823 0.206654 -7.60157e-21)
(1.16217 0.211376 -2.78274e-20)
(1.1165 0.211281 0)
(1.07216 0.205126 4.224e-20)
(1.03659 0.193851 4.22821e-20)
(1.01519 0.181621 1.265e-20)
(1.00723 0.171123 4.65079e-20)
(1.00068 0.16138 6.5745e-20)
(0.930198 0.142907 0)
(0.723303 0.105192 9.29857e-20)
(0.427837 0.0595485 1.33418e-19)
(0.176895 0.0241103 1.48179e-19)
(0.0339981 0.00505986 -1.69392e-19)
(-0.005625 -0.000455025 -3.18809e-21)
(0.271801 0.0398242 0)
(1.09764 0.165447 2.83642e-21)
(1.29168 0.209972 0)
(1.34209 0.230019 -1.55198e-20)
(1.31966 0.24392 0)
(1.26714 0.251211 -3.02021e-20)
(1.2146 0.255822 1.5335e-20)
(1.16296 0.256947 -5.51961e-20)
(1.11188 0.253183 -1.5751e-21)
(1.06238 0.243214 2.17278e-20)
(1.02265 0.228485 9.34589e-20)
(0.998501 0.213641 -2.47844e-22)
(0.988125 0.201104 -3.39009e-20)
(0.974489 0.188691 -6.21917e-20)
(0.887434 0.164425 7.37333e-20)
(0.664484 0.117248 -1.30679e-19)
(0.37558 0.0638886 -1.72847e-20)
(0.144026 0.0244768 0)
(0.0180725 0.00357443 -9.16664e-24)
(-0.00881793 -0.00126003 0)
(0.26547 0.0534828 1.56568e-20)
(1.1235 0.223956 -1.09084e-20)
(1.31489 0.274749 -1.26896e-20)
(1.35967 0.294985 6.77349e-21)
(1.3311 0.305013 -1.17113e-20)
(1.27413 0.3078 6.28416e-20)
(1.21702 0.308006 3.17873e-20)
(1.16057 0.304908 0)
(1.10463 0.296953 -1.0701e-19)
(1.05036 0.282756 0)
(1.00669 0.264251 -4.89265e-20)
(0.979863 0.246598 -6.11994e-20)
(0.967091 0.23187 -3.7045e-20)
(0.94784 0.216446 -4.53093e-20)
(0.851938 0.186641 0)
(0.626801 0.131432 0)
(0.349626 0.0712355 -1.12742e-19)
(0.130469 0.0264829 2.23076e-20)
(0.0111287 0.00241829 -1.3038e-20)
(-0.0107404 -0.00214235 -1.52538e-20)
(0.257936 0.0655641 9.70079e-21)
(1.13483 0.282319 0)
(1.32755 0.340455 1.77446e-20)
(1.36914 0.361358 1.71554e-20)
(1.33625 0.367589 2.84881e-20)
(1.27603 0.36585 0)
(1.21531 0.361556 3.02358e-20)
(1.15488 0.354065 6.06093e-20)
(1.09473 0.341722 5.43043e-20)
(1.03617 0.323091 1.03084e-19)
(0.988832 0.300674 0)
(0.959398 0.280132 -1.32279e-19)
(0.944246 0.263089 -8.02381e-20)
(0.92086 0.244842 -4.75746e-20)
(0.822023 0.209944 2.93436e-19)
(0.602895 0.147758 3.49558e-20)
(0.339034 0.0813109 1.64065e-19)
(0.129725 0.0304608 -7.77238e-19)
(0.0111822 0.00225918 4.59675e-19)
(-0.0113028 -0.00283252 -5.53998e-19)
(0.250707 0.0764737 2.46468e-20)
(1.13686 0.33869 -2.3396e-21)
(1.33257 0.405178 1.19291e-22)
(1.37209 0.427241 -1.08464e-20)
(1.33606 0.429907 -2.02346e-20)
(1.2734 0.423833 1.80156e-21)
(1.20983 0.415209 -3.29303e-20)
(1.14612 0.403405 6.2163e-20)
(1.08237 0.386708 -1.17136e-19)
(1.02 0.363652 0)
(0.969299 0.33732 -5.95877e-20)
(0.937328 0.313812 -1.61501e-21)
(0.919848 0.294457 -8.81721e-20)
(0.893506 0.273453 0)
(0.795523 0.234113 -6.378e-20)
(0.5865 0.166129 -1.51708e-19)
(0.337148 0.0937358 4.04236e-19)
(0.135476 0.0365125 -3.9851e-19)
(0.0162751 0.00369971 5.66004e-19)
(-0.010403 -0.00312874 -5.88106e-19)
(0.244625 0.0865603 -4.12556e-22)
(1.13311 0.392419 6.89869e-21)
(1.33207 0.467931 1.09795e-20)
(1.36993 0.491431 1.28253e-21)
(1.33159 0.490925 -9.62951e-21)
(1.2671 0.48081 0)
(1.20123 0.468118 -2.90842e-20)
(1.13477 0.452206 -6.4744e-20)
(1.06788 0.431323 -6.05045e-20)
(1.00211 0.403959 0)
(0.948293 0.373715 -6.15976e-20)
(0.913908 0.34723 -7.73755e-20)
(0.894262 0.325652 9.59593e-20)
(0.865691 0.302073 -5.86268e-20)
(0.770522 0.258724 -2.80101e-19)
(0.572935 0.185926 1.66637e-19)
(0.338416 0.107577 4.95746e-20)
(0.143917 0.0442566 0)
(0.0239266 0.00661093 -5.49824e-19)
(-0.00859562 -0.00301667 -2.01901e-20)
(0.239795 0.0961354 6.74064e-21)
(1.1259 0.44332 -1.01478e-20)
(1.32756 0.528244 -7.19181e-21)
(1.36391 0.553225 9.19941e-21)
(1.32378 0.549978 -2.97057e-20)
(1.2579 0.536199 5.07691e-20)
(1.19017 0.519742 6.2903e-20)
(1.12136 0.499993 -1.03399e-19)
(1.05172 0.475158 3.8604e-20)
(0.982853 0.443651 -2.54233e-19)
(0.926152 0.409594 -7.03675e-20)
(0.889526 0.380273 0)
(0.867901 0.356569 1.04426e-19)
(0.837594 0.330494 1.25826e-19)
(0.745608 0.283436 1.51183e-19)
(0.559374 0.206377 -1.81836e-19)
(0.338944 0.122259 -5.38862e-20)
(0.152077 0.0533785 6.32004e-20)
(0.0321728 0.0106317 0)
(-0.00635689 -0.00254876 -4.401e-20)
(0.236129 0.10536 -9.46958e-20)
(1.11685 0.491497 5.49227e-20)
(1.3203 0.586034 9.35445e-21)
(1.35504 0.612298 1.3214e-21)
(1.31345 0.606674 -9.77649e-21)
(1.2465 0.589597 -4.07704e-21)
(1.17724 0.569724 -6.94297e-20)
(1.10643 0.546453 -3.7602e-20)
(1.03432 0.517934 -1.05591e-19)
(0.962603 0.4825 3.10615e-22)
(0.90321 0.444825 -2.19688e-19)
(0.864515 0.412815 1.88527e-19)
(0.841049 0.386943 -1.15342e-19)
(0.809274 0.358432 1.39456e-19)
(0.719786 0.307905 0)
(0.544439 0.226851 -9.91421e-20)
(0.336748 0.137229 9.20362e-23)
(0.158049 0.0630454 -2.7701e-19)
(0.0394582 0.0152278 -4.06303e-20)
(-0.00406986 -0.0018341 0)
(0.23349 0.114382 0)
(1.1069 0.537175 6.21792e-20)
(1.31114 0.641387 3.14688e-20)
(1.34411 0.668513 3.30235e-21)
(1.30126 0.6608 -1.70765e-20)
(1.23348 0.640778 0)
(1.16296 0.617833 -2.92569e-20)
(1.09041 0.59137 -1.05927e-21)
(1.01607 0.55947 2.26567e-19)
(0.941685 0.520366 -3.46767e-20)
(0.879759 0.479254 -1.59028e-19)
(0.83912 0.444522 9.76475e-20)
(0.813947 0.416395 -2.22175e-21)
(0.780825 0.385408 1.48295e-19)
(0.69337 0.33129 9.21024e-20)
(0.527674 0.246056 -2.14537e-19)
(0.331247 0.151544 2.54178e-19)
(0.160534 0.0722323 7.53266e-20)
(0.0444802 0.0196401 3.10331e-19)
(-0.00217965 -0.00108668 -8.28664e-19)
(0.231828 0.123328 -2.9472e-20)
(1.09671 0.580541 4.12178e-20)
(1.30079 0.693801 -2.90175e-20)
(1.33173 0.72183 -1.16287e-20)
(1.28779 0.712249 0)
(1.21936 0.689606 -1.8252e-20)
(1.14779 0.663933 1.00784e-19)
(1.07369 0.634613 8.14971e-20)
(0.997304 0.599645 0)
(0.920384 0.557153 -5.03234e-19)
(0.856007 0.512705 4.31252e-19)
(0.813492 0.475144 0)
(0.786792 0.444756 1.35328e-19)
(0.752389 0.411178 -2.23132e-21)
(0.666358 0.353143 -2.94697e-19)
(0.508736 0.263438 1.15316e-19)
(0.322545 0.164253 0)
(0.159161 0.0800842 4.06778e-19)
(0.0467301 0.0232055 0)
(-0.000897903 -0.0004823 -3.92997e-19)
(0.230962 0.132284 3.48165e-20)
(1.08673 0.621763 5.19532e-20)
(1.28958 0.743382 -2.92362e-20)
(1.3184 0.772239 0)
(1.27349 0.760996 -7.29982e-21)
(1.20453 0.736037 0)
(1.13208 0.707953 -9.54791e-20)
(1.05661 0.676106 -3.60657e-20)
(0.97831 0.638398 3.92174e-20)
(0.898941 0.592803 -2.49101e-19)
(0.832103 0.545085 4.42771e-20)
(0.787758 0.504682 0)
(0.759657 0.472027 -2.89006e-19)
(0.723873 0.435579 2.19674e-21)
(0.638668 0.373108 0)
(0.487761 0.278547 1.40388e-21)
(0.310633 0.174659 3.72544e-19)
(0.154519 0.0858576 -3.51882e-19)
(0.0463259 0.0254501 1.03745e-19)
(-0.000273504 -0.000132771 0)
(0.230579 0.141118 0)
(1.07724 0.660927 6.16687e-20)
(1.27783 0.790277 4.04894e-20)
(1.30453 0.819798 -2.50243e-21)
(1.25872 0.807067 3.27796e-21)
(1.18935 0.780069 -4.04888e-20)
(1.11615 0.749875 3.68321e-20)
(1.03944 0.715814 -4.41248e-20)
(0.95934 0.675689 1.77097e-19)
(0.877552 0.627287 -3.98122e-19)
(0.808184 0.576419 -3.91335e-21)
(0.761999 0.533264 -1.25457e-19)
(0.732519 0.498187 4.69788e-19)
(0.695233 0.458291 -2.58942e-21)
(0.610392 0.390812 -2.29258e-19)
(0.464873 0.290902 -4.09048e-19)
(0.295993 0.18241 0)
(0.146919 0.0893855 0)
(0.0439124 0.0262887 1.12008e-19)
(-0.000218917 -0.000108094 -6.57955e-20)
(0.230841 0.149962 4.77754e-20)
(1.06827 0.697903 -1.39289e-19)
(1.26584 0.834562 -4.34684e-20)
(1.29041 0.864609 0)
(1.24376 0.850521 -1.52314e-21)
(1.17407 0.82173 -2.98414e-20)
(1.10026 0.789708 8.41532e-20)
(1.02242 0.75373 1.68854e-19)
(0.940609 0.711513 2.28607e-19)
(0.856404 0.660611 -3.24161e-19)
(0.7844 0.606815 -3.71153e-19)
(0.736261 0.560995 3.35598e-19)
(0.705281 0.5231 0)
(0.666345 0.479058 -1.04084e-19)
(0.581435 0.405922 -2.4822e-19)
(0.440206 0.300319 -2.94136e-19)
(0.279025 0.187234 -3.47968e-19)
(0.136807 0.0904722 1.02825e-19)
(0.0398482 0.0258542 -6.03684e-20)
(-0.000505149 -0.000289961 2.84953e-22)
(0.231226 0.158741 0)
(1.05997 0.733203 0)
(1.25382 0.876344 2.50885e-21)
(1.27625 0.90678 0)
(1.22885 0.891448 -2.53991e-20)
(1.15892 0.861081 1.40484e-20)
(1.08459 0.82748 0)
(1.00574 0.789863 1.91321e-20)
(0.922301 0.745871 3.79169e-19)
(0.835674 0.692803 -7.45961e-19)
(0.760891 0.636393 0)
(0.710579 0.587898 -2.16115e-19)
(0.67785 0.546632 -3.05556e-21)
(0.637131 0.497765 -2.40137e-21)
(0.551861 0.418283 2.65432e-19)
(0.414372 0.306685 -1.69867e-22)
(0.260144 0.189049 -7.4981e-19)
(0.124774 0.0892068 2.21261e-19)
(0.0345396 0.0242093 6.53962e-20)
(-0.00100559 -0.000639591 0)
(0.231702 0.167375 -1.88064e-19)
(1.05209 0.766841 -9.23684e-20)
(1.24187 0.915701 -1.23829e-19)
(1.26222 0.94643 1.3193e-19)
(1.21415 0.929924 -6.0726e-20)
(1.14406 0.898188 0)
(1.06931 0.863235 4.702e-20)
(0.989541 0.824238 -4.34082e-20)
(0.904563 0.778781 3.89089e-21)
(0.815524 0.72391 5.53301e-20)
(0.737795 0.66524 4.80037e-19)
(0.684982 0.613984 -7.5647e-20)
(0.650165 0.568819 -2.89833e-19)
(0.60746 0.514389 -1.21476e-19)
(0.521665 0.427646 1.44386e-19)
(0.387867 0.309759 1.83956e-23)
(0.239961 0.187762 2.02042e-19)
(0.111657 0.085717 -4.76162e-19)
(0.0287786 0.0216382 5.62846e-19)
(-0.00161835 -0.0011015 8.20499e-20)
(0.232075 0.175745 7.11186e-20)
(1.04463 0.798921 -5.1831e-20)
(1.2301 0.952732 6.2267e-21)
(1.24843 0.983681 8.229e-20)
(1.1998 0.966062 1.97355e-20)
(1.12962 0.933126 -1.812e-20)
(1.05453 0.897024 1.13494e-20)
(0.973948 0.856878 -1.79133e-19)
(0.887524 0.810244 -4.14037e-19)
(0.796091 0.753952 -4.42806e-19)
(0.715254 0.693408 0)
(0.659515 0.639316 -3.33465e-19)
(0.622173 0.589872 4.18341e-19)
(0.577078 0.528912 0)
(0.49075 0.433633 -3.09242e-19)
(0.361121 0.309113 1.84427e-19)
(0.219682 0.183157 -2.17249e-19)
(0.0987481 0.0803497 -2.56259e-19)
(0.0232597 0.0185513 -4.53364e-19)
(-0.00221448 -0.00158915 -3.53482e-19)
(0.232787 0.183985 -8.00757e-20)
(1.03744 0.829424 5.545e-20)
(1.21858 0.987508 1.27566e-19)
(1.23498 1.01859 1.1876e-19)
(1.18588 0.999956 -3.80484e-20)
(1.11568 0.965982 -1.65316e-21)
(1.04034 0.928899 3.95719e-20)
(0.959046 0.887825 -1.80993e-19)
(0.871268 0.840284 -2.44266e-19)
(0.777497 0.782954 4.61591e-19)
(0.693386 0.720919 1.05324e-18)
(0.634264 0.664055 0)
(0.593818 0.61012 0)
(0.545609 0.541357 -1.3995e-19)
(0.45877 0.435872 0)
(0.334272 0.303958 3.96575e-19)
(0.200532 0.174461 4.67218e-19)
(0.0880059 0.0731208 0)
(0.0192282 0.0153802 0)
(-0.00265442 -0.00199571 3.79848e-19)
(0.233156 0.191793 9.07472e-20)
(1.03056 0.858342 7.35016e-20)
(1.20738 1.02015 9.25846e-20)
(1.22195 1.05129 -1.12834e-19)
(1.17247 1.03172 -4.79023e-20)
(1.1023 0.996833 -9.84184e-21)
(1.02681 0.95892 -5.23034e-20)
(0.944897 0.917108 -3.76825e-22)
(0.855874 0.868911 -5.05345e-21)
(0.759834 0.810914 -4.84797e-21)
(0.672326 0.747788 5.42155e-19)
(0.60936 0.688414 0)
(0.565073 0.629917 4.24214e-19)
(0.512651 0.551857 2.98527e-19)
(0.425034 0.434298 7.22639e-19)
(0.306755 0.293131 2.13684e-19)
(0.183742 0.159254 -2.51548e-19)
(0.08341 0.0614062 -1.47676e-19)
(0.0222385 0.0111789 0)
(-0.00104532 -0.00151931 4.08204e-19)
(0.233832 0.199612 -2.04019e-19)
(1.02394 0.885777 0)
(1.19647 1.05072 1.08188e-19)
(1.20935 1.08186 -9.5161e-20)
(1.15962 1.06144 6.23808e-20)
(1.08954 1.02576 3.08908e-20)
(1.01397 0.987145 9.03995e-20)
(0.931539 0.944763 -1.56354e-20)
(0.841384 0.896133 0)
(0.743179 0.837807 -5.05706e-19)
(0.652208 0.774015 -1.1755e-18)
(0.584968 0.712623 4.89586e-20)
(0.535997 0.649568 5.85513e-19)
(0.477958 0.560768 0)
(0.388492 0.429548 4.88083e-19)
(0.276316 0.275756 0)
(0.167657 0.132256 0)
(0.089198 0.0317217 -1.59796e-19)
(0.0529493 -0.00498232 0)
(0.0280808 0.0114109 1.09377e-19)
(0.234139 0.206838 -2.27582e-19)
(1.01753 0.912049 0)
(1.18586 1.07941 1.79435e-19)
(1.19713 1.11054 0)
(1.14728 1.08939 -3.70246e-20)
(1.07731 1.05306 0)
(1.00176 1.01389 2.6123e-21)
(0.918873 0.971129 2.43219e-20)
(0.827677 0.922314 3.04827e-20)
(0.727364 0.864011 -5.52202e-19)
(0.632843 0.800044 3.4921e-20)
(0.560863 0.737391 3.95665e-19)
(0.506166 0.669793 5.71284e-19)
(0.440705 0.568714 7.75351e-20)
(0.34726 0.42326 3.82947e-19)
(0.238178 0.252858 0)
(0.140238 0.089457 5.31039e-19)
(0.0755941 -0.016131 -3.10539e-19)
(0.0430628 0.0448446 3.60114e-19)
(-0.0690392 0.436294 -4.24194e-19)
(0.234431 0.213873 1.88269e-19)
(1.0111 0.93694 2.91404e-19)
(1.17546 1.10654 0)
(1.18517 1.13779 5.013e-21)
(1.13526 1.11614 1.07574e-19)
(1.06538 1.07941 -9.45396e-20)
(0.989876 1.03994 2.4699e-20)
(0.906489 0.997141 0)
(0.814218 0.948541 1.96797e-19)
(0.711716 0.890826 -2.82359e-20)
(0.613323 0.827377 0)
(0.535796 0.764464 0)
(0.473657 0.692048 5.11558e-19)
(0.39867 0.576387 -2.40291e-19)
(0.298169 0.417551 -3.88188e-19)
(0.187421 0.228013 0)
(0.0817444 0.0941701 2.67927e-19)
(0.00413846 0.439457 -3.09424e-19)
(0.0335102 1.8898 -1.68171e-19)
(0.0628275 2.81144 -2.15893e-19)
(0.234541 0.220077 -1.41153e-19)
(1.00482 0.960635 -3.73352e-19)
(1.16528 1.1321 1.0627e-19)
(1.17345 1.16347 9.0505e-20)
(1.12358 1.14147 0)
(1.05379 1.10452 -7.69527e-20)
(0.978502 1.065 2.37289e-20)
(0.894579 1.02237 -1.11693e-20)
(0.801278 0.9743 2.95434e-20)
(0.696612 0.917634 5.22152e-19)
(0.594246 0.855411 5.90342e-19)
(0.510676 0.79344 4.41362e-19)
(0.439306 0.716184 5.14365e-19)
(0.353585 0.582894 -5.64397e-19)
(0.246817 0.4161 -5.86164e-19)
(0.125483 0.267981 0)
(0.0441692 0.828786 0)
(0.101402 2.55046 1.46966e-19)
(0.102473 3.2013 0)
(0.105628 3.38819 3.4804e-19)
(0.237207 0.225758 0)
(0.999288 0.983336 0)
(1.1551 1.15593 0)
(1.16174 1.18741 2.69461e-20)
(1.11191 1.16512 9.80855e-20)
(1.04234 1.12826 -6.94314e-20)
(0.967536 1.08896 1.13393e-20)
(0.883103 1.04671 -1.05365e-20)
(0.788825 0.999459 2.38722e-19)
(0.682085 0.944298 -9.22013e-21)
(0.575773 0.884102 1.16059e-18)
(0.485788 0.824094 -5.11137e-20)
(0.403315 0.743073 6.19752e-20)
(0.308217 0.58621 8.16975e-20)
(0.183794 0.429352 -4.87393e-21)
(0.100465 0.960823 1.84053e-21)
(0.140577 2.7201 -7.77459e-19)
(0.148768 3.29245 -2.90648e-19)
(0.137632 3.42593 1.48306e-19)
(0.12497 3.44819 -1.63939e-19)
(0.155493 0.182633 8.32308e-20)
(0.988497 1.0078 0)
(1.14458 1.17823 -2.11807e-19)
(1.15059 1.21012 -2.4309e-19)
(1.10111 1.18791 2.24845e-19)
(1.03196 1.15132 7.79164e-20)
(0.956943 1.11188 -6.16637e-21)
(0.872174 1.0703 1.00668e-19)
(0.777033 1.02419 -1.9158e-19)
(0.668429 0.970996 0)
(0.558322 0.913704 5.66038e-19)
(0.461674 0.856186 -3.58294e-19)
(0.366863 0.775339 0)
(0.256498 0.588324 7.58281e-20)
(0.146184 0.753747 1.82206e-19)
(0.15626 2.49166 -2.11909e-19)
(0.213445 3.32282 2.37018e-19)
(0.193353 3.43894 1.25976e-19)
(0.160823 3.46061 1.40992e-19)
(0.138992 3.47095 2.19761e-19)
(0.280427 0.264314 -1.52375e-19)
(0.973455 1.01787 0)
(1.12663 1.20376 2.29226e-19)
(1.13606 1.24082 2.64185e-19)
(1.08396 1.22101 -2.45525e-19)
(1.01407 1.18482 -1.0119e-19)
(0.93813 1.147 -2.1465e-20)
(0.852863 1.10668 8.12382e-21)
(0.75644 1.06277 1.74975e-19)
(0.645144 1.01346 4.37116e-19)
(0.529953 0.962833 3.13123e-20)
(0.423003 0.910942 3.15825e-19)
(0.300605 0.814511 5.75166e-20)
(0.213804 0.930518 -7.41042e-20)
(0.230311 2.34041 -1.68279e-19)
(0.291816 3.32535 1.57157e-19)
(0.274841 3.46815 -1.71261e-19)
(0.239299 3.4901 -9.84064e-20)
(0.202076 3.51785 -7.73926e-20)
(0.15054 3.51196 -9.22565e-21)
(0.268383 0.261252 0)
(0.971249 1.04068 6.5373e-20)
(1.11846 1.22732 -4.70136e-20)
(1.12561 1.26451 -3.11649e-20)
(1.07329 1.24426 -1.68243e-19)
(1.00338 1.20829 1.02998e-19)
(0.927124 1.17063 2.20041e-20)
(0.841671 1.13113 6.77038e-21)
(0.74475 1.08871 -1.77647e-19)
(0.63221 1.04222 -1.38844e-20)
(0.514365 0.996707 -1.0078e-18)
(0.402517 0.948897 4.51346e-20)
(0.283979 0.879921 -5.38685e-20)
(0.25565 1.47884 -6.78305e-20)
(0.331224 3.09769 1.80556e-20)
(0.350933 3.4658 4.22892e-22)
(0.310482 3.5223 2.29637e-19)
(0.273027 3.549 1.05622e-19)
(0.224245 3.5726 -1.36132e-20)
(0.165188 3.5687 -3.73111e-20)
(0.252161 0.25974 1.64978e-19)
(0.967473 1.06618 4.45519e-19)
(1.10987 1.25298 -1.34885e-19)
(1.11457 1.28961 -1.17919e-19)
(1.06202 1.26886 0)
(0.992259 1.23295 1.74347e-19)
(0.915992 1.19553 4.69706e-20)
(0.830633 1.15682 5.30475e-21)
(0.733528 1.11598 -2.00608e-20)
(0.62026 1.07257 -3.81161e-19)
(0.500581 1.03256 -4.58189e-19)
(0.385442 0.98797 -3.64162e-19)
(0.285911 1.00758 -4.04719e-19)
(0.325289 2.19418 4.19804e-19)
(0.418264 3.37457 3.41452e-19)
(0.395439 3.52362 0)
(0.349744 3.56886 0)
(0.311579 3.60995 -8.42742e-21)
(0.260519 3.67039 0)
(0.177577 3.64663 6.83562e-21)
(0.241465 0.261679 -2.46534e-19)
(0.961742 1.09279 -3.77517e-19)
(1.09986 1.27986 0)
(1.10218 1.31544 6.004e-21)
(1.04947 1.29406 -1.78253e-19)
(0.980017 1.25808 2.7598e-19)
(0.904076 1.22096 3.90538e-20)
(0.819012 1.18295 4.62186e-22)
(0.721959 1.14361 -1.13239e-19)
(0.608368 1.10328 1.81117e-20)
(0.487761 1.06883 0)
(0.368058 1.02887 0)
(0.307737 1.26141 -3.63939e-19)
(0.409064 2.87416 1.46819e-19)
(0.490385 3.48293 1.79322e-19)
(0.442205 3.55639 0)
(0.401506 3.62042 2.26157e-20)