/*--------------------------------*- C++ -*----------------------------------*\
  =========                 |
  \\      /  F ield         | OpenFOAM: The Open Source CFD Toolbox
   \\    /   O peration     | Website:  https://openfoam.org
    \\  /    A nd           | Version:  10
     \\/     M anipulation  |
\*---------------------------------------------------------------------------*/
FoamFile
{
    format      ascii;
    class       surfaceScalarField;
    location    "36";
    object      phi;
}
// * * * * * * * * * * * * * * * * * * * * * * * * * * * * * * * * * * * * * //

dimensions      [0 3 -1 0 0 0 0];

internalField   nonuniform List<scalar> 
17370
(
-0.0916071
0.0960067
0.284611
-0.0775902
0.0594137
0.364952
-0.0430355
0.0316161
0.427588
-0.022311
0.0162566
0.505306
-0.0116605
0.00878344
0.602279
-0.00656973
0.00508602
0.720541
-0.00385614
0.00298644
0.863776
-0.00222653
0.00165842
1.03602
-0.00113471
0.00071856
1.24292
-0.000310885
-8.41746e-05
1.49159
0.000469988
-0.00087185
1.49159
0.00127456
-0.00178318
1.2432
0.00233937
-0.00308889
1.03639
0.0039518
-0.00517534
0.86413
0.00665225
-0.0088563
0.721262
0.0117226
-0.0163051
0.603797
0.0223466
-0.0316377
0.50873
0.0430423
-0.0594107
0.432537
0.0775889
-0.0960042
0.365191
0.0916192
0.197392
-0.127087
0.0880168
0.0390698
-0.36435
0.354024
-0.0714798
0.0818062
-0.446655
0.454246
-0.0791697
0.0715788
-0.521009
0.529105
-0.0637301
0.0556336
-0.612986
0.620757
-0.0482468
0.0404763
-0.727159
0.73368
-0.0338629
0.0273424
-0.867579
0.872417
-0.0221441
0.0173056
-1.03856
1.04188
-0.013624
0.0103017
-1.24471
1.24711
-0.00776174
0.00536341
-1.49284
1.49484
-0.00340446
0.00139744
-1.49269
1.4945
0.000414063
-0.00222393
-1.24411
1.24602
0.00419221
-0.00610231
-1.03761
1.0401
0.00844343
-0.0109321
-0.866188
0.869828
0.0142026
-0.0178429
-0.724598
0.729759
0.0226396
-0.0278004
-0.609069
0.615643
0.0342791
-0.0408533
-0.515126
0.522469
0.0485797
-0.0559228
-0.43988
0.447668
0.0639558
-0.0717438
-0.374713
0.37736
0.0792506
-0.0818976
-0.256906
0.224452
0.0715507
-0.0390961
-0.0687991
0.0591842
0.00961489
-0.0521255
0.0589621
-0.374831
0.367994
-0.058119
0.0542814
-0.453939
0.457776
-0.0487972
0.0442398
-0.527606
0.532163
-0.0396904
0.0357953
-0.620787
0.624682
-0.0315858
0.0276002
-0.734646
0.738632
-0.0232618
0.0193954
-0.873945
0.877811
-0.0153721
0.0119305
-1.04335
1.04679
-0.00842419
0.00540166
-1.24863
1.25166
-0.00220443
-0.000768655
-1.49693
1.49991
0.00372109
-0.00686065
-1.49741
1.50055
0.00980346
-0.0132099
-1.25007
1.25348
0.016558
-0.0204827
-1.04566
1.04959
0.0242678
-0.0285244
-0.877148
0.881405
0.0324375
-0.0365671
-0.738997
0.743127
0.0403911
-0.0448693
-0.625988
0.630466
0.0493693
-0.0547985
-0.535031
0.54046
0.0585749
-0.0593452
-0.458092
0.458862
0.0524115
-0.0320422
-0.336789
0.316419
0.00966632
-0.0686792
0.0590129
-0.0533917
0.0492773
0.00411439
-0.0332656
0.0436996
-0.358536
0.348102
-0.0473829
0.046801
-0.45956
0.460142
-0.043876
0.040665
-0.536109
0.53932
-0.0369888
0.0336358
-0.628368
0.631721
-0.0300093
0.0267841
-0.742008
0.745233
-0.023359
0.0201901
-0.881307
0.884476
-0.0166267
0.013297
-1.05021
1.05354
-0.00961941
0.00623209
-1.2549
1.25829
-0.00245866
-0.00114376
-1.50325
1.50685
0.00471855
-0.00841122
-1.50406
1.50775
0.0116893
-0.0152253
-1.25704
1.26058
0.0184178
-0.0218325
-1.05329
1.0567
0.0248778
-0.0281818
-0.885014
0.888318
0.0313024
-0.0348173
-0.746819
0.750334
0.0380692
-0.0416378
-0.634596
0.638165
0.0447571
-0.047582
-0.544612
0.547437
0.0480625
-0.0442399
-0.456992
0.45317
0.0336372
-0.0163516
-0.297126
0.27984
0.00417031
-0.0531712
0.0490008
-0.0461034
0.0435451
0.00255836
-0.0230696
0.0334322
-0.337496
0.327133
-0.0391785
0.0401368
-0.45988
0.458922
-0.0388944
0.0365725
-0.541963
0.544285
-0.033936
0.0313973
-0.63467
0.637208
-0.0284356
0.0256118
-0.748308
0.751132
-0.0224087
0.0194265
-0.88753
0.890513
-0.0161047
0.0129944
-1.0567
1.05981
-0.00946484
0.00609122
-1.26167
1.26504
-0.00220924
-0.0015657
-1.51057
1.51434
0.00530558
-0.00908196
-1.51153
1.51531
0.0123143
-0.0156599
-1.26404
1.26739
0.0185896
-0.021713
-1.05992
1.06304
0.0245256
-0.0275609
-0.891514
0.894549
0.0302424
-0.0330528
-0.753521
0.756331
0.0354545
-0.0379466
-0.641136
0.643628
0.0401471
-0.0412355
-0.549289
0.550378
0.0401209
-0.0341503
-0.448071
0.4421
0.0235442
-0.0103374
-0.264688
0.251481
0.00262758
-0.0457669
0.0431394
-0.0414224
0.0396196
0.00180283
-0.016964
0.0262617
-0.317249
0.307951
-0.0328704
0.0349996
-0.457344
0.455214
-0.0345719
0.0328781
-0.546293
0.547987
-0.0306538
0.0285322
-0.639494
0.641616
-0.0261113
0.023763
-0.753722
0.756071
-0.0209955
0.0182946
-0.893363
0.896064
-0.0151568
0.0121621
-1.06283
1.06582
-0.00873806
0.00545928
-1.26834
1.27162
-0.00165624
-0.00206189
-1.51809
1.5218
0.00573719
-0.00940947
-1.51905
1.52272
0.01251
-0.0156974
-1.27067
1.27386
0.0184558
-0.0213298
-1.06607
1.06895
0.0238026
-0.0263454
-0.897342
0.899885
0.0285089
-0.0307403
-0.758781
0.761013
0.0326924
-0.0347343
-0.645871
0.647913
0.0362556
-0.0364749
-0.55098
0.551199
0.0341081
-0.0271745
-0.435553
0.42862
0.0175532
-0.00742415
-0.239956
0.229827
0.00188729
-0.0409434
0.0390561
-0.038066
0.0367122
0.00135378
-0.0129595
0.0209691
-0.299295
0.291285
-0.0277517
0.0306875
-0.452641
0.449706
-0.0309059
0.0297904
-0.549406
0.550521
-0.0277973
0.0258824
-0.64365
0.645565
-0.0236964
0.021593
-0.758297
0.7604
-0.0191379
0.016719
-0.89859
0.901009
-0.0138508
0.0110419
-1.06869
1.0715
-0.00776536
0.00460103
-1.27481
1.27798
-0.000927613
-0.00264952
-1.52544
1.52901
0.0061721
-0.00968151
-1.52632
1.52983
0.0126239
-0.0156047
-1.27698
1.27996
0.0181173
-0.0206533
-1.07167
1.0742
0.0227855
-0.024954
-0.902198
0.904366
0.0268186
-0.0287624
-0.763067
0.76501
0.0304656
-0.0322425
-0.64981
0.651587
0.0331096
-0.0326009
-0.551065
0.550557
0.0293282
-0.0221039
-0.421485
0.41426
0.0136818
-0.00570544
-0.220876
0.2129
0.00145637
-0.0374132
0.0359568
-0.0355285
0.0344861
0.00104237
-0.0101233
0.0169008
-0.283912
0.277135
-0.0234287
0.0268282
-0.446505
0.443105
-0.0276326
0.0269628
-0.551384
0.552054
-0.0252245
0.0234698
-0.647416
0.649171
-0.0214488
0.0194914
-0.762447
0.764404
-0.0171923
0.0149309
-0.903313
0.905574
-0.0122676
0.0096566
-1.07415
1.07676
-0.00658616
0.00358409
-1.28103
1.28403
-6.58835e-05
-0.0033644
-1.5325
1.53593
0.00672816
-0.0100396
-1.53325
1.53656
0.0127668
-0.0154728
-1.28283
1.28554
0.0177148
-0.019957
-1.07661
1.07885
0.021847
-0.0237756
-0.906405
0.908334
0.0254316
-0.0271532
-0.766805
0.768526
0.0286484
-0.0300961
-0.653216
0.654663
0.0304585
-0.029255
-0.549715
0.548512
0.0253979
-0.018295
-0.407074
0.399971
0.0110035
-0.00455362
-0.205759
0.19931
0.00116652
-0.0346643
0.0334978
-0.0335702
0.0327585
0.000811679
-0.00801348
0.0137071
-0.270924
0.265231
-0.0197519
0.023355
-0.439587
0.435984
-0.024641
0.0242159
-0.552621
0.553046
-0.0227439
0.0210973
-0.650907
0.652554
-0.01918
0.0173291
-0.766324
0.768175
-0.0151585
0.0130231
-0.907721
0.909857
-0.0105037
0.00803584
-1.07923
1.08169
-0.00514084
0.00231056
-1.2869
1.28973
0.00100213
-0.00422946
-1.53925
1.54248
0.00737379
-0.0104346
-1.53976
1.54282
0.0129224
-0.0153594
-1.28813
1.29057
0.0173647
-0.0193618
-1.08099
1.08299
0.0210377
-0.0227505
-0.910139
0.911852
0.0242306
-0.025779
-0.77012
0.771668
0.0271055
-0.0282096
-0.65593
0.657034
0.0282278
-0.0263953
-0.547008
0.545176
0.0221868
-0.0154114
-0.39303
0.386255
0.00908444
-0.00374186
-0.193467
0.188124
0.000962342
-0.032449
0.0314866
-0.0320453
0.0314127
0.000632571
-0.00637553
0.0111338
-0.260029
0.255271
-0.0165799
0.0201908
-0.432368
0.428757
-0.0218254
0.0216579
-0.553368
0.553535
-0.0204612
0.0189136
-0.654192
0.655739
-0.0170873
0.0153065
-0.770007
0.771788
-0.0132061
0.0111359
-0.911895
0.913966
-0.00869781
0.00632112
-1.08404
1.08642
-0.00354918
0.00086185
-1.29244
1.29513
0.00225893
-0.00527602
-1.54556
1.54858
0.00818895
-0.0110012
-1.54576
1.54857
0.0132735
-0.0154936
-1.29294
1.29516
0.0173159
-0.0191209
-1.08492
1.08673
0.0206241
-0.0221414
-0.913458
0.914975
0.0234391
-0.0247938
-0.773088
0.774443
0.0259569
-0.0266605
-0.657919
0.658623
0.0263214
-0.0239708
-0.543114
0.540764
0.0195788
-0.013217
-0.379702
0.37334
0.00768053
-0.00315612
-0.183234
0.17871
0.000815784
-0.0306123
0.0297965
-0.0308612
0.030375
0.000486229
-0.0050435
0.00898481
-0.250945
0.247003
-0.013773
0.0172223
-0.425229
0.42178
-0.0190359
0.0190639
-0.553631
0.553603
-0.0180785
0.01659
-0.657307
0.658796
-0.0148194
0.0130892
-0.773555
0.775285
-0.0110509
0.00904971
-0.915927
0.917928
-0.00670227
0.00442156
-1.08866
1.09094
-0.00176924
-0.000788947
-1.29769
1.30025
0.00374359
-0.0065702
-1.55148
1.5543
0.00927105
-0.0118468
-1.55127
1.55385
0.0138948
-0.0158647
-1.29729
1.29926
0.0174601
-0.0190281
-1.08844
1.09001
0.0203294
-0.0216415
-0.916402
0.917714
0.0227714
-0.0239622
-0.775688
0.776879
0.0249585
-0.0253054
-0.659115
0.659462
0.0246124
-0.0218739
-0.538246
0.535508
0.0174383
-0.0115206
-0.367225
0.361307
0.0066301
-0.00272433
-0.174532
0.170626
0.000708736
-0.0290477
0.028339
-0.029958
0.0295956
0.000362374
-0.0039158
0.00713019
-0.243448
0.240233
-0.0112435
0.0144241
-0.418479
0.415299
-0.0163002
0.016493
-0.55354
0.553348
-0.0156076
0.0142047
-0.660317
0.66172
-0.012453
0.0107386
-0.777014
0.778729
-0.00873117
0.00677275
-0.919806
0.921764
-0.00448796
0.00227968
-1.09308
1.09529
0.000269417
-0.00271743
-1.30268
1.30513
0.00551011
-0.00814373
-1.55699
1.55963
0.0106236
-0.0129504
-1.5563
1.55863
0.014771
-0.0164937
-1.30116
1.30289
0.0178657
-0.0191948
-1.09149
1.09282
0.0202907
-0.0214103
-0.918931
0.920051
0.0223901
-0.0234152
-0.777963
0.778988
0.0241792
-0.0242676
-0.659681
0.65977
0.023215
-0.020156
-0.532643
0.529584
0.0157373
-0.0102312
-0.355625
0.350119
0.00585578
-0.00241499
-0.166987
0.163546
0.000635302
-0.0276819
0.0270466
-0.0292966
0.0290464
0.000250257
-0.00290583
0.00544633
-0.237378
0.234838
-0.00886526
0.0116821
-0.412322
0.409505
-0.0135141
0.0138305
-0.553151
0.552834
-0.0130531
0.0117614
-0.663147
0.664438
-0.0100481
0.00833217
-0.780431
0.782147
-0.0063025
0.00432543
-0.923611
0.925588
-0.00204102
-0.000135989
-1.09737
1.09955
0.00262833
-0.00498031
-1.30746
1.30981
0.00762798
-0.0100903
-1.56213
1.56459
0.012363
-0.0144417
-1.56083
1.56291
0.0160296
-0.0175048
-1.30453
1.30601
0.018671
-0.0197906
-1.09408
1.0952
0.0207016
-0.0216125
-0.921086
0.921997
0.0223931
-0.0231803
-0.779894
0.780681
0.0236494
-0.0234587
-0.659681
0.65949
0.022049
-0.0187232
-0.526428
0.523102
0.0143663
-0.0092363
-0.34484
0.33971
0.00527638
-0.00219014
-0.16032
0.157234
0.000583996
-0.0264544
0.0258704
-0.028858
0.0287162
0.0001418
-0.00195205
0.00384783
-0.232642
0.230746
-0.00655313
0.00891363
-0.406953
0.404593
-0.0105578
0.0108849
-0.552586
0.552259
-0.0101527
0.00891201
-0.665789
0.66703
-0.00719714
0.00545708
-0.783843
0.785583
-0.00340639
0.00142773
-0.92743
0.929409
0.000835584
-0.00298027
-1.1016
1.10374
0.00540679
-0.00767717
-1.31204
1.31431
0.0101963
-0.0124869
-1.56692
1.56921
0.0145441
-0.0163622
-1.56486
1.56668
0.0176941
-0.0188795
-1.3074
1.30859
0.0197695
-0.02059
-1.09625
1.09707
0.0212491
-0.0219111
-0.922833
0.923495
0.0224892
-0.0230982
-0.781328
0.781937
0.0232778
-0.0228003
-0.659074
0.658596
0.0210586
-0.0175345
-0.519715
0.516191
0.0132729
-0.00847674
-0.334797
0.330001
0.0048503
-0.00203305
-0.154322
0.151505
0.000551396
-0.0253219
0.0247705
-0.0286344
0.0286057
2.87059e-05
-0.00100025
0.00225502
-0.229193
0.227938
-0.00421982
0.00605755
-0.402541
0.400703
-0.00741248
0.00766237
-0.552081
0.551831
-0.00691338
0.00567282
-0.668387
0.669628
-0.00392955
0.00216632
-0.787282
0.789045
-0.000100129
-0.00188597
-0.93122
0.933206
0.00415618
-0.00630146
-1.10575
1.10789
0.00870981
-0.0109243
-1.31645
1.31866
0.0133178
-0.0154202
-1.57135
1.57345
0.0172397
-0.0187883
-1.56835
1.5699
0.019862
-0.0207491
-1.30967
1.31056
0.0213731
-0.0219051
-1.09779
1.09832
0.022297
-0.0226732
-0.924065
0.924441
0.0230054
-0.0233689
-0.782414
0.782777
0.023236
-0.0224384
-0.657816
0.657018
0.0203863
-0.0166691
-0.512656
0.508939
0.0124766
-0.00794401
-0.325408
0.320875
0.00456948
-0.00194131
-0.148832
0.146204
0.000537189
-0.0242514
0.0237143
-0.0286327
0.0287172
-8.44719e-05
3.53373e-06
0.000605138
-0.227029
0.226421
-0.00180141
0.00305289
-0.399203
0.397952
-0.00404936
0.00420248
-0.551771
0.551618
-0.00346958
0.0022533
-0.670997
0.672213
-0.000485427
-0.00135051
-0.790763
0.792599
0.00352628
-0.00561454
-0.935055
0.937144
0.00797882
-0.0101778
-1.10992
1.11211
0.0125996
-0.0147844
-1.32076
1.32294
0.0170915
-0.0190485
-1.57541
1.57737
0.0206603
-0.021927
-1.57129
1.57255
0.0227101
-0.0232662
-1.31136
1.31192
0.0235868
-0.0238067
-1.09876
1.09898
0.0239212
-0.0240073
-0.924711
0.924797
0.0240946
-0.0240863
-0.782863
0.782855
0.023682
-0.0224419
-0.655877
0.654637
0.0199967
-0.0160607
-0.505226
0.50129
0.0119216
-0.00759876
-0.316536
0.312213
0.00440802
-0.00190279
-0.143695
0.14119
0.000538209
-0.0232044
0.0226662
-0.02887
0.0290941
-0.000224111
0.00100003
-0.00110377
-0.226192
0.226296
0.00075169
-0.000185822
-0.397088
0.396522
-0.000303842
0.0002105
-0.55176
0.551853
0.000638602
-0.00192712
-0.673608
0.674896
0.00377418
-0.00571226
-0.794384
0.796322
0.00800894
-0.0101985
-0.939091
0.94128
0.0126568
-0.014918
-1.11419
1.11645
0.0173708
-0.019532
-1.325
1.32716
0.0217419
-0.0235288
-1.57916
1.58095
0.0248771
-0.0258109
-1.57363
1.57456
0.0262621
-0.0264387
-1.31236
1.31253
0.0264196
-0.0262664
-1.09907
1.09892
0.0260555
-0.0257943
-0.924747
0.924486
0.0255465
-0.0251795
-0.782512
0.782145
0.0244089
-0.0226336
-0.653081
0.651305
0.0198559
-0.0157523
-0.49744
0.493336
0.0116421
-0.00744946
-0.308074
0.303881
0.00436392
-0.00191325
-0.138781
0.136331
0.000551635
-0.0221531
0.0216014
-0.0293855
0.0297516
-0.000366178
0.00214943
-0.00294867
-0.226724
0.227523
0.00349152
-0.0036993
-0.396376
0.396584
0.00384472
-0.0042922
-0.552395
0.552842
0.00532906
-0.0067819
-0.676433
0.677886
0.00879054
-0.0108616
-0.798186
0.800257
0.0132887
-0.0155861
-0.94329
0.945588
0.0181568
-0.020509
-1.11857
1.12092
0.0230375
-0.0252267
-1.3292
1.33139
0.0273913
-0.0290364
-1.58258
1.58423
0.030154
-0.0307513
-1.57529
1.57589
0.0308743
-0.0306332
-1.31256
1.31232
0.0302011
-0.0295973
-1.09856
1.09795
0.0289831
-0.0283117
-0.924001
0.92333
0.0277154
-0.0269355
-0.781366
0.780586
0.0257311
-0.0234509
-0.649355
0.647074
0.0202874
-0.0159175
-0.489325
0.484955
0.0117318
-0.0075501
-0.299842
0.29566
0.00446656
-0.00198234
-0.133949
0.131464
0.000578553
-0.0210726
0.020494
-0.0302017
0.0307493
-0.000547595
0.00340238
-0.00497737
-0.228732
0.230307
0.00643745
-0.00744961
-0.397173
0.398186
0.00831318
-0.00917482
-0.553831
0.554693
0.0104541
-0.0120902
-0.67963
0.681266
0.0143125
-0.0166033
-0.80227
0.804561
0.0192929
-0.0218362
-0.947739
0.950283
0.0246682
-0.0272332
-1.12316
1.12573
0.029936
-0.0322055
-1.33347
1.33574
0.034337
-0.0358165
-1.58569
1.58717
0.0366586
-0.0368732
-1.57625
1.57646
0.036606
-0.0359361
-1.31188
1.31121
0.0350937
-0.0340381
-1.0971
1.09605
0.0330182
-0.0318911
-0.922366
0.921239
0.0309219
-0.0296165
-0.77932
0.778015
0.0279069
-0.0250268
-0.644668
0.641788
0.02139
-0.0166758
-0.480672
0.475958
0.0123187
-0.00800121
-0.291593
0.287276
0.00477789
-0.00213554
-0.129006
0.126363
0.000625075
-0.0199335
0.0193085
-0.031384
0.0321487
-0.000764708
0.00483358
-0.00724576
-0.2323
0.234712
0.00971899
-0.0116157
-0.399627
0.401524
0.0133005
-0.0146893
-0.556204
0.557592
0.0163194
-0.0182159
-0.683254
0.685151
0.02076
-0.0233887
-0.806817
0.809446
0.0264842
-0.0293999
-0.952721
0.955636
0.0326086
-0.0354581
-1.12821
1.13105
0.0383848
-0.0407548
-1.3379
1.34027
0.0428679
-0.0441872
-1.58846
1.58978
0.0447271
-0.0445136
-1.57641
1.5762
0.0437969
-0.0426406
-1.31027
1.30911
0.0413519
-0.0398071
-1.09468
1.09314
0.0383495
-0.0367557
-0.91975
0.918156
0.0353325
-0.0334074
-0.776198
0.774273
0.0311081
-0.0275864
-0.638812
0.63529
0.023452
-0.0183058
-0.471356
0.466209
0.0136127
-0.00892921
-0.283004
0.278321
0.00536819
-0.00240355
-0.123686
0.120722
0.00070039
-0.0186956
0.0179952
-0.0329932
0.0340266
-0.00103337
0.00652729
-0.00988679
-0.237535
0.240894
0.01349
-0.0163908
-0.403976
0.406877
0.0190389
-0.0211499
-0.559824
0.561935
0.0233956
-0.0257812
-0.68755
0.689935
0.0288594
-0.0319773
-0.812073
0.81519
0.0355879
-0.038934
-0.958452
0.961798
0.042551
-0.0456989
-1.1338
1.13694
0.0488475
-0.0513029
-1.34249
1.34495
0.0533484
-0.054423
-1.59086
1.59193
0.0545644
-0.0538208
-1.57565
1.57491
0.0525685
-0.0507943
-1.30758
1.30581
0.0489786
-0.0468959
-1.0912
1.08912
0.0449727
-0.0428893
-0.916112
0.914029
0.0409698
-0.0384539
-0.77186
0.769344
0.0355856
-0.0314201
-0.63175
0.627585
0.0266982
-0.0209192
-0.461165
0.455386
0.015648
-0.0103269
-0.273593
0.268272
0.00622348
-0.00278059
-0.117661
0.114218
0.000804827
-0.0172976
0.0164927
-0.0351263
0.0365238
-0.00139753
0.00874092
-0.013261
-0.244639
0.249159
0.0181622
-0.0221623
-0.410454
0.414454
0.0258714
-0.0288349
-0.565144
0.568108
0.0319076
-0.0350042
-0.693018
0.696115
0.038835
-0.0425827
-0.818324
0.822072
0.0468077
-0.0506515
-0.965036
0.96888
0.0547409
-0.0582388
-1.13998
1.14347
0.0616538
-0.0642103
-1.34723
1.34978
0.0661621
-0.0669412
-1.59271
1.59349
0.0666103
-0.0652512
-1.57377
1.57241
0.0633827
-0.0609074
-1.30361
1.30113
0.0584458
-0.0556863
-1.08651
1.08375
0.0532179
-0.050629
-0.911404
0.908815
0.0482243
-0.0451576
-0.766347
0.763281
0.0416664
-0.0367065
-0.623404
0.618444
0.0311776
-0.0244791
-0.449672
0.442974
0.0183584
-0.0121303
-0.262835
0.256607
0.00729876
-0.00324621
-0.110638
0.106586
0.00093321
-0.0156874
0.0147542
-0.0379626
0.0398913
-0.00192866
0.0118584
-0.0179001
-0.254018
0.260059
0.0243791
-0.029643
-0.419378
0.424642
0.0344992
-0.0383766
-0.572455
0.576333
0.042363
-0.0462974
-0.700038
0.703973
0.0510225
-0.0555398
-0.825833
0.83035
0.0605528
-0.0650432
-0.972651
0.977142
0.0697433
-0.0736717
-1.14687
1.1508
0.0773845
-0.0800186
-1.35214
1.35478
0.0818135
-0.0822052
-1.59391
1.5943
0.0813106
-0.0792229
-1.57059
1.5685
0.0766442
-0.0733704
-1.29817
1.29489
0.0701902
-0.0666977
-1.08039
1.0769
0.0636181
-0.0603904
-0.905489
0.902262
0.0573574
-0.0535892
-0.759672
0.755904
0.0492862
-0.0432767
-0.613389
0.60738
0.0367001
-0.0288035
-0.436322
0.428425
0.0215702
-0.0141912
-0.250225
0.242846
0.00848869
-0.00374683
-0.102388
0.0976456
0.0010681
-0.0138242
0.0127561
-0.041818
0.0445793
-0.00276129
0.0165311
-0.0246493
-0.266368
0.274486
0.0331383
-0.0399564
-0.431359
0.438177
0.0461917
-0.0511372
-0.582036
0.586981
0.0562347
-0.0612436
-0.708812
0.713821
0.0670447
-0.0724774
-0.834899
0.840332
0.0784021
-0.0836081
-0.981581
0.986787
0.0889139
-0.0931918
-1.15459
1.15886
0.0970243
-0.0995187
-1.3571
1.3596
0.100879
-0.100617
-1.59419
1.59393
0.0989017
-0.0958749
-1.56584
1.56281
0.0924588
-0.0883029
-1.29106
1.28691
0.0843449
-0.0800132
-1.07268
1.06835
0.0761873
-0.0721815
-0.898112
0.894106
0.0683481
-0.0636325
-0.751401
0.746686
0.0582979
-0.0510467
-0.601164
0.593913
0.0432192
-0.0338225
-0.420583
0.411186
0.0251827
-0.0164162
-0.235326
0.226559
0.00972566
-0.00424493
-0.0927874
0.0873067
0.00119499
-0.0117068
0.0105118
-0.0472687
0.0514686
-0.00419988
0.0239684
-0.0349887
-0.282888
0.293908
0.046171
-0.0551473
-0.447476
0.456453
0.0631941
-0.0695375
-0.594383
0.600727
0.0761701
-0.0825417
-0.719749
0.726121
0.0896136
-0.0959656
-0.845762
0.852114
0.102675
-0.108372
-0.99184
0.997537
0.11393
-0.118156
-1.1628
1.16703
0.121615
-0.123486
-1.36153
1.3634
0.123856
-0.122421
-1.5929
1.59146
0.119391
-0.114976
-1.55897
1.55456
0.110388
-0.1051
-1.28207
1.27678
0.100252
-0.0950668
-1.06326
1.05808
0.090522
-0.0856779
-0.888929
0.884085
0.0810378
-0.0753162
-0.741036
0.735314
0.0688827
-0.0601774
-0.586354
0.577648
0.0507741
-0.0394586
-0.401788
0.390473
0.0291045
-0.0187472
-0.217748
0.20739
0.0109681
-0.00471365
-0.0817898
0.0755354
0.00130214
-0.00936073
0.00805859
-0.0554029
0.062666
-0.00726317
0.037319
-0.052671
-0.305793
0.321145
0.0676382
-0.0794294
-0.469296
0.481087
0.0894354
-0.0973579
-0.610202
0.618124
0.105773
-0.113493
-0.733231
0.74095
0.121578
-0.12846
-0.858257
0.865139
0.135371
-0.140917
-1.00279
1.00834
0.145974
-0.149444
-1.17055
1.17402
0.151792
-0.152369
-1.36434
1.36492
0.151093
-0.147924
-1.58891
1.58574
0.143135
-0.136959
-1.54907
1.54289
0.13089
-0.124144
-1.27058
1.26383
0.118131
-0.111898
-1.05198
1.04575
0.106588
-0.101062
-0.878008
0.872482
0.0958332
-0.0892043
-0.728481
0.721852
0.08145
-0.0707134
-0.568392
0.557656
0.0591131
-0.0454677
-0.378972
0.365327
0.0332452
-0.0212041
-0.19722
0.185179
0.0122431
-0.00516129
-0.0694454
0.0623636
0.00138358
-0.00684043
0.00545684
-0.0695041
0.0734487
-0.00394458
0.0280208
-0.0412309
-0.339048
0.352258
0.0544974
-0.0650952
-0.498009
0.508607
0.0747276
-0.0840844
-0.629554
0.63891
0.0947148
-0.104092
-0.748523
0.7579
0.114494
-0.123716
-0.871229
0.88045
0.133374
-0.141758
-1.0129
1.02129
0.150223
-0.157162
-1.17631
1.18325
0.163569
-0.168077
-1.36423
1.36874
0.1711
-0.171663
-1.58125
1.58181
0.169651
-0.165498
-1.53551
1.53136
0.160308
-0.153642
-1.25609
1.24942
0.147291
-0.1399
-1.03845
1.03106
0.133621
-0.126972
-0.865514
0.858865
0.120417
-0.111274
-0.713584
0.704442
0.0993489
-0.0835669
-0.545758
0.529976
0.0676208
-0.0497556
-0.351283
0.333417
0.0347856
-0.0209558
-0.173552
0.159723
0.0113667
-0.00445129
-0.0559833
0.0490679
0.00107085
-0.00426043
0.00318958
-0.08047
0.0784302
0.00203979
0.00608307
-0.0144293
-0.368297
0.376643
0.024342
-0.0319521
-0.523848
0.531458
0.0398773
-0.0480213
-0.65056
0.658704
0.0577856
-0.0666988
-0.767113
0.776026
0.076093
-0.0845931
-0.889152
0.897652
0.0934607
-0.100859
-1.02936
1.03676
0.108566
-0.114588
-1.19002
1.19604
0.12018
-0.123937
-1.37301
1.37677
0.126043
-0.12602
-1.5817
1.58168
0.123595
-0.11917
-1.52668
1.52225
0.113581
-0.106442
-1.24248
1.23534
0.0994162
-0.0911355
-1.02299
1.01471
0.0830237
-0.0733662
-0.848971
0.839314
0.0638993
-0.0531733
-0.689753
0.679027
0.0428779
-0.0312323
-0.511455
0.49981
0.0214142
-0.012823
-0.315092
0.306501
0.00724824
-0.00327026
-0.146482
0.142504
0.00120487
-0.000223749
-0.0426982
0.0417171
-2.24627e-05
-0.00206107
0.00208353
-0.0814758
0.0785027
0.00297306
-0.00291492
-0.00151789
-0.387667
0.3921
0.00797113
-0.0135879
-0.542927
0.548544
0.0196843
-0.0266009
-0.668567
0.675484
0.0349332
-0.0425961
-0.784132
0.791795
0.050929
-0.058339
-0.90542
0.91283
0.0658817
-0.0725947
-1.04401
1.05072
0.0794621
-0.0850091
-1.20173
1.20728
0.0898516
-0.0930423
-1.38006
1.38325
0.0950064
-0.0948058
-1.58126
1.58106
0.0923114
-0.087889
-1.51753
1.51311
0.0823446
-0.0752973
-1.22821
1.22116
0.0677259
-0.0586977
-1.00556
0.996534
0.0495191
-0.0385908
-0.827866
0.816938
0.0285222
-0.0180412
-0.66439
0.653909
0.00949162
-0.00148319
-0.486098
0.47809
-0.00336577
0.00580713
-0.296512
0.29407
-0.0061053
0.00506875
-0.136994
0.138031
-0.00352929
0.0017726
-0.0401395
0.0418962
-0.00056533
-0.0018475
0.00241283
-0.0799664
0.0771331
0.00283336
-0.00628278
0.0044484
-0.400076
0.40191
-0.000690005
-0.00342647
-0.557067
0.561184
0.00854681
-0.0142141
-0.683179
0.688846
0.0211843
-0.0276837
-0.79891
0.805409
0.0347799
-0.0411627
-0.919736
0.926119
0.048112
-0.0539684
-1.05707
1.06293
0.0602191
-0.064897
-1.21255
1.21722
0.0693735
-0.072335
-1.3864
1.38936
0.0739834
-0.0733676
-1.58062
1.58
0.0708568
-0.066397
-1.50822
1.50376
0.0607456
-0.0531966
-1.21373
1.20618
0.0454915
-0.0363231
-0.986782
0.977614
0.0270328
-0.0166777
-0.805068
0.794713
0.00722368
0.00168376
-0.640909
0.632001
-0.00804287
0.0127869
-0.46849
0.463746
-0.0145007
0.0137261
-0.288502
0.289276
-0.0116096
0.00842466
-0.137281
0.140466
-0.00551262
0.00260095
-0.0427438
0.0456555
-0.000785254
-0.00262416
0.00340941
-0.0782718
0.075821
0.00245077
-0.00709475
0.00675377
-0.408067
0.408408
-0.00411437
0.00129667
-0.568183
0.571001
0.00269323
-0.00767519
-0.6951
0.700082
0.0133599
-0.0189831
-0.811252
0.816875
0.0251052
-0.030698
-0.932102
0.937695
0.0367891
-0.04217
-1.06873
1.07411
0.0476955
-0.0522157
-1.22188
1.2264
0.0563085
-0.0589775
-1.39208
1.39475
0.0603489
-0.059502
-1.57924
1.5784
0.0567999
-0.0519957
-1.49854
1.49374
0.0462867
-0.0389338
-1.19846
1.19111
0.0314415
-0.0226008
-0.968004
0.959163
0.0141873
-0.00501152
-0.783874
0.774698
-0.0028284
0.00998196
-0.62159
0.614436
-0.0145769
0.0175741
-0.456669
0.453671
-0.0182514
0.0163685
-0.286121
0.288004
-0.0132669
0.00952295
-0.141665
0.145409
-0.00615093
0.00284978
-0.0475525
0.0508537
-0.000863833
-0.00385913
0.00472297
-0.0767963
0.0747436
0.00205265
-0.00666589
0.00669693
-0.413366
0.413335
-0.00537287
0.00314319
-0.576443
0.578673
0.000609547
-0.00475202
-0.704878
0.709021
0.00952695
-0.0143409
-0.821736
0.82655
0.0197757
-0.0248283
-0.942993
0.948046
0.0305127
-0.0353683
-1.07929
1.08414
0.040508
-0.0447278
-1.23071
1.23493
0.0484831
-0.0508835
-1.3972
1.3996
0.0519796
-0.0512969
-1.57742
1.57674
0.0484541
-0.0438191
-1.48842
1.48379
0.0382809
-0.0313172
-1.18358
1.17661
0.0246292
-0.0165963
-0.950338
0.942305
0.00923193
-0.0015501
-0.765489
0.757808
-0.00492673
0.0107637
-0.606079
0.600242
-0.0145597
0.0170035
-0.448316
0.445872
-0.0171668
0.0153024
-0.286179
0.288044
-0.0124961
0.00890231
-0.147129
0.150723
-0.00568584
0.00266114
-0.0528067
0.0558314
-0.000817834
-0.00518047
0.0059983
-0.0757572
0.0741978
0.00155941
-0.00550724
0.00572429
-0.417273
0.417056
-0.00467322
0.00307773
-0.583568
0.585164
0.000411567
-0.00408498
-0.713133
0.716806
0.00856614
-0.0126712
-0.830999
0.835104
0.017458
-0.0219907
-0.953116
0.957649
0.027458
-0.0319613
-1.08908
1.09358
0.0366429
-0.040703
-1.23901
1.24307
0.0446131
-0.046838
-1.40202
1.40425
0.0479319
-0.0471498
-1.57563
1.57485
0.0446943
-0.040072
-1.47892
1.4743
0.0350835
-0.028884
-1.16959
1.16339
0.0228064
-0.0159645
-0.934533
0.927691
0.00961795
-0.00297134
-0.750014
0.743367
-0.00222958
0.00716821
-0.593375
0.588436
-0.0104601
0.0123776
-0.441131
0.439214
-0.0127797
0.0116657
-0.286687
0.287801
-0.00951256
0.00672725
-0.151979
0.154765
-0.00428255
0.00202073
-0.0572892
0.0595511
-0.0006367
-0.00632645
0.00696316
-0.0752959
0.0741038
0.00119217
-0.00422492
0.00442186
-0.420451
0.420254
-0.00331932
0.00171158
-0.58975
0.591358
0.00153292
-0.00475288
-0.720468
0.723688
0.00855271
-0.0125212
-0.839193
0.843162
0.0169636
-0.0216569
-0.962035
0.966728
0.0264335
-0.030771
-1.09821
1.10255
0.0355803
-0.0393851
-1.24703
1.25084
0.0427894
-0.0453725
-1.40637
1.40896
0.0465846
-0.0460432
-1.57409
1.57355
0.0437639
-0.0398056
-1.46987
1.46591
0.0353074
-0.0297262
-1.15698
1.1514
0.024399
-0.0183792
-0.920899
0.914879
0.0128787
-0.0072735
-0.736831
0.731225
0.00245392
0.0019228
-0.582568
0.578192
-0.00482943
0.00683222
-0.435024
0.433021
-0.00745105
0.00683805
-0.286276
0.286889
-0.00561123
0.00390537
-0.155095
0.156801
-0.00247162
0.00118428
-0.0602405
0.0615278
-0.00039849
-0.00710725
0.00750574
-0.07541
0.0744363
0.000973755
-0.00281452
0.00266804
-0.423484
0.423631
-0.00164703
2.07578e-05
-0.595558
0.597184
0.00308512
-0.00625532
-0.727263
0.730433
0.00993221
-0.0135357
-0.846961
0.850564
0.0181183
-0.0220508
-0.97089
0.974823
0.0267974
-0.0309444
-1.10705
1.1112
0.0356126
-0.039571
-1.25463
1.25859
0.043202
-0.0455178
-1.41129
1.41361
0.0470137
-0.046843
-1.57291
1.57274
0.0452052
-0.041624
-1.46185
1.45827
0.037675
-0.0326808
-1.14598
1.14099
0.0279589
-0.0225364
-0.908755
0.903332
0.0177446
-0.0126635
-0.725418
0.720337
0.00836633
-0.00429293
-0.573078
0.569005
0.00131376
0.000730865
-0.429008
0.426964
-0.00175599
0.00186718
-0.284738
0.284626
-0.00169839
0.00121302
-0.156146
0.156632
-0.000801237
0.000459188
-0.0613549
0.0616969
-0.000185644
-0.00744899
0.00763464
-0.0758359
0.0751766
0.000659269
-0.00160129
0.00101782
-0.426822
0.427405
-0.000134574
-0.00195039
-0.600642
0.602727
0.00474963
-0.00785449
-0.733675
0.736779
0.011428
-0.0152048
-0.854085
0.857862
0.0192145
-0.0233147
-0.97899
0.98309
0.0280156
-0.0319358
-1.11578
1.1197
0.036654
-0.0405225
-1.26234
1.26621
0.0441578
-0.046948
-1.41631
1.4191
0.0488853
-0.0489791
-1.57259
1.57269
0.0476013
-0.044768
-1.45486
1.45202
0.0414178
-0.0368843
-1.1359
1.13137
0.0325293
-0.0277917
-0.89789
0.893152
0.0230959
-0.0185853
-0.715008
0.710497
0.014612
-0.0106611
-0.564495
0.560544
0.0077926
-0.00534163
-0.422922
0.420471
0.00384426
-0.00274675
-0.281944
0.280847
0.001966
-0.00119016
-0.155017
0.154241
0.000530628
-6.46038e-05
-0.0607225
0.0602565
-6.73194e-05
-0.00731753
0.00738485
-0.0766809
0.0761786
0.000502322
-0.000613737
0.000115747
-0.430528
0.431026
0.0016105
-0.00353835
-0.606156
0.608084
0.00655863
-0.00961728
-0.739737
0.742796
0.0131131
-0.0165488
-0.86137
0.864806
0.020715
-0.0245157
-0.987223
0.991024
0.0291569
-0.033482
-1.12407
1.12839
0.0378068
-0.0419584
-1.27012
1.27427
0.0459615
-0.0488055
-1.42178
1.42462
0.0510827
-0.0519394
-1.57299
1.57385
0.0510102
-0.0488188
-1.44906
1.44687
0.0457105
-0.0416764
-1.12686
1.12283
0.0377735
-0.0332627
-0.88803
0.883519
0.028993
-0.0246545
-0.705466
0.701128
0.0208339
-0.0168495
-0.55605
0.552065
0.0137175
-0.0109174
-0.416467
0.413666
0.00866009
-0.00667724
-0.277469
0.275486
0.00493329
-0.00313032
-0.15171
0.149907
0.00170175
-0.000593298
-0.0585825
0.0574741
9.17678e-05
-0.00688433
0.00679256
-0.0777919
0.0774733
0.000318636
0.000467755
-0.00128144
-0.434386
0.435199
0.00283623
-0.005119
-0.611371
0.613653
0.0081432
-0.0111174
-0.745724
0.748699
0.0147618
-0.0180992
-0.868273
0.87161
0.0221456
-0.0260772
-0.995323
0.999254
0.0306139
-0.0348829
-1.13258
1.13684
0.0393919
-0.0435334
-1.27833
1.28248
0.0476817
-0.0512343
-1.42774
1.4313
0.0539284
-0.0550696
-1.57463
1.57578
0.0548273
-0.0529654
-1.44457
1.4427
0.0504159
-0.0469129
-1.11872
1.11521
0.0430853
-0.0388089
-0.878718
0.874442
0.0347299
-0.0303723
-0.696376
0.692019
0.0266629
-0.0225516
-0.547815
0.543704
0.0192211
-0.0158123
-0.409383
0.405974
0.0130035
-0.0101475
-0.271377
0.268521
0.00745099
-0.00477428
-0.14649
0.143813
0.0026878
-0.0010307
-0.0552656
0.0536085
0.00021157
-0.00620778
0.00599621
-0.0791207
0.0789263
0.000194357
0.00132703
-0.0022543