/*--------------------------------*- C++ -*----------------------------------*\
  =========                 |
  \\      /  F ield         | OpenFOAM: The Open Source CFD Toolbox
   \\    /   O peration     | Website:  https://openfoam.org
    \\  /    A nd           | Version:  10
     \\/     M anipulation  |
\*---------------------------------------------------------------------------*/
FoamFile
{
    format      ascii;
    class       volVectorField;
    location    "36";
    object      U;
}
// * * * * * * * * * * * * * * * * * * * * * * * * * * * * * * * * * * * * * //

dimensions      [0 1 -1 0 0 0 0];

internalField   nonuniform List<vector> 
8800
(
(0.980154 -0.0915212 0)
(1.00234 -0.0587231 0)
(0.999606 -0.0321242 0)
(0.999996 -0.0165149 0)
(1.00005 -0.00882888 0)
(1.00004 -0.00507936 0)
(1.00001 -0.00298725 0)
(0.999985 -0.00169796 0)
(0.999973 -0.000809271 0)
(1.00006 -0.000118371 0)
(0.999978 0.000582479 0)
(0.999997 0.00133568 0)
(1.00001 0.0023709 0)
(1.00002 0.00398279 0)
(1.00003 0.00673194 0)
(1 0.0120377 0)
(0.999829 0.0230902 0)
(0.99905 0.0431567 0)
(1.00723 0.079028 0)
(0.775024 0.0478396 0)
(0.358975 -0.0147491 0)
(1.04649 -0.0724943 0)
(1.08848 -0.0660319 0)
(1.04946 -0.0509255 0)
(1.02554 -0.0377057 0)
(1.01269 -0.0258974 0)
(1.00652 -0.0167121 0)
(1.00358 -0.0102519 0)
(1.00215 -0.00564055 0)
(1.00149 -0.00205756 0)
(1.00136 0.0011359 0)
(1.00173 0.00443589 0)
(1.00271 0.00833215 0)
(1.00473 0.0136632 0)
(1.00896 0.0213565 0)
(1.01795 0.0318556 0)
(1.03581 0.0446377 0)
(1.06744 0.0580905 0)
(1.09472 0.0699623 0)
(0.845666 0.0555026 0)
(0.217756 -0.00138175 0)
(1.07566 -0.0506697 0)
(1.09941 -0.0489576 0)
(1.06438 -0.0400458 0)
(1.03985 -0.0325868 0)
(1.02373 -0.0253766 0)
(1.01397 -0.0181867 0)
(1.00847 -0.0115995 0)
(1.00562 -0.00586416 0)
(1.00447 -0.000590233 0)
(1.00479 0.00450536 0)
(1.00665 0.00978464 0)
(1.01057 0.0157705 0)
(1.01788 0.0225553 0)
(1.0305 0.0296807 0)
(1.05049 0.0367776 0)
(1.08007 0.0445621 0)
(1.1057 0.051898 0)
(0.943352 0.0409919 0)
(0.217251 0.00140283 0)
(0.176596 -0.000629263 0)
(1.01935 -0.035482 0)
(1.1057 -0.0414381 0)
(1.07795 -0.0364258 0)
(1.05238 -0.0303797 0)
(1.03513 -0.0245121 0)
(1.0233 -0.0187604 0)
(1.0155 -0.0128083 0)
(1.01091 -0.00674552 0)
(1.0089 -0.000535451 0)
(1.00944 0.00560208 0)
(1.01253 0.0115059 0)
(1.01848 0.0172862 0)
(1.02807 0.0228894 0)
(1.04229 0.0284673 0)
(1.06311 0.0342674 0)
(1.09391 0.0401691 0)
(1.09452 0.041716 0)
(0.830396 0.0227482 0)
(0.175733 0.000646029 0)
(0.154668 -0.000462982 0)
(0.958074 -0.0257093 0)
(1.10436 -0.0351517 0)
(1.08803 -0.0327148 0)
(1.06115 -0.028216 0)
(1.04309 -0.0232767 0)
(1.03073 -0.0180293 0)
(1.02216 -0.0125317 0)
(1.01662 -0.00666349 0)
(1.01399 -0.000253702 0)
(1.01467 0.00617486 0)
(1.01848 0.0120334 0)
(1.02526 0.0173736 0)
(1.03539 0.0224215 0)
(1.05017 0.0272824 0)
(1.07211 0.0317415 0)
(1.10111 0.0356333 0)
(1.06989 0.0338725 0)
(0.742913 0.0144103 0)
(0.153379 0.000481927 0)
(0.139965 -0.00033489 0)
(0.900999 -0.0193425 0)
(1.09671 -0.0302563 0)
(1.09611 -0.0293897 0)
(1.0688 -0.0256152 0)
(1.04996 -0.0215592 0)
(1.03703 -0.0169372 0)
(1.02806 -0.0117618 0)
(1.02214 -0.00610624 0)
(1.0192 0.000192406 0)
(1.01986 0.00653086 0)
(1.0239 0.0121588 0)
(1.03094 0.017142 0)
(1.04146 0.021638 0)
(1.05686 0.0256294 0)
(1.07966 0.0291834 0)
(1.10348 0.0319276 0)
(1.03829 0.0279839 0)
(0.676363 0.0102463 0)
(0.138155 0.000357401 0)
(0.12921 -0.000253631 0)
(0.851055 -0.0149404 0)
(1.0843 -0.0261578 0)
(1.10175 -0.0265237 0)
(1.07557 -0.0232193 0)
(1.05619 -0.0196122 0)
(1.04282 -0.0155062 0)
(1.03349 -0.0107266 0)
(1.02731 -0.00531357 0)
(1.02416 0.000760136 0)
(1.02474 0.00684139 0)
(1.02881 0.0121721 0)
(1.03601 0.0167419 0)
(1.04684 0.0206556 0)
(1.06266 0.0240509 0)
(1.08593 0.0271369 0)
(1.10284 0.0289952 0)
(1.00391 0.0233788 0)
(0.624692 0.00782121 0)
(0.126764 0.000280921 0)
(0.121013 -0.000194846 0)
(0.808511 -0.0117432 0)
(1.06888 -0.0225451 0)
(1.10515 -0.0238908 0)
(1.0817 -0.0210712 0)
(1.06187 -0.0177167 0)
(1.04825 -0.0139074 0)
(1.03866 -0.00947232 0)
(1.0322 -0.00437268 0)
(1.02883 0.00144107 0)
(1.02929 0.00724248 0)
(1.03336 0.0122012 0)
(1.04067 0.0163001 0)
(1.05161 0.0197379 0)
(1.06768 0.0227447 0)
(1.09133 0.0255142 0)
(1.09937 0.0264766 0)
(0.96929 0.0197128 0)
(0.583458 0.0062228 0)
(0.117796 0.000227809 0)
(0.114663 -0.000150377 0)
(0.772669 -0.00934029 0)
(1.05194 -0.0193515 0)
(1.10738 -0.02143 0)
(1.08743 -0.0189797 0)
(1.06717 -0.0157974 0)
(1.05328 -0.0121979 0)
(1.04351 -0.00802243 0)
(1.03685 -0.00321371 0)
(1.03325 0.00227893 0)
(1.03353 0.00770683 0)
(1.03752 0.0122425 0)
(1.04479 0.0158963 0)
(1.05578 0.0189431 0)
(1.07213 0.0216311 0)
(1.09556 0.0241037 0)
(1.09324 0.0243083 0)
(0.935842 0.0168207 0)
(0.5497 0.00510606 0)
(0.110507 0.000190391 0)
(0.109713 -0.000115175 0)
(0.742635 -0.0074624 0)
(1.0345 -0.0164917 0)
(1.1086 -0.0191245 0)
(1.09282 -0.0170514 0)
(1.07225 -0.0140226 0)
(1.05808 -0.0105331 0)
(1.04814 -0.00649211 0)
(1.04129 -0.00190034 0)
(1.03745 0.00327465 0)
(1.03751 0.00831374 0)
(1.04133 0.0124516 0)
(1.04849 0.0157678 0)
(1.0595 0.0185078 0)
(1.07611 0.0208707 0)
(1.09855 0.0229566 0)
(1.08483 0.0224307 0)
(0.904234 0.0145461 0)
(0.521421 0.00430081 0)
(0.104419 0.000163861 0)
(0.10588 -8.5828e-05 0)
(0.717646 -0.00593191 0)
(1.01748 -0.013883 0)
(1.10889 -0.0168097 0)
(1.09797 -0.0150394 0)
(1.07716 -0.0120823 0)
(1.06271 -0.00869917 0)
(1.05256 -0.00480737 0)
(1.04548 -0.000411369 0)
(1.04137 0.00447907 0)
(1.04113 0.00915082 0)
(1.04473 0.0128832 0)
(1.05177 0.015795 0)
(1.06282 0.0181673 0)
(1.07963 0.0202233 0)
(1.10022 0.02195 0)
(1.07458 0.0207583 0)
(0.874722 0.0127483 0)
(0.497244 0.00370756 0)
(0.0991988 0.000144902 0)
(0.102975 -6.08353e-05 0)
(0.697095 -0.00463335 0)
(1.00154 -0.011478 0)
(1.10853 -0.0145323 0)
(1.10295 -0.0129844 0)
(1.08197 -0.0100336 0)
(1.06717 -0.00670816 0)
(1.05677 -0.0029242 0)
(1.04944 0.00131199 0)
(1.04501 0.00592903 0)
(1.04442 0.0102173 0)
(1.04772 0.0135416 0)
(1.05459 0.0160488 0)
(1.06564 0.0180468 0)
(1.08268 0.0198308 0)
(1.10102 0.0211944 0)
(1.06294 0.0193735 0)
(0.84727 0.0113581 0)
(0.476157 0.00327926 0)
(0.0946022 0.000133652 0)
(0.100885 -3.75866e-05 0)
(0.680576 -0.0034675 0)
(0.987139 -0.00916853 0)
(1.10758 -0.0121681 0)
(1.10759 -0.010847 0)
(1.08674 -0.00794924 0)
(1.07159 -0.00459124 0)
(1.06088 -0.000808003 0)
(1.05319 0.00331206 0)
(1.04833 0.00768762 0)
(1.04732 0.0116201 0)
(1.05029 0.0145239 0)
(1.05697 0.0166527 0)
(1.06802 0.0183093 0)
(1.08524 0.0197363 0)
(1.10077 0.0206338 0)
(1.05012 0.0181929 0)
(0.821728 0.0102649 0)
(0.457424 0.00296452 0)
(0.090442 0.000126812 0)
(0.0995556 -1.41946e-05 0)
(0.667851 -0.00236879 0)
(0.974751 -0.00689323 0)
(1.10639 -0.00959569 0)
(1.11196 -0.00836939 0)
(1.09153 -0.00546957 0)
(1.07606 -0.00207784 0)
(1.06498 0.0016698 0)
(1.05687 0.00567944 0)
(1.0515 0.00984129 0)
(1.04994 0.0134013 0)
(1.0525 0.0158401 0)
(1.05894 0.0174783 0)
(1.06992 0.0186796 0)
(1.08705 0.0197463 0)
(1.09947 0.020253 0)
(1.03636 0.0171851 0)
(0.797912 0.00941772 0)
(0.440487 0.00274112 0)
(0.0865763 0.000124181 0)
(0.0989787 1.33341e-05 0)
(0.658857 -0.00128116 0)
(0.964772 -0.00457694 0)
(1.10544 -0.00681188 0)
(1.11634 -0.0055622 0)
(1.09637 -0.00262877 0)
(1.08047 0.000787276 0)
(1.069 0.00454346 0)
(1.06044 0.00852164 0)
(1.05445 0.0124687 0)
(1.05222 0.015619 0)
(1.05422 0.0175937 0)
(1.06028 0.01874 0)
(1.07123 0.0194715 0)
(1.08844 0.0201186 0)
(1.09704 0.0200827 0)
(1.02196 0.0164607 0)
(0.775577 0.00881002 0)
(0.424892 0.00260496 0)
(0.0828913 0.000125974 0)
(0.0991731 3.90085e-05 0)
(0.653591 -0.000156375 0)
(0.957441 -0.00215852 0)
(1.10487 -0.00381324 0)
(1.12071 -0.00258598 0)
(1.10127 0.000374418 0)
(1.08496 0.00397539 0)
(1.073 0.00787867 0)
(1.0638 0.0118767 0)
(1.05701 0.0156781 0)
(1.05398 0.0184678 0)
(1.05535 0.0199223 0)
(1.06103 0.0205268 0)
(1.07182 0.0207508 0)
(1.08885 0.0209165 0)
(1.09339 0.0202837 0)
(1.00676 0.0159585 0)
(0.754418 0.00840105 0)
(0.410212 0.00253992 0)
(0.0792593 0.000131387 0)
(0.100232 7.10639e-05 0)
(0.652232 0.0010517 0)
(0.953159 0.000411772 0)
(1.10501 -0.000386375 0)
(1.12513 0.00102362 0)
(1.10642 0.00410072 0)
(1.08975 0.00790188 0)
(1.07722 0.0119592 0)
(1.06726 0.0160023 0)
(1.05953 0.0196349 0)
(1.0555 0.0219795 0)
(1.05605 0.0228437 0)
(1.06117 0.0228269 0)
(1.0717 0.0224544 0)
(1.08817 0.0219861 0)
(1.08824 0.0206589 0)
(0.990944 0.0157002 0)
(0.73418 0.00820607 0)
(0.396085 0.00254382 0)
(0.0755916 0.000138897 0)
(0.102276 0.000103187 0)
(0.65475 0.00229109 0)
(0.952347 0.00317014 0)
(1.1066 0.00335482 0)
(1.13004 0.00515024 0)
(1.11186 0.0085068 0)
(1.09471 0.012519 0)
(1.08151 0.0167552 0)
(1.07065 0.0209205 0)
(1.06177 0.0244738 0)
(1.05648 0.0264199 0)
(1.05601 0.0266739 0)
(1.06045 0.0259141 0)
(1.07067 0.0248258 0)
(1.08642 0.0236723 0)
(1.08163 0.0215609 0)
(0.974429 0.0158946 0)
(0.714384 0.0082873 0)
(0.382085 0.00263306 0)
(0.0718032 0.000147751 0)
(0.105447 0.000154824 0)
(0.661847 0.00372688 0)
(0.955092 0.00607595 0)
(1.10982 0.00743439 0)
(1.13557 0.00964908 0)
(1.11771 0.0133809 0)
(1.09999 0.0178208 0)
(1.08601 0.0224883 0)
(1.07405 0.0269376 0)
(1.06368 0.0304284 0)
(1.0569 0.0318967 0)
(1.05521 0.0314614 0)
(1.05874 0.029963 0)
(1.06848 0.0281519 0)
(1.08334 0.0262403 0)
(1.07339 0.0231768 0)
(0.956768 0.0166403 0)
(0.694418 0.0087485 0)
(0.367619 0.00284277 0)
(0.067784 0.000158798 0)
(0.109971 0.000218426 0)
(0.673576 0.00532106 0)
(0.961825 0.00932996 0)
(1.11499 0.012033 0)
(1.14189 0.0148128 0)
(1.12434 0.0191049 0)
(1.10605 0.0242084 0)
(1.0911 0.0294921 0)
(1.07775 0.0343046 0)
(1.06559 0.0377593 0)
(1.05694 0.0387091 0)
(1.05375 0.0374927 0)
(1.05616 0.0351806 0)
(1.06521 0.0325942 0)
(1.07872 0.0298457 0)
(1.06318 0.0256305 0)
(0.937746 0.0182055 0)
(0.673399 0.00973474 0)
(0.351848 0.00321053 0)
(0.0633762 0.00017502 0)
(0.116081 0.000299191 0)
(0.690285 0.0071945 0)
(0.973268 0.0130829 0)
(1.12283 0.0173575 0)
(1.14952 0.0211187 0)
(1.13203 0.0263369 0)
(1.11295 0.0322811 0)
(1.09659 0.0382332 0)
(1.08137 0.0434085 0)
(1.06698 0.0467471 0)
(1.05613 0.0470144 0)
(1.05125 0.0448303 0)
(1.05246 0.0415565 0)
(1.06069 0.0381244 0)
(1.07243 0.0345453 0)
(1.05104 0.0292132 0)
(0.916881 0.0207364 0)
(0.650135 0.0112468 0)
(0.333834 0.00372583 0)
(0.0583665 0.000197711 0)
(0.124185 0.000411014 0)
(0.712604 0.00963251 0)
(0.989792 0.0176499 0)
(1.13424 0.0236689 0)
(1.15939 0.0287552 0)
(1.14127 0.0352676 0)
(1.12093 0.0422091 0)
(1.10275 0.0489414 0)
(1.08525 0.0545545 0)
(1.06815 0.057741 0)
(1.05468 0.0572123 0)
(1.04777 0.0538971 0)
(1.04759 0.0494783 0)
(1.05496 0.0450525 0)
(1.06455 0.0406841 0)
(1.03673 0.0341474 0)
(0.893245 0.0242305 0)
(0.623388 0.0132245 0)
(0.312778 0.00436008 0)
(0.0525838 0.000226281 0)
(0.134996 0.000577437 0)
(0.741689 0.0130455 0)
(1.01216 0.0236254 0)
(1.14968 0.0315553 0)
(1.17203 0.038119 0)
(1.15233 0.0461532 0)
(1.13012 0.0543862 0)
(1.10956 0.0621259 0)
(1.08915 0.0682359 0)
(1.06874 0.07117 0)
(1.05223 0.0696642 0)
(1.04302 0.0650727 0)
(1.04128 0.0593339 0)
(1.04775 0.0538057 0)
(1.05501 0.0484186 0)
(1.0195 0.0402974 0)
(0.865808 0.0285207 0)
(0.592049 0.0155216 0)
(0.288125 0.00504624 0)
(0.0459229 0.000255129 0)
(0.149732 0.000843864 0)
(0.779398 0.0181109 0)
(1.04195 0.0319156 0)
(1.16973 0.042212 0)
(1.18779 0.050715 0)
(1.16563 0.0603858 0)
(1.14086 0.0701627 0)
(1.11713 0.0789074 0)
(1.09304 0.0852334 0)
(1.06869 0.0874552 0)
(1.04872 0.0845426 0)
(1.03691 0.0784178 0)
(1.0334 0.0712593 0)
(1.03881 0.0643073 0)
(1.04315 0.0574569 0)
(0.998492 0.0475901 0)
(0.833622 0.0335815 0)
(0.555211 0.0180429 0)
(0.259644 0.00573986 0)
(0.0384195 0.000278813 0)
(0.170585 0.00131198 0)
(0.829012 0.0260028 0)
(1.08206 0.0441524 0)
(1.19543 0.0576576 0)
(1.20718 0.0687563 0)
(1.18135 0.0803268 0)
(1.15299 0.0914323 0)
(1.12501 0.10062 0)
(1.09634 0.106342 0)
(1.06743 0.106947 0)
(1.04366 0.101762 0)
(1.0292 0.0934906 0)
(1.02385 0.0846917 0)
(1.02767 0.0763753 0)
(1.02833 0.0679526 0)
(0.973186 0.0561599 0)
(0.795436 0.0393735 0)
(0.512274 0.0207288 0)
(0.22741 0.00640922 0)
(0.0302193 0.000292768 0)
(0.201015 0.00236481 0)
(0.89651 0.0394994 0)
(1.13538 0.0640719 0)
(1.22762 0.0810369 0)
(1.23055 0.0952703 0)
(1.199 0.108351 0)
(1.16558 0.119811 0)
(1.13219 0.128197 0)
(1.09819 0.132094 0)
(1.06427 0.129983 0)
(1.03646 0.12171 0)
(1.01938 0.11069 0)
(1.01242 0.0997274 0)
(1.01463 0.0899929 0)
(1.01071 0.0803903 0)
(0.942707 0.0663237 0)
(0.74967 0.0455911 0)
(0.463549 0.0235781 0)
(0.192346 0.0070685 0)
(0.0217342 0.000292072 0)
(0.242574 0.00864001 6.23551e-20)
(0.985819 0.0666613 5.41715e-20)
(1.19966 0.097775 -1.87595e-20)
(1.26449 0.116045 0)
(1.25557 0.133387 -4.58584e-34)
(1.21669 0.146173 6.65069e-21)
(1.17702 0.156199 -1.16727e-20)
(1.13751 0.162392 0)
(1.09775 0.163562 2.32852e-34)
(1.05843 0.158286 -1.38094e-20)
(1.0262 0.146949 0)
(1.00604 0.133359 -1.6101e-20)
(0.997265 0.120365 -4.72896e-20)
(0.998217 0.109371 -2.22739e-20)
(0.988654 0.0986929 -6.67714e-21)
(0.902082 0.0806305 -3.95677e-21)
(0.69161 0.0544063 0)
(0.406187 0.0278608 2.77288e-21)
(0.155097 0.00876514 3.27616e-21)
(0.0138173 0.000573731 5.89541e-20)
(0.270803 0.0241999 4.96913e-20)
(1.05871 0.109078 5.19762e-22)
(1.25182 0.146025 5.19312e-21)
(1.2986 0.164755 0)
(1.2781 0.181313 -2.39123e-20)
(1.23201 0.192154 -2.67775e-20)
(1.18593 0.199941 -1.19424e-20)
(1.14026 0.203878 -4.15544e-20)
(1.0945 0.202746 0)
(1.04924 0.195157 5.90477e-20)
(1.01166 0.181917 5.80401e-20)
(0.987273 0.166981 1.71564e-20)
(0.975299 0.152639 6.19872e-20)
(0.971697 0.138944 8.65414e-20)
(0.949583 0.122876 0)
(0.844415 0.0992201 1.21806e-19)
(0.624444 0.0666159 1.74932e-19)
(0.34897 0.0346112 1.94393e-19)
(0.122946 0.0114211 -2.22324e-19)
(0.00755318 0.000695696 -4.17506e-21)
(0.270595 0.0395953 0)
(1.10339 0.164305 9.67864e-21)
(1.28681 0.205542 0)
(1.32494 0.223918 -3.3818e-20)
(1.29591 0.23662 0)
(1.24362 0.243588 -5.37714e-20)
(1.19176 0.247875 2.46765e-20)
(1.14051 0.248738 -8.47633e-20)
(1.08926 0.244819 -1.56873e-21)
(1.03857 0.234656 3.08086e-20)
(0.996058 0.219206 1.27556e-19)
(0.967289 0.202427 -3.04229e-22)
(0.95051 0.186028 -4.50639e-20)
(0.939386 0.169186 -8.17437e-20)
(0.907626 0.149097 9.67672e-20)
(0.800455 0.121076 -1.7133e-19)
(0.589219 0.0830913 -2.26256e-20)
(0.329863 0.0449121 0)
(0.11915 0.0158633 9.30546e-24)
(0.00757682 0.00107518 0)
(0.263388 0.0530005 1.49998e-19)
(1.12586 0.222688 -6.9691e-20)
(1.30779 0.269724 -4.90703e-20)
(1.34173 0.287768 1.6616e-20)
(1.30721 0.296063 -2.76198e-20)
(1.25054 0.298533 1.13417e-19)
(1.19422 0.298827 5.18786e-20)
(1.13831 0.296167 0)
(1.08228 0.288944 -1.57004e-19)
(1.0266 0.275512 0)
(0.979329 0.256889 -6.73141e-20)
(0.946034 0.237164 -8.21727e-20)
(0.923955 0.218024 -4.91388e-20)
(0.90603 0.198513 -5.9407e-20)
(0.869779 0.176398 0)
(0.768999 0.146358 0)
(0.573187 0.104295 -1.483e-19)
(0.332203 0.059735 2.92754e-20)
(0.128259 0.0230475 -1.71884e-20)
(0.0106427 0.00203984 -2.00948e-20)
(0.255449 0.0649408 -7.70463e-20)
(1.13424 0.280903 0)
(1.31833 0.334804 1.09131e-19)
(1.34999 0.353018 4.8884e-20)
(1.31209 0.357121 6.24616e-20)
(1.25263 0.3552 0)
(1.19308 0.35154 5.18204e-20)
(1.13343 0.345178 9.47002e-20)
(1.07325 0.334284 8.11352e-20)
(1.01302 0.316922 1.45083e-19)
(0.961209 0.294384 0)
(0.923584 0.271287 -1.77419e-19)
(0.896823 0.249423 -1.06276e-19)
(0.874053 0.228215 -6.26526e-20)
(0.836538 0.205311 3.83081e-19)
(0.744322 0.17432 4.56906e-20)
(0.565134 0.12829 2.15194e-19)
(0.340754 0.0774124 -1.01699e-18)
(0.141608 0.0324834 6.04184e-19)
(0.0149881 0.00363543 -7.28185e-19)
(0.24822 0.0757498 -5.82523e-20)
(1.13394 0.337108 1.46529e-20)
(1.32119 0.398973 -1.39283e-20)
(1.35136 0.417881 -5.63957e-20)
(1.31148 0.418266 -5.67933e-20)
(1.25041 0.41232 1.75754e-21)
(1.1885 0.404894 -5.6022e-20)
(1.12582 0.394807 9.86999e-20)
(1.06204 0.380026 -1.74605e-19)
(0.997656 0.358396 0)
(0.941693 0.33169 -8.07845e-20)
(0.900245 0.305295 -1.6112e-21)
(0.869764 0.281185 -1.16022e-19)
(0.843853 0.258877 0)
(0.806484 0.235428 -8.28885e-20)
(0.722757 0.203316 -1.97405e-19)
(0.558974 0.153855 5.28751e-19)
(0.349459 0.0965947 -5.20174e-19)
(0.153942 0.0431092 7.39802e-19)
(0.0191185 0.00559534 -7.68733e-19)
(0.242444 0.0858311 -4.04369e-22)
(1.12858 0.390723 -1.13933e-20)
(1.31868 0.461294 -4.93427e-20)
(1.34749 0.481151 2.57398e-20)
(1.30647 0.478468 -2.91707e-20)
(1.24458 0.468971 0)
(1.18094 0.458011 -5.38421e-20)
(1.11572 0.444256 -1.038e-19)
(1.04875 0.425538 -9.12327e-20)
(0.98064 0.399562 0)
(0.920962 0.368742 -8.41861e-20)
(0.876371 0.339256 -1.0313e-19)
(0.843203 0.313179 1.25601e-19)
(0.815472 0.289898 -7.58923e-20)
(0.778825 0.26605 -3.60674e-19)
(0.701067 0.23273 2.15576e-19)
(0.551125 0.179969 6.46924e-20)
(0.35407 0.116043 0)
(0.162391 0.0538175 -7.13549e-19)
(0.0222093 0.0075946 -2.61483e-20)
(0.238124 0.0955099 -5.19475e-21)
(1.12044 0.441585 9.48396e-21)
(1.31264 0.521761 2.51116e-20)
(1.33987 0.542113 8.74067e-20)
(1.2981 0.53699 -1.13387e-19)
(1.23587 0.524429 1.17419e-19)
(1.17091 0.510205 1.157e-19)
(1.10353 0.492925 -1.65949e-19)
(1.03374 0.470349 5.49958e-20)
(0.962256 0.440119 -3.56772e-19)
(0.899315 0.405317 -9.45027e-20)
(0.852132 0.372853 0)
(0.817052 0.34483 1.35861e-19)
(0.78824 0.320384 1.62041e-19)
(0.75243 0.295651 1.93608e-19)
(0.679667 0.260601 -2.33274e-19)
(0.540513 0.204825 -6.90792e-20)
(0.353405 0.134228 8.13371e-20)
(0.16569 0.0633769 0)
(0.02389 0.00929911 -5.65642e-20)
(0.235074 0.104946 3.32825e-20)
(1.11108 0.489851 -2.92571e-20)
(1.30416 0.57951 -2.51853e-20)
(1.3296 0.6004 5.70265e-20)
(1.28728 0.593333 -5.45525e-20)
(1.22494 0.578144 -4.03775e-21)
(1.15895 0.560961 -1.25679e-19)
(1.08971 0.540373 -5.98445e-20)
(1.01738 0.514122 -1.58118e-19)
(0.942841 0.47983 2.52911e-22)
(0.87698 0.441177 -2.96547e-19)
(0.827641 0.405744 2.46725e-19)
(0.791137 0.375656 -1.48488e-19)
(0.761652 0.349801 1.77636e-19)
(0.72655 0.323818 0)
(0.657605 0.286854 -1.25904e-19)
(0.526976 0.22761 -6.93743e-22)
(0.347601 0.150071 -3.52783e-19)
(0.164182 0.0709445 -5.18879e-20)
(0.024235 0.0105146 0)
(0.233105 0.114234 0)
(1.10131 0.535718 -2.79049e-20)
(1.29408 0.634221 -4.25311e-20)
(1.3176 0.655876 -5.62335e-20)
(1.27474 0.647183 -6.46779e-20)
(1.21239 0.629755 0)
(1.14554 0.609917 -5.93566e-20)
(1.07467 0.586292 -1.14821e-21)
(1.00006 0.556633 3.38444e-19)
(0.922709 0.518522 -4.923e-20)
(0.854165 0.476135 -2.13655e-19)
(0.802942 0.43768 1.28727e-19)
(0.765331 0.405324 -2.05043e-21)
(0.735444 0.377815 1.88794e-19)
(0.700962 0.350201 1.15938e-19)
(0.634904 0.310763 -2.71511e-19)
(0.510338 0.247437 3.22318e-19)
(0.336767 0.162714 9.52973e-20)
(0.158529 0.0760011 3.93056e-19)
(0.0232467 0.0110652 -1.05227e-18)
(0.232101 0.123507 -1.46409e-22)
(1.09164 0.57933 -6.98087e-21)
(1.2833 0.686104 1.06321e-20)
(1.30449 0.708497 5.19556e-20)
(1.2611 0.698383 0)
(1.19873 0.679035 -5.87672e-20)
(1.13115 0.65685 1.96724e-19)
(1.05883 0.630489 1.31923e-19)
(0.982129 0.59773 0)
(0.902133 0.556083 -7.04443e-19)
(0.831037 0.510081 5.76037e-19)
(0.778049 0.46852 0)
(0.739486 0.433675 1.72539e-19)
(0.709308 0.404174 -2.02328e-21)
(0.675299 0.374555 -3.6967e-19)
(0.611234 0.332127 1.44877e-19)
(0.490783 0.26378 0)
(0.321845 0.171852 5.13242e-19)
(0.149297 0.078616 0)
(0.0212853 0.0110257 -4.96401e-19)
(0.231854 0.132805 3.49373e-21)
(1.08245 0.620785 3.88403e-22)
(1.27187 0.735174 1.30771e-20)
(1.29078 0.758245 0)
(1.24682 0.746897 -6.13722e-20)
(1.18439 0.72589 0)
(1.11616 0.701636 -1.97909e-19)
(1.04254 0.672853 -6.2999e-20)
(0.963896 0.637333 6.035e-20)
(0.881369 0.592458 -3.48103e-19)
(0.807734 0.542985 5.97082e-20)
(0.752979 0.498232 0)
(0.713484 0.460661 -3.6819e-19)
(0.683043 0.428858 2.0574e-21)
(0.649311 0.396823 0)
(0.586398 0.350814 2.1442e-21)
(0.468525 0.27663 4.67335e-19)
(0.303323 0.177273 -4.42953e-19)
(0.137382 0.0788151 1.30567e-19)
(0.0186854 0.0104723 0)
(0.231988 0.141993 0)
(1.07381 0.660225 6.57713e-21)
(1.26016 0.781611 -4.73978e-21)
(1.27683 0.80517 -2.35268e-21)
(1.23224 0.79274 -2.57633e-20)
(1.16973 0.770293 -1.3199e-19)
(1.10091 0.744233 7.30691e-20)
(1.02609 0.713336 -7.27188e-20)
(0.945637 0.675393 2.67047e-19)
(0.860627 0.627632 -5.55472e-19)
(0.784384 0.574866 -3.45901e-21)
(0.727739 0.526854 -1.62495e-19)
(0.687239 0.486324 5.95946e-19)
(0.656488 0.451903 -2.40995e-21)
(0.622818 0.417028 -2.85701e-19)
(0.560286 0.366763 -5.10758e-19)
(0.44386 0.286004 0)
(0.281857 0.179164 0)
(0.123392 0.0766643 1.40977e-19)
(0.0157118 0.00943593 -8.2534e-20)
(0.23267 0.151168 1.20688e-20)
(1.06569 0.697529 -2.15622e-20)
(1.24843 0.825476 4.71261e-21)
(1.26288 0.84938 0)
(1.21765 0.835968 -1.55266e-21)
(1.15502 0.812263 -1.27381e-19)
(1.08566 0.784643 1.80793e-19)
(1.00975 0.751926 2.90813e-19)
(0.927581 0.711905 3.48174e-19)
(0.840111 0.661616 -4.54226e-19)
(0.761136 0.605789 -4.92721e-19)
(0.702383 0.554496 4.34209e-19)
(0.6607 0.51077 0)
(0.629529 0.473373 -1.29716e-19)
(0.595725 0.435193 -3.08827e-19)
(0.532926 0.379948 -3.66395e-19)
(0.416843 0.291758 -4.35442e-19)
(0.258035 0.177537 1.2882e-19)
(0.107825 0.0722019 -7.57898e-20)
(0.012415 0.00795938 2.95622e-22)
(0.233392 0.160235 0)
(1.05819 0.733172 0)
(1.2368 0.866886 2.56928e-21)
(1.24907 0.890986 0)
(1.20323 0.876678 7.31768e-20)
(1.14046 0.851865 9.19676e-20)
(1.07061 0.822896 0)
(0.99371 0.788638 3.53474e-20)
(0.909925 0.746871 5.82328e-19)
(0.820015 0.694433 -1.04257e-18)
(0.738149 0.63584 0)
(0.676991 0.581311 -2.78762e-19)
(0.633827 0.534147 -2.93059e-21)
(0.602048 0.493364 -2.38286e-21)
(0.567923 0.451286 3.29702e-19)
(0.50433 0.390212 -3.87821e-22)
(0.387644 0.293766 -9.36664e-19)
(0.232135 0.172316 2.77048e-19)
(0.0916661 0.0659054 8.18775e-20)
(0.00913024 0.00622668 0)
(0.234111 0.169124 -6.65374e-20)
(1.05102 0.767143 -2.52759e-20)
(1.22531 0.905883 -1.43722e-20)
(1.23555 0.930099 -4.3855e-20)
(1.18912 0.914947 1.14104e-19)
(1.12622 0.889169 0)
(1.05594 0.859046 1.12475e-19)
(0.978137 0.823504 -7.78635e-20)
(0.89283 0.780313 3.8582e-21)
(0.800514 0.726115 7.63031e-20)
(0.715585 0.665106 6.36662e-19)
(0.651651 0.60747 -9.78805e-20)
(0.606583 0.556673 -3.66011e-19)
(0.573885 0.511984 -1.50692e-19)
(0.539242 0.465195 1.79204e-19)
(0.474528 0.397258 -2.1857e-22)
(0.357018 0.291861 2.52451e-19)
(0.20536 0.163885 -5.95684e-19)
(0.0755751 0.0582111 7.04383e-19)
(0.00600836 0.00436628 1.02675e-19)
(0.23466 0.177711 2.79278e-20)
(1.04418 0.799528 -1.61083e-20)
(1.21406 0.942583 6.11626e-21)
(1.22238 0.966838 -1.12804e-20)
(1.17543 0.95089 -1.76229e-20)
(1.1124 0.924255 -1.6539e-19)
(1.04176 0.893154 3.46708e-20)
(0.963153 0.856552 -3.25862e-19)
(0.876431 0.812236 -6.43563e-19)
(0.78175 0.756668 -6.21486e-19)
(0.6936 0.693661 0)
(0.626481 0.633147 -4.27329e-19)
(0.578986 0.578612 5.2599e-19)
(0.544835 0.529408 0)
(0.509378 0.476752 -3.83328e-19)
(0.443491 0.400584 2.29398e-19)
(0.325515 0.285669 -2.71071e-19)
(0.178874 0.152517 -3.20623e-19)
(0.0604652 0.0496681 -5.67284e-19)
(0.00323382 0.00253407 -4.42258e-19)
(0.235489 0.186132 -3.42145e-20)
(1.03753 0.83029 1.72908e-20)
(1.20308 0.977063 3.44249e-20)
(1.20961 1.00129 -6.06953e-21)
(1.16221 0.984601 4.11559e-20)
(1.0991 0.957218 -9.54554e-20)
(1.02815 0.925279 1.13982e-19)
(0.948847 0.887833 -3.37027e-19)
(0.860815 0.842667 -3.81284e-19)
(0.763844 0.786108 6.5061e-19)
(0.672349 0.721562 1.39501e-18)
(0.601648 0.65851 0)
(0.55108 0.60026 0)
(0.514648 0.545941 -1.7325e-19)
(0.477782 0.485811 0)
(0.410907 0.399307 4.9367e-19)
(0.293953 0.274249 5.83475e-19)
(0.154454 0.13821 0)
(0.0476506 0.0408789 0)
(0.000986924 0.000930313 4.75286e-19)
(0.235928 0.194077 4.18461e-20)
(1.0311 0.859419 3.29735e-20)
(1.19242 1.00944 2.64499e-20)
(1.1973 1.03357 -6.68459e-21)
(1.14952 1.01619 3.6461e-20)
(1.08635 0.988139 1.06706e-19)
(1.01519 0.955491 -1.57756e-19)
(0.93528 0.917383 7.06374e-23)
(0.846059 0.871616 -4.99116e-21)
(0.746892 0.814433 -5.51939e-21)
(0.652001 0.748845 7.1772e-19)
(0.577339 0.683687 0)
(0.523002 0.621928 5.29671e-19)
(0.483114 0.562037 3.68915e-19)
(0.443586 0.49253 8.92855e-19)
(0.375767 0.392374 2.65367e-19)
(0.262903 0.255419 -3.1468e-19)
(0.13551 0.119091 -1.8481e-19)
(0.0416945 0.0313402 0)
(0.000688342 0.000146625 5.10657e-19)
(0.236633 0.202002 -1.00376e-19)
(1.02484 0.88702 0)
(1.18205 1.03976 3.78468e-20)
(1.18543 1.06377 -1.05486e-20)
(1.13739 1.04574 -2.73216e-20)
(1.0742 1.01711 -1.28792e-19)
(1.0029 0.983855 3.14569e-19)
(0.922487 0.945244 -2.70415e-20)
(0.832204 0.899096 0)
(0.730973 0.841616 -7.18718e-19)
(0.632705 0.775506 -1.55909e-18)
(0.553772 0.708778 6.28994e-20)
(0.495004 0.643892 7.27227e-19)
(0.450188 0.578293 0)
(0.405756 0.497665 6.01019e-19)
(0.335761 0.379393 0)
(0.230118 0.225329 0)
(0.125009 0.0842326 -2.00242e-19)
(0.0616889 0.00989431 0)
(0.0265632 0.0107322 1.36869e-19)
(0.236933 0.209299 -1.17263e-19)
(1.01874 0.913414 0)
(1.17198 1.06822 6.85321e-20)
(1.17398 1.09212 0)
(1.12577 1.07352 9.39006e-21)
(1.06257 1.04442 0)
(0.991215 1.01069 1.69397e-20)
(0.910374 0.971761 4.65355e-20)
(0.819136 0.925479 4.76535e-20)
(0.71594 0.868053 -7.89077e-19)
(0.614319 0.801983 4.70569e-20)
(0.530793 0.734368 5.03441e-19)
(0.466845 0.666811 7.08048e-19)
(0.41527 0.595653 9.51187e-20)
(0.362558 0.502955 4.69664e-19)
(0.286487 0.362184 0)
(0.184212 0.183162 6.64331e-19)
(0.0942011 0.0246669 -3.89322e-19)
(0.0442634 0.0444171 4.51458e-19)
(-0.0689061 0.42734 -5.32801e-19)
(0.237193 0.21637 1.00061e-19)
(1.01254 0.938394 1.46394e-19)
(1.16211 1.09515 0)
(1.16279 1.11904 5.14842e-21)
(1.11447 1.10009 -1.41873e-20)
(1.05121 1.07074 1.90767e-19)
(0.979842 1.03679 1.1368e-19)
(0.898549 0.997877 0)
(0.806342 0.951857 3.20292e-19)
(0.701142 0.895045 -4.1678e-20)
(0.59596 0.829737 0)
(0.507282 0.762218 0)
(0.437088 0.692465 6.31752e-19)
(0.376753 0.615694 -2.92803e-19)
(0.311127 0.51129 -4.73557e-19)
(0.223236 0.346131 0)
(0.106442 0.170236 3.3443e-19)
(0.00766064 0.434753 -3.87694e-19)
(0.0365177 1.87028 -2.13976e-19)
(0.0666569 2.80073 -2.72405e-19)
(0.237262 0.222577 -7.87019e-20)
(1.00645 0.962136 -1.94487e-19)
(1.15243 1.12051 4.46271e-20)
(1.15185 1.14438 2.5313e-20)
(1.10352 1.12524 0)
(1.04018 1.0958 1.2101e-19)
(0.968963 1.06185 1.61854e-19)
(0.88719 1.02316 -2.29401e-20)
(0.794083 0.977714 4.75028e-20)
(0.686954 0.921978 7.53304e-19)
(0.578224 0.858094 7.86654e-19)
(0.484215 0.791896 5.60974e-19)
(0.406787 0.720587 6.32663e-19)
(0.336621 0.637089 -6.82791e-19)
(0.257494 0.525508 -7.11512e-19)
(0.147715 0.373569 0)
(0.0523857 0.825104 0)
(0.10857 2.53797 1.85434e-19)
(0.109743 3.19272 0)
(0.112658 3.38469 4.48314e-19)
(0.239874 0.228212 0)
(1.00104 0.984809 0)
(1.14275 1.14418 0)
(1.14092 1.16793 9.77474e-21)
(1.09262 1.14872 -7.90808e-21)
(1.02925 1.11946 7.43122e-20)
(0.958473 1.08576 1.06478e-19)
(0.876254 1.04752 -2.26341e-20)
(0.782323 1.00292 4.04297e-19)
(0.673406 0.948716 -9.88814e-21)
(0.561264 0.886944 1.55395e-18)
(0.461967 0.82324 -6.42106e-20)
(0.376385 0.752031 7.66003e-20)
(0.297245 0.657072 9.80683e-20)
(0.196098 0.547251 -1.6761e-21)
(0.11309 0.958003 1.7948e-21)
(0.15012 2.69382 -9.59836e-19)
(0.161008 3.28691 -3.64461e-19)
(0.148129 3.42577 1.91155e-19)
(0.133509 3.44885 -2.13728e-19)
(0.157391 0.184477 4.93557e-20)
(0.990332 1.0092 0)
(1.13282 1.16639 -1.01642e-19)
(1.13057 1.19014 -8.16968e-20)
(1.08253 1.17132 1.63766e-20)
(1.01931 1.14236 -7.2124e-20)
(0.948268 1.10864 -1.12805e-19)
(0.865844 1.07107 2.64111e-19)
(0.771258 1.02759 -3.33621e-19)
(0.660833 0.975354 0)
(0.545536 0.916407 7.65007e-19)
(0.441135 0.856075 -4.56794e-19)
(0.346413 0.78974 0)
(0.258184 0.679672 9.10677e-20)
(0.164614 0.808922 2.17457e-19)
(0.165377 2.45298 -2.59568e-19)
(0.228582 3.32125 2.93127e-19)
(0.206098 3.44167 1.59702e-19)
(0.170942 3.46371 1.81837e-19)
(0.147682 3.47418 2.92285e-19)
(0.283217 0.267091 -8.76307e-20)
(0.975506 1.01924 0)
(1.11496 1.1915 1.17143e-19)
(1.11602 1.22263 1.05246e-19)
(1.06633 1.20458 -4.00372e-20)
(1.00253 1.17614 4.67524e-20)
(0.930592 1.14387 1.24617e-19)
(0.847507 1.10743 2.04476e-20)
(0.7516 1.06598 3.23852e-19)
(0.638525 1.01733 6.58461e-19)
(0.518377 0.964287 4.36322e-20)
(0.405965 0.911054 4.06421e-19)
(0.294083 0.85189 7.17526e-20)
(0.222672 0.974156 -8.96199e-20)
(0.239201 2.30063 -2.06199e-19)
(0.303717 3.32552 2.01746e-19)
(0.287843 3.47441 -2.25444e-19)
(0.250534 3.49639 -1.31108e-19)
(0.21195 3.52393 -1.14148e-19)
(0.158978 3.51719 -1.3389e-20)
(0.271093 0.263887 0)
(0.973319 1.04189 3.88537e-20)
(1.10716 1.21482 -2.57469e-20)
(1.10626 1.2459 -1.42879e-20)
(1.0562 1.22772 -3.74643e-20)
(0.992437 1.19954 -3.89776e-20)
(0.92014 1.16744 -7.17372e-20)
(0.836907 1.13177 1.8698e-20)
(0.740612 1.09173 -3.40492e-19)
(0.626537 1.04575 -1.43131e-20)
(0.504234 0.997249 -1.39033e-18)
(0.388333 0.949817 5.76654e-20)
(0.281716 0.919297 -6.79713e-20)
(0.262713 1.47023 -8.34197e-20)
(0.340495 3.08088 1.77788e-20)
(0.364199 3.47209 8.81852e-22)
(0.323029 3.53192 3.36354e-19)
(0.284616 3.55631 1.6829e-19)
(0.234217 3.58029 -4.87175e-20)
(0.173377 3.57587 -6.58625e-20)
(0.254563 0.262124 1.03077e-19)
(0.969523 1.06717 2.70292e-19)
(1.0989 1.24025 -7.46967e-20)
(1.09594 1.2706 -5.40484e-20)
(1.04559 1.25221 0)
(0.981933 1.22408 -1.99868e-20)
(0.909565 1.19223 -8.85473e-20)
(0.826465 1.1573 1.68399e-20)
(0.730101 1.11874 -3.75895e-20)
(0.615537 1.07563 -6.04938e-19)
(0.491849 1.03194 -6.45556e-19)
(0.37422 0.99119 -4.78374e-19)
(0.283983 1.04602 -5.12366e-19)
(0.331257 2.15076 5.28762e-19)
(0.427984 3.37526 4.49315e-19)
(0.409314 3.53331 0)
(0.36208 3.57796 0)
(0.324394 3.62017 -3.86952e-20)
(0.270162 3.68142 0)
(0.185507 3.65601 -5.03563e-20)
(0.243516 0.263785 -1.59637e-19)
(0.963722 1.09351 -2.36021e-19)
(1.08924 1.26686 0)
(1.08434 1.29614 6.14693e-21)
(1.03379 1.27732 -5.91122e-20)
(0.970343 1.2491 -3.11155e-21)
(0.898234 1.21751 -4.77754e-20)
(0.815469 1.18323 1.1686e-20)
(0.719275 1.14606 -2.49988e-19)
(0.604611 1.10575 3.10693e-20)
(0.480336 1.06701 0)
(0.363558 1.03578 0)
(0.31059 1.28114 -4.72349e-19)
(0.415286 2.82979 1.93169e-19)
(0.501458 3.48919 2.52161e-19)
(0.455644 3.56755 0)
(0.415355 3.62879 -2.70122e-20)
(0.377596 3.69253 -3.07455e-20)