# vtk DataFile Version 2.0
tracks
ASCII
DATASET POLYDATA
POINTS 12065 float
-0.0206 0.000999956 1e-05 -0.02058 0.000999959 1e-05 -0.02056 0.000999965 1e-05 -0.02054 0.000999974
1e-05 -0.02052 0.000999985 1e-05 -0.0205 0.001 1e-05 -0.0202034 0.00100022 1e-05
-0.0199069 0.00100067 1e-05 -0.0196103 0.00100132 1e-05 -0.0193137 0.00100219 1e-05 -0.0190172
0.00100326 1e-05 -0.0187132 0.00100466 1e-05 -0.0184093 0.00100588 1e-05 -0.0181054 0.0010071
1e-05 -0.0178015 0.00100832 1e-05 -0.0174976 0.00100953 1e-05 -0.0172058 0.00101083 1e-05
-0.016914 0.00101193 1e-05 -0.0166222 0.00101303 1e-05 -0.0163305 0.00101413 1e-05 -0.0160387
0.00101523 1e-05 -0.0157586 0.00101636 1e-05 -0.0154784 0.00101745 1e-05 -0.0151983 0.00101856
1e-05 -0.0149182 0.00101972 1e-05 -0.0146381 0.0010209 1e-05 -0.0143747 0.00102209 1e-05
-0.0141113 0.00102327 1e-05 -0.0138479 0.00102449 1e-05 -0.0135845 0.00102574 1e-05 -0.0133621
0.00102682 1e-05 -0.0133484 0.00102689 1e-05 -0.0133346 0.00102695 1e-05 -0.0133209 0.00102702
1e-05 -0.0133072 0.00102709 1e-05 -0.0132934 0.00102716 1e-05 -0.0130353 0.00102845 1e-05
-0.0127771 0.00102975 1e-05 -0.0125189 0.00103107 1e-05 -0.0122607 0.0010324 1e-05 -0.0120025
0.00103376 1e-05 -0.0117547 0.00103506 1e-05 -0.0115068 0.00103638 1e-05 -0.0112589 0.0010377
1e-05 -0.0110111 0.00103903 1e-05 -0.0107632 0.00104036 1e-05 -0.0105252 0.00104163 1e-05
-0.0102873 0.00104291 1e-05 -0.0100493 0.00104419 1e-05 -0.00981133 0.00104547 1e-05 -0.00957337
0.00104675 1e-05 -0.00934491 0.00104797 1e-05 -0.00911645 0.00104919 1e-05 -0.008888 0.00105041
1e-05 -0.00865954 0.00105163 1e-05 -0.00843108 0.00105285 1e-05 -0.00821175 0.001054 1e-05
-0.00799242 0.00105516 1e-05 -0.00777309 0.00105632 1e-05 -0.00755376 0.00105747 1e-05 -0.00733443
0.00105861 1e-05 -0.00712387 0.0010597 1e-05 -0.0069133 0.0010608 1e-05 -0.00670273 0.00106188
1e-05 -0.00649216 0.00106297 1e-05 -0.0062816 0.00106405 1e-05 -0.00607944 0.00106507 1e-05
-0.00587729 0.0010661 1e-05 -0.00567514 0.00106713 1e-05 -0.00547298 0.00106815 1e-05 -0.00527083
0.00106916 1e-05 -0.00507675 0.00107013 1e-05 -0.00488267 0.00107109 1e-05 -0.0046886 0.00107206
1e-05 -0.00449452 0.00107302 1e-05 -0.00430044 0.00107397 1e-05 -0.00411412 0.00107488 1e-05
-0.0039278 0.00107579 1e-05 -0.00374147 0.0010767 1e-05 -0.00355515 0.00107761 1e-05 -0.00336883
0.00107851 1e-05 -0.00318995 0.00107937 1e-05 -0.00301107 0.00108023 1e-05 -0.00283219 0.00108109
1e-05 -0.00265331 0.00108194 1e-05 -0.00247443 0.0010828 1e-05 -0.0023027 0.00108361 1e-05
-0.00213097 0.00108443 1e-05 -0.00195924 0.00108525 1e-05 -0.0017875 0.00108607 1e-05 -0.00161577
0.00108688 1e-05 -0.0014509 0.00108766 1e-05 -0.00128603 0.00108844 1e-05 -0.00112116 0.00108923
1e-05 -0.000956289 0.00109002 1e-05 -0.000791418 0.00109081 1e-05 -0.000633135 0.00109156 1e-05
-0.000474851 0.00109233 1e-05 -0.000316567 0.00109309 1e-05 -0.000158284 0.00109386 1e-05 0
0.00109462 1e-05 0.000105677 0.00109513 1e-05 0.000211355 0.00109564 1e-05 0.000317032 0.00109615
1e-05 0.00042271 0.00109666 1e-05 0.000528387 0.00109716 1e-05 0.000634886 0.00109767 1e-05
0.000741385 0.00109817 1e-05 0.000847885 0.00109866 1e-05 0.000954384 0.00109916 1e-05 0.00106088
0.00109965 1e-05 0.00116821 0.00110013 1e-05 0.00127554 0.00110062 1e-05 0.00138286 0.0011011
1e-05 0.00149019 0.00110156 1e-05 0.00159752 0.00110203 1e-05 0.00170568 0.00110248 1e-05
0.00181384 0.00110294 1e-05 0.001922 0.00110338 1e-05 0.00203016 0.00110382 1e-05 0.00213833
0.00110424 1e-05 0.00224733 0.00110466 1e-05 0.00235633 0.00110507 1e-05 0.00246533 0.00110548
1e-05 0.00257434 0.00110587 1e-05 0.00268334 0.00110626 1e-05 0.00279319 0.00110663 1e-05
0.00290304 0.00110701 1e-05 0.00301289 0.00110737 1e-05 0.00312274 0.00110773 1e-05 0.00323259
0.00110808 1e-05 0.00334329 0.00110841 1e-05 0.003454 0.00110875 1e-05 0.0035647 0.00110908
1e-05 0.0036754 0.0011094 1e-05 0.00378611 0.00110971 1e-05 0.00389767 0.00111001 1e-05
0.00400924 0.00111031 1e-05 0.0041208 0.0011106 1e-05 0.00423237 0.00111088 1e-05 0.00434393
0.00111116 1e-05 0.00445636 0.00111142 1e-05 0.00456879 0.00111168 1e-05 0.00468123 0.00111193
1e-05 0.00479366 0.00111218 1e-05 0.00490609 0.00111241 1e-05 0.0050194 0.00111264 1e-05
0.0051327 0.00111286 1e-05 0.00524601 0.00111308 1e-05 0.00535932 0.00111328 1e-05 0.00547262
0.00111348 1e-05 0.00558681 0.00111367 1e-05 0.005701 0.00111385 1e-05 0.00581518 0.00111403
1e-05 0.00592937 0.0011142 1e-05 0.00604356 0.00111436 1e-05 0.00615863 0.00111451 1e-05
0.00627371 0.00111466 1e-05 0.00638878 0.0011148 1e-05 0.00650386 0.00111493 1e-05 0.00661893
0.00111505 1e-05 0.0067349 0.00111517 1e-05 0.00685087 0.00111527 1e-05 0.00696684 0.00111538
1e-05 0.00708281 0.00111547 1e-05 0.00719878 0.00111555 1e-05 0.00731485 0.00111563 1e-05
0.00743092 0.0011157 1e-05 0.00754699 0.00111576 1e-05 0.00766306 0.00111581 1e-05 0.00777255
0.00111586 1e-05 0.00777467 0.00111586 1e-05 0.00777679 0.00111586 1e-05 0.0077789 0.00111586
1e-05 0.00778102 0.00111586 1e-05 0.00778313 0.00111586 1e-05 0.00790091 0.0011159 1e-05
0.00801869 0.00111593 1e-05 0.00813647 0.00111595 1e-05 0.00825425 0.00111596 1e-05 0.00837203
0.00111597 1e-05 0.00849073 0.00111596 1e-05 0.00860942 0.00111595 1e-05 0.00872812 0.00111593
1e-05 0.00884682 0.00111591 1e-05 0.00896551 0.00111587 1e-05 0.00908513 0.00111582 1e-05
0.00920475 0.00111577 1e-05 0.00932437 0.00111571 1e-05 0.00944398 0.00111564 1e-05 0.0095636
0.00111556 1e-05 0.00968415 0.00111547 1e-05 0.0098047 0.00111537 1e-05 0.00992525 0.00111527
1e-05 0.0100458 0.00111515 1e-05 0.0101663 0.00111503 1e-05 0.0102878 0.00111489 1e-05
0.0104093 0.00111475 1e-05 0.0105308 0.0011146 1e-05 0.0106523 0.00111444 1e-05 0.0107738
0.00111428 1e-05 0.0108962 0.00111409 1e-05 0.0110186 0.0011139 1e-05 0.0111411 0.00111371
1e-05 0.0112635 0.00111351 1e-05 0.0113859 0.00111329 1e-05 0.0115093 0.00111306 1e-05
0.0116327 0.00111282 1e-05 0.0117561 0.00111258 1e-05 0.0118795 0.00111233 1e-05 0.0120028
0.00111207 1e-05 0.0121272 0.00111179 1e-05 0.0122515 0.00111151 1e-05 0.0123759 0.00111122
1e-05 0.0125002 0.00111092 1e-05 0.0126245 0.00111061 1e-05 0.0127498 0.00111027 1e-05
0.0128752 0.00110994 1e-05 0.0130005 0.0011096 1e-05 0.0131258 0.00110925 1e-05 0.0132511
0.00110889 1e-05 0.0133774 0.00110851 1e-05 0.0135036 0.00110813 1e-05 0.0136299 0.00110774
1e-05 0.0137562 0.00110734 1e-05 0.0138825 0.00110693 1e-05 0.0140098 0.00110649 1e-05
0.014137 0.00110606 1e-05 0.0142643 0.00110561 1e-05 0.0143915 0.00110516 1e-05 0.0145188
0.0011047 1e-05 0.0146471 0.00110421 1e-05 0.0147753 0.00110372 1e-05 0.0149036 0.00110323
1e-05 0.0150318 0.00110272 1e-05 0.0151601 0.0011022 1e-05 0.0152893 0.00110167 1e-05
0.0154186 0.00110112 1e-05 0.0155478 0.00110057 1e-05 0.0156771 0.00110001 1e-05 0.0158063
0.00109944 1e-05 0.0159366 0.00109885 1e-05 0.0160668 0.00109825 1e-05 0.0161971 0.00109765
1e-05 0.0163273 0.00109703 1e-05 0.0164576 0.0010964 1e-05 0.0165889 0.00109576 1e-05
0.0167201 0.00109511 1e-05 0.0168514 0.00109445 1e-05 0.0169827 0.00109377 1e-05 0.0171139
0.00109309 1e-05 0.0172462 0.0010924 1e-05 0.0173785 0.00109169 1e-05 0.0175108 0.00109097
1e-05 0.0176431 0.00109024 1e-05 0.0177754 0.00108951 1e-05 0.0179087 0.00108876 1e-05
0.018042 0.001088 1e-05 0.0181753 0.00108722 1e-05 0.0183087 0.00108644 1e-05 0.018442
0.00108564 1e-05 0.0185763 0.00108485 1e-05 0.0187107 0.00108403 1e-05 0.018845 0.00108319
1e-05 0.0189794 0.00108235 1e-05 0.0191137 0.0010815 1e-05 0.0192491 0.00108065 1e-05
0.0193845 0.00107978 1e-05 0.0195199 0.00107888 1e-05 0.0196553 0.00107798 1e-05 0.0197907
0.00107708 1e-05 0.0199272 0.00107617 1e-05 0.0200636 0.00107524 1e-05 0.0202001 0.00107429
1e-05 0.0203365 0.00107333 1e-05 0.020473 0.00107237 1e-05 0.0206105 0.00107141 1e-05
0.020748 0.00107042 1e-05 0.0208855 0.00106941 1e-05 0.021023 0.00106839 1e-05 0.0211606
0.00106738 1e-05 0.0212991 0.00106636 1e-05 0.0214377 0.00106532 1e-05 0.0215763 0.00106426
1e-05 0.0217149 0.00106318 1e-05 0.0218535 0.00106211 1e-05 0.0219931 0.00106103 1e-05
0.0221328 0.00105994 1e-05 0.0222724 0.00105881 1e-05 0.0224121 0.00105767 1e-05 0.0225517
0.00105654 1e-05 0.0226925 0.00105542 1e-05 0.0228332 0.00105426 1e-05 0.022974 0.00105307
1e-05 0.0231147 0.00105188 1e-05 0.0232555 0.00105069 1e-05 0.0233973 0.0010495 1e-05
0.0235391 0.00104829 1e-05 0.023681 0.00104704 1e-05 0.0238228 0.00104579 1e-05 0.0239647
0.00104454 1e-05 0.0241076 0.0010433 1e-05 0.0242505 0.00104202 1e-05 0.0243935 0.00104072
1e-05 0.0245364 0.00103941 1e-05 0.0246794 0.0010381 1e-05 0.0248234 0.00103679 1e-05
0.0249675 0.00103546 1e-05 0.0251115 0.00103409 1e-05 0.0252556 0.00103272 1e-05 0.0253996
0.00103135 1e-05 0.0255448 0.00102999 1e-05 0.02569 0.00102859 1e-05 0.0258351 0.00102717
1e-05 0.0259803 0.00102573 1e-05 0.0261255 0.00102431 1e-05 0.0262718 0.00102288 1e-05
0.0264181 0.00102142 1e-05 0.0265644 0.00101993 1e-05 0.0267107 0.00101844 1e-05 0.026857
0.00101695 1e-05 0.0270044 0.00101545 1e-05 0.0271519 0.00101393 1e-05 0.0272993 0.00101238
1e-05 0.0274468 0.00101082 1e-05 0.0275942 0.00100927 1e-05 0.0277428 0.00100771 1e-05
0.0278914 0.00100611 1e-05 0.0280399 0.0010045 1e-05 0.0281885 0.00100288 1e-05 0.0283371
0.00100126 1e-05 0.0284869 0.00099963 1e-05 0.0286366 0.000997969 1e-05 0.0287863 0.000996293
1e-05 0.0289361 0.000994607 1e-05 0.0290858 0.000992913 1e-05 0.0292367 0.000991213 1e-05
0.0293876 0.000989481 1e-05 0.0295385 0.000987737 1e-05 0.0296894 0.000985982 1e-05 0.0298403
0.000984216 1e-05 0.0299924 0.000982443 1e-05 0.0301445 0.000980639 1e-05 0.0302966 0.000978824
1e-05 0.0304486 0.000976998 1e-05 0.0306007 0.00097516 1e-05 0.030754 0.000973311 1e-05
0.0309072 0.000971434 1e-05 0.0310605 0.000969546 1e-05 0.0312138 0.000967645 1e-05 0.031367
0.000965733 1e-05 0.0315215 0.000963806 1e-05 0.0316759 0.000961853 1e-05 0.0318304 0.000959888
1e-05 0.0319848 0.000957911 1e-05 0.0321393 0.000955921 1e-05 0.0322949 0.000953912 1e-05
0.0324506 0.00095188 1e-05 0.0326062 0.000949836 1e-05 0.0327619 0.000947778 1e-05 0.0329175
[...]
POINT_DATA 12065
FIELD attributes 4
age 1 12065 float
-9.99973e-06 -7.99975e-06 -5.99979e-06 -3.99984e-06 -1.99991e-06 0 2.96554e-05 5.93049e-05 8.89483e-05 0.000118586 0.000148217
0.000178568 0.000208911 0.00023924 0.000269556 0.000299858 0.000328932 0.000357998 0.000387053 0.000416096 0.000445127
0.000472987 0.000500841 0.000528688 0.000556529 0.000584362 0.000610528 0.000636689 0.000662847 0.000689002 0.000711089
0.000712452 0.000713815 0.000715178 0.000716541 0.000717904 0.000743534 0.000769164 0.000794792 0.000820419 0.000846044
0.000870645 0.000895246 0.000919847 0.00094445 0.000969053 0.000992675 0.0010163 0.00103992 0.00106355 0.00108718
0.00110987 0.00113256 0.00115526 0.00117795 0.00120066 0.00122246 0.00124426 0.00126606 0.00128787 0.00130968
0.00133063 0.00135158 0.00137253 0.00139349 0.00141445 0.00143459 0.00145472 0.00147486 0.001495 0.00151514
0.0015345 0.00155385 0.0015732 0.00159256 0.00161192 0.00163052 0.00164912 0.00166772 0.00168633 0.00170494
0.00172282 0.0017407 0.00175857 0.00177646 0.00179435 0.00181154 0.00182872 0.0018459 0.00186309 0.00188028
0.00189681 0.00191332 0.00192983 0.00194635 0.00196288 0.00197876 0.00199463 0.0020105 0.00202637 0.00204225
0.00205286 0.00206347 0.00207407 0.00208468 0.00209528 0.00210599 0.00211668 0.00212737 0.00213807 0.00214876
0.00215956 0.00217034 0.00218112 0.00219191 0.0022027 0.00221358 0.00222446 0.00223533 0.00224621 0.00225709
0.00226807 0.00227904 0.00229002 0.00230099 0.00231197 0.00232305 0.00233411 0.00234518 0.00235626 0.00236734
0.00237851 0.00238968 0.00240085 0.00241203 0.00242321 0.00243449 0.00244576 0.00245704 0.00246832 0.00247961
0.002491 0.00250238 0.00251376 0.00252515 0.00253655 0.00254805 0.00255954 0.00257104 0.00258254 0.00259405
0.00260566 0.00261727 0.00262889 0.00264051 0.00265214 0.00266387 0.0026756 0.00268734 0.00269908 0.00271083
0.00272268 0.00273454 0.0027464 0.00275827 0.00277015 0.00278205 0.00279395 0.00280587 0.00281779 0.00282904
0.00282926 0.00282947 0.00282969 0.00282991 0.00283013 0.00284224 0.00285436 0.00286649 0.00287863 0.00289078
0.00290304 0.0029153 0.00292757 0.00293985 0.00295215 0.00296456 0.00297697 0.00298939 0.00300182 0.00301426
0.00302683 0.00303939 0.00305196 0.00306454 0.00307714 0.00308987 0.00310259 0.00311532 0.00312806 0.00314082
0.00315372 0.0031666 0.00317949 0.0031924 0.00320532 0.00321839 0.00323144 0.0032445 0.00325757 0.00327066
0.00328392 0.00329714 0.00331037 0.00332362 0.00333688 0.00335032 0.00336371 0.00337713 0.00339055 0.003404
0.00341762 0.0034312 0.00344479 0.0034584 0.00347203 0.00348584 0.00349961 0.00351339 0.00352719 0.00354101
0.00355501 0.00356897 0.00358295 0.00359694 0.00361095 0.00362515 0.00363932 0.00365349 0.00366768 0.00368189
0.00369629 0.00371066 0.00372503 0.00373942 0.00375384 0.00376845 0.00378302 0.0037976 0.00381219 0.00382682
0.00384163 0.00385641 0.00387119 0.00388599 0.00390083 0.00391585 0.00393085 0.00394584 0.00396085 0.0039759
0.00399113 0.00400634 0.00402155 0.00403677 0.00405204 0.00406748 0.00408291 0.00409833 0.00411377 0.00412926
0.00414492 0.00416057 0.0041762 0.00419186 0.00420757 0.00422345 0.00423932 0.00425518 0.00427106 0.00428699
0.00430309 0.00431918 0.00433527 0.00435138 0.00436753 0.00438385 0.00440017 0.00441649 0.00443282 0.0044492
0.00446575 0.00448229 0.00449883 0.0045154 0.004532 0.00454877 0.00456555 0.00458232 0.00459911 0.00461594
0.00463294 0.00464995 0.00466695 0.00468398 0.00470104 0.00471827 0.0047355 0.00475274 0.00476999 0.00478729
0.00480475 0.00482221 0.00483969 0.00485718 0.0048747 0.0048924 0.0049101 0.00492781 0.00494554 0.00496329
0.00498122 0.00499916 0.00501711 0.00503507 0.00505306 0.00507123 0.0050894 0.00510759 0.00512579 0.00514402
0.00516242 0.00518083 0.00519926 0.0052177 0.00523617 0.00525481 0.00527346 0.00529213 0.00531081 0.00532952
0.00534839 0.00536729 0.0053862 0.00540512 0.00542407 0.00544319 0.00546233 0.00548148 0.00550065 0.00551984
0.0055392 0.00555858 0.00557798 0.0055974 0.00561683 0.00563644 0.00565607 0.00567571 0.00569537 0.00571505
0.00573491 0.00575478 0.00577467 0.00579458 0.00581451 0.00583009 0.00584567 0.00586127 0.00587688 0.00589195
0.0058966 0.00590126 0.00590591 0.00591057 0.00591523 0.00593558 0.00595596 0.00597635 0.00599676 0.00601719
0.0060378 0.00605843 0.00607908 0.00609974 0.00612043 0.00614129 0.00616218 0.00618308 0.00620401 0.00622495
0.00624608 0.00626722 0.00628838 0.00630957 0.00633077 0.00635215 0.00637356 0.00639498 0.00641643 0.0064379
0.00645954 0.00648121 0.00650289 0.0065246 0.00654633 0.00656824 0.00659017 0.00661213 0.0066341 0.0066561
0.00667827 0.00670047 0.00672269 0.00674494 0.0067672 0.00678964 0.00681211 0.0068346 0.00685712 0.00687965
0.00690236 0.0069251 0.00694787 0.00697066 0.00699346 0.00701645 0.00703947 0.00706251 0.00708558 0.00710866
0.00713193 0.00715522 0.00717854 0.00720189 0.00722525 0.00724879 0.00727237 0.00729598 0.0073196 0.00734324
0.00736707 0.00739094 0.00741483 0.00743874 0.00746266 0.00748679 0.00751094 0.00753512 0.00755932 0.00758353
0.00760795 0.00763239 0.00765687 0.00768136 0.00770586 0.00773058 0.00775532 0.00778009 0.00780487 0.00782968
0.00785469 0.00787974 0.00790481 0.00792989 0.007955 0.00798032 0.00800567 0.00803104 0.00805644 0.00808185
0.00810748 0.00813314 0.00815882 0.00818453 0.00821025 0.0082362 0.00826218 0.00828817 0.00831419 0.00834024
0.00835625 0.00837228 0.00838832 0.00840436 0.00841975 0.00843017 0.00844058 0.008451 0.00846143 0.00847186
0.00849845 0.00852508 0.00855172 0.0085784 0.0086051 0.00863203 0.00865898 0.00868597 0.00871298 0.00874002
0.00876729 0.00879459 0.00882192 0.00884928 0.00887666 0.00890428 0.00893192 0.00895961 0.00898731 0.00901505
0.00904302 0.00907102 0.00909906 0.00912713 0.00915522 0.00918355 0.00921191 0.00924032 0.00926876 0.00929722
0.00932591 0.00935465 0.00938343 0.00941224 0.00944107 0.00947014 0.00949926 0.00952842 0.00955761 0.00958682
0.00961628 0.00964579 0.00967534 0.00970492 0.00973453 0.00976438 0.00979428 0.00982423 0.00985421 0.00988421
0.00991448 0.00994479 0.00997514 0.0100055 0.0100359 0.0100666 0.0100974 0.0101281 0.0101589 0.0101898
0.0102209 0.010252 0.0102832 0.0103144 0.0103457 0.0103518 0.010358 0.0103641 0.0103702 0.0103762
0.0104017 0.0104272 0.0104528 0.0104783 0.0105039 0.0105359 0.010568 0.0106001 0.0106322 0.0106644
0.0106969 0.0107294 0.010762 0.0107946 0.0108273 0.0108603 0.0108933 0.0109264 0.0109595 0.0109927
0.0110261 0.0110596 0.0110932 0.0111269 0.0111606 0.0111945 0.0112286 0.0112627 0.0112969 0.0113311
0.0113656 0.0114002 0.0114349 0.0114696 0.0115043 0.0115394 0.0115746 0.0116098 0.011645 0.0116804
0.011716 0.0117518 0.0117876 0.0118234 0.0118593 0.011869 0.0118787 0.0118884 0.0118981 0.0119076
0.0119343 0.011961 0.0119878 0.0120145 0.0120414 0.0120782 0.0121152 0.0121522 0.0121892 0.0122264
0.0122639 0.0123015 0.0123391 0.0123768 0.0124146 0.0124527 0.012491 0.0125293 0.0125676 0.0126061
0.0126449 0.0126838 0.0127228 0.0127619 0.0128011 0.0128406 0.0128802 0.0129199 0.0129597 0.0129996
0.0130399 0.0130803 0.0131207 0.0131613 0.0132019 0.0132237 0.0132454 0.0132672 0.0132891 0.0133101
0.0133297 0.0133493 0.0133689 0.0133886 0.0134083 0.0134501 0.0134921 0.0135341 0.0135763 0.0136185
0.0136612 0.013704 0.0137469 0.0137898 0.013833 0.0138765 0.0139201 0.0139639 0.0140078 0.0140518
0.0140962 0.0141408 0.0141855 0.0142303 0.0142752 0.0143206 0.0143661 0.0144118 0.0144575 0.0145034
0.0145338 0.0145642 0.0145947 0.0146253 0.0146546 0.014671 0.0146875 0.0147039 0.0147204 0.0147369
0.0147843 0.0148319 0.0148796 0.0149274 0.0149754 0.0150239 0.0150725 0.0151213 0.0151702 0.0152193
0.0152689 0.0153187 0.0153686 0.0154187 0.015469 0.0155198 0.0155707 0.0156218 0.0156731 0.0157246
0.0157766 0.0158289 0.0158812 0.0159338 0.0159866 0.0159875 0.0159885 0.0159894 0.0159904 0.0159914
0.0160438 0.0160963 0.016149 0.016202 0.0162551 0.0163097 0.0163646 0.0164196 0.0164749 0.0165303
0.0165864 0.0166427 0.0166991 0.0167558 0.0168127 0.0168703 0.016928 0.016986 0.0170441 0.0171026
0.0171547 0.0172071 0.0172596 0.0173123 0.017363 0.0173705 0.0173779 0.0173854 0.0173929 0.0174004
0.0174611 0.017522 0.0175832 0.0176445 0.0177062 0.0177686 0.0178311 0.017894 0.017957 0.0180204
0.0180845 0.0181488 0.0182134 0.0182783 0.0183434 0.0184093 0.0184755 0.0185419 0.0186086 0.0186756
0.0187028 0.01873 0.0187572 0.0187845 0.0188115 0.0188526 0.0188937 0.018935 0.0189763 0.0190178
0.0190876 0.0191576 0.0192279 0.0192986 0.0193695 0.0194413 0.0195134 0.0195857 0.0196584 0.0197315
0.0198053 0.0198795 0.0199541 0.0200289 0.0201041 0.0201595 0.020215 0.0202708 0.0203267 0.0203818
0.0204031 0.0204243 0.0204456 0.0204669 0.0204882 0.0205666 0.0206453 0.0207243 0.0208037 0.0208834
0.0209641 0.0210451 0.0211265 0.0212082 0.0212904 0.0213735 0.0214569 0.0215408 0.021625 0.0217096
0.0217917 0.0218743 0.0219572 0.0220404 0.0221231 0.0221268 0.0221305 0.0221342 0.0221379 0.0221416
0.0222298 0.0223184 0.0224074 0.0224967 0.0225865 0.0226773 0.0227686 0.0228602 0.0229523 0.0230447
0.0231383 0.0232323 0.0233267 0.0234215 0.0235167 0.0236131 0.0237099 0.0238071 0.0239048 0.0240029
0.0240216 0.0240403 0.024059 0.0240778 0.0240965 0.0241774 0.0242586 0.0243401 0.0244219 0.0245039
0.0246061 0.0247088 0.0248118 0.0249154 0.0250193 0.0251245 0.0252302 0.0253363 0.0254428 0.0255498
0.0256581 0.0257669 0.0258761 0.0259858 0.0260959 0.0261518 0.0262078 0.026264 0.0263203 0.026377
0.0264331 0.0264892 0.0265455 0.0266019 0.0266584 0.026773 0.0268882 0.0270037 0.0271198 0.0272363
0.0273541 0.0274725 0.0275913 0.0277106 0.0278304 0.0279515 0.0280732 0.0281953 0.028318 0.028441
0.0285605 0.0286805 0.0288009 0.0289217 0.029045 0.0290498 0.0290545 0.0290592 0.029064 0.0290687
0.0291967 0.0293252 0.0294541 0.0295835 0.0297134 0.0298447 0.0299765 0.0301088 0.0302417 0.0303749
0.0305096 0.0306449 0.0307807 0.0309169 0.0310536 0.0311917 0.0313305 0.0314697 0.0316094 0.0317495
0.0318312 0.031913 0.031995 0.0320772 0.0321601 0.0322206 0.0322812 0.0323419 0.0324027 0.0324635
0.0326087 0.0327545 0.0329007 0.0330475 0.0331947 0.0333434 0.0334928 0.0336426 0.033793 0.0339438
0.0340961 0.034249 0.0344024 0.0345564 0.0347107 0.0348666 0.0350232 0.0351801 0.0353376 0.0354955
0.0355036 0.0355117 0.0355198 0.0355278 0.0355359 0.0356876 0.0358396 0.0359921 0.036145 0.0362984
0.0364615 0.0366252 0.0367893 0.036954 0.037119 0.0372857 0.0374529 0.0376206 0.0377888 0.0379574
0.0381276 0.0382984 0.0384696 0.0386413 0.0388134 0.0388763 0.0389393 0.0390023 0.0390654 0.0391282
0.0392397 0.0393514 0.0394633 0.0395753 0.0396876 0.0398649 0.0400427 0.0402209 0.0403996 0.0405786
0.0407593 0.0409405 0.0411222 0.0413043 0.0414868 0.0416709 0.0418555 0.0420405 0.0422258 0.0424116
0.0424837 0.0425558 0.0426279 0.0427001 0.0427716 0.0428876 0.0430038 0.0431202 0.0432367 0.0433533
0.043544 0.0437351 0.0439265 0.0441183 0.0443104 0.0445041 0.0446982 0.0448927 0.0450875 0.0452825
0.0454792 0.0456762 0.0458735 0.0460709 0.0462688 0.0462822 0.0462957 0.0463092 0.0463226 0.0463361
0.0465222 0.0467085 0.0468949 0.0470815 0.0472683 0.0474703 0.0476724 0.0478748 0.0480773 0.0482799
0.048484 0.0486883 0.0488928 0.0490973 0.0493019 0.049399 0.0494962 0.0495934 0.0496906 0.0497874
0.0498964 0.0500055 0.0501146 0.0502236 0.0503327 0.0505404 0.050748 0.0509557 0.0511633 0.0513707
0.0515795 0.0517882 0.0519969 0.0522055 0.0524137 0.0525681 0.0527225 0.0528768 0.053031 0.0531886
0.0532427 0.0532969 0.053351 0.0534051 0.0534591 0.0536691 0.0538787 0.054088 0.054297 0.0545054
0.0547151 0.0549244 0.0551334 0.055342 0.0555497 0.0557587 0.0559673 0.0561754 0.0563828 0.0565893
0.0566189 0.0566485 0.056678 0.0567075 0.0567378 0.0569153 0.0570925 0.0572691 0.0574453 0.0576207
0.0578266 0.0580319 0.0582365 0.0584403 0.0586424 0.0588373 0.0590315 0.0592251 0.0594177 0.0596088
0.0596757 0.0597425 0.0598092 0.0598758 0.0599458 0.0600745 0.0602027 0.0603305 0.0604577 0.0605842
0.0607834 0.0609815 0.0611782 0.0613737 0.0615675 0.0617677 0.0619666 0.0621639 0.0623598 0.0625539
0.0625633 0.0625726 0.0625819 0.0625912 0.0626006 0.0627912 0.0629804 0.0631681 0.0633543 0.0635389
0.0637385 0.0639364 0.0641326 0.064327 0.0645195 0.0647178 0.0649142 0.0651088 0.0653016 0.0654924
0.0655267 0.0655611 0.0655953 0.0656295 0.0656654 0.0658256 0.0659846 0.0661423 0.0662987 0.0664538
0.066648 0.0668402 0.0670304 0.0672187 0.0674051 0.0675969 0.0677865 0.0679742 0.0681599 0.0683438
0.0685329 0.0687199 0.068905 0.0690881 0.0692694 0.0693231 0.0693768 0.0694302 0.0694835 0.0695419
0.0696713 0.0697998 0.0699273 0.0700539 0.0701796 0.0703633 0.070545 0.0707248 0.0709027 0.0710788
0.07126 0.0714392 0.0716164 0.0717918 0.0719656 0.0721444 0.0723212 0.0724961 0.0726691 0.0728407
0.0730172 0.0731917 0.0733645 0.0735354 0.0737049 0.0738792 0.0740517 0.0742225 0.0743915 0.0745591
0.0747314 0.0749021 0.075071 0.0752383 0.0754041 0.0754632 0.0755221 0.0755808 0.0756392 0.0757061
0.075814 0.0759212 0.0760278 0.0761337 0.076239 0.0764081 0.0765754 0.0767412 0.0769054 0.0770681
0.0772357 0.0774015 0.0775658 0.0777286 0.0778899 0.0780563 0.0782211 0.0783842 0.0785458 0.0787059
0.0788706 0.0790333 0.0791943 0.079354 0.0795126 0.0796767 0.0798395 0.0800009 0.0801604 0.0803175
0.080478 0.0806355 0.0807901 0.0809435 0.081097 -9.99997e-06 -7.99997e-06 -5.99998e-06 -3.99998e-06 -1.99999e-06
0 2.96566e-05 5.93127e-05 8.89677e-05 0.000118621 0.000148273 0.000178656 0.000209037 0.000239415 0.000269789
0.000300159 0.00032931 0.000358456 0.000387597 0.000416733 0.000445864 0.000473826 0.000501783 0.000529736 0.000557683
0.000585626 0.000612448 0.000639266 0.000666079 0.000692889 0.000719694 0.000745423 0.000771149 0.000796871 0.00082259
0.000848304 0.000872987 0.000897666 0.000922342 0.000947014 0.000971683 0.000995362 0.00101904 0.00104271 0.00106638
0.00109005 0.00111277 0.00113548 0.00115819 0.0011809 0.00120361 0.00122541 0.0012472 0.00126899 0.00129078
0.00131257 0.00133349 0.0013544 0.00137531 0.00139621 0.00141712 0.00143719 0.00145725 0.00147731 0.00149738
0.00151743 0.00153669 0.00155594 0.0015752 0.00159445 0.00161369 0.00163217 0.00165065 0.00166912 0.00168759
0.00170606 0.00172379 0.00174152 0.00175925 0.00177698 0.0017947 0.00181172 0.00182873 0.00184574 0.00186275
0.00187976 0.00189609 0.00191241 0.00192874 0.00194506 0.00196138 0.00197705 0.00199272 0.00200838 0.00202405
0.00203971 0.00205017 0.00206062 0.00207108 0.00208153 0.00209199 0.00210252 0.00211306 0.00212359 0.00213412
0.00214465 0.00215527 0.00216588 0.00217649 0.0021871 0.00219772 0.00220841 0.0022191 0.00222979 0.00224048
0.00225117 0.00226195 0.00227272 0.00228349 0.00229426 0.00230503 0.00231589 0.00232674 0.0023376 0.00234845
0.0023593 0.00237024 0.00238117 0.00239211 0.00240304 0.00241397 0.00242499 0.00243601 0.00244703 0.00245805
0.00246906 0.00248017 0.00249127 0.00250237 0.00251347 0.00252457 0.00253576 0.00254694 0.00255813 0.00256931
0.0025805 0.00259177 0.00260304 0.00261431 0.00262558 0.00263685 0.00264821 0.00265957 0.00267092 0.00268228
0.00269363 0.00270508 0.00271652 0.00272797 0.00273941 0.00275085 0.00276238 0.00277392 0.00278545 0.00279698
0.00280851 0.00282013 0.00283175 0.00284337 0.00285499 0.00286661 0.00287832 0.00289002 0.00290173 0.00291344
0.00292515 0.00293695 0.00294875 0.00296055 0.00297234 0.00298414 0.00299603 0.00300792 0.00301981 0.0030317
0.00304359 0.00305557 0.00306755 0.00307953 0.00309151 0.00310349 0.00311556 0.00312763 0.00313971 0.00315178
0.00316385 0.00317602 0.00318818 0.00320035 0.00321251 0.00322468 0.00323694 0.00324919 0.00326145 0.00327371
0.00328597 0.00329832 0.00331068 0.00332303 0.00333538 0.00334773 0.00336018 0.00337263 0.00338508 0.00339753
0.00340997 0.00342252 0.00343506 0.0034476 0.00346015 0.00347269 0.00348533 0.00349797 0.00351061 0.00352325
0.00353589 0.00354863 0.00356136 0.0035741 0.00358684 0.00359957 0.00361241 0.00362524 0.00363808 0.00365091
0.00366375 0.00367668 0.00368962 0.00370255 0.00371548 0.00372841 0.00373703 0.00374564 0.00375425 0.00376286
0.00377144 0.00377587 0.00378029 0.00378472 0.00378915 0.00379358 0.00380671 0.00381984 0.00383298 0.00384611
0.00385924 0.00387248 0.00388571 0.00389894 0.00391218 0.00392541 0.00393875 0.00395208 0.00396542 0.00397875
0.00399209 0.00400553 0.00401896 0.0040324 0.00404584 0.00405928 0.00407282 0.00408636 0.0040999 0.00411344
0.00412698 0.00414063 0.00415427 0.00416792 0.00418156 0.00419521 0.00420896 0.00422271 0.00423646 0.00425021
0.00426396 0.00427781 0.00429167 0.00430553 0.00431938 0.00433324 0.0043472 0.00436116 0.00437512 0.00438909
0.00440305 0.00441712 0.00443119 0.00444526 0.00445933 0.0044734 0.00448758 0.00450176 0.00451593 0.00453011
0.00454429 0.00455858 0.00457287 0.00458715 0.00460144 0.00461573 0.00463013 0.00464453 0.00465892 0.00467332
0.00468772 0.00470223 0.00471674 0.00473125 0.00474576 0.00476027 0.00477489 0.00478951 0.00480413 0.00481876
0.00483338 0.00484812 0.00486285 0.00487758 0.00489232 0.00490705 0.00492191 0.00493676 0.00495161 0.00496645
0.0049813 0.00499627 0.00501124 0.0050262 0.00504117 0.00505613 0.00507122 0.0050863 0.00510138 0.00511646
0.00513154 0.00514675 0.00516195 0.00517715 0.00519234 0.00520755 0.00522287 0.00523819 0.0052535 0.00526882
0.00528414 0.00529959 0.00531503 0.00533046 0.0053459 0.00536135 0.00537691 0.00539247 0.00540803 0.00542359
0.00543916 0.00545484 0.00547053 0.00548621 0.0055019 0.00551758 0.00553339 0.0055492 0.00556501 0.00558082
0.00559663 0.00561257 0.00562851 0.00564444 0.00566038 0.00567632 0.00569238 0.00570845 0.00572451 0.00574058
0.00575664 0.00577284 0.00578903 0.00580522 0.00582142 0.00583761 0.00583912 0.00584062 0.00584213 0.00584363
0.00584513 0.00585995 0.00587477 0.0058896 0.00590442 0.00591924 0.0059357 0.00595216 0.00596862 0.00598508
0.00600154 0.00601814 0.00603473 0.00605132 0.00606792 0.00608452 0.00610126 0.00611799 0.00613472 0.00615145
0.00616818 0.00618507 0.00620194 0.00621881 0.00623568 0.00625255 0.00626958 0.00628659 0.0063036 0.00632062
0.00633764 0.00635482 0.00637197 0.00638913 0.00640629 0.00642345 0.00644079 0.0064581 0.0064754 0.0064927
0.00651002 0.0065275 0.00654497 0.00656242 0.00657986 0.00659734 0.00661498 0.0066326 0.0066502 0.00666781
0.00668544 0.00670324 0.00672102 0.00673878 0.00675654 0.00677434 0.0067923 0.00681024 0.00682816 0.00684609
0.00686405 0.00688218 0.00690029 0.00691837 0.00693646 0.00695459 0.00697289 0.00699117 0.00700942 0.00702768
0.00704598 0.00706445 0.0070829 0.00710133 0.00711978 0.00713825 0.00715689 0.00717552 0.00719414 0.00721276
0.00723141 0.00725023 0.00726904 0.00728784 0.00730666 0.00732548 0.00734449 0.00736348 0.00738248 0.00740148
0.0074205 0.0074397 0.00745888 0.00747807 0.00749727 0.00751649 0.00753587 0.00755525 0.00757465 0.00759405
0.00761346 0.0076231 0.00763274 0.00764238 0.00765202 0.00766145 0.00767145 0.00768145 0.00769145 0.00770145
0.00771146 0.00773125 0.00775105 0.00777085 0.00779067 0.0078105 0.00783051 0.00785052 0.00787054 0.00789057
0.00791062 0.00793086 0.00795109 0.00797132 0.00799158 0.00801184 0.00803232 0.00805278 0.00807324 0.00809371
0.00811422 0.00813493 0.00815563 0.00817632 0.00819702 0.00821777 0.00823873 0.00825967 0.00828059 0.00830153
0.00832252 0.00834373 0.00836493 0.0083861 0.00840728 0.00842853 0.00844999 0.00847144 0.00849287 0.00851431
0.00853582 0.00855754 0.00857925 0.00860094 0.00862265 0.00864442 0.00866641 0.00868838 0.00871035 0.00873235
0.00875438 0.00877664 0.00879889 0.00882115 0.00884343 0.00886574 0.00888828 0.0089108 0.00893336 0.00895593
0.00897853 0.00900135 0.00902418 0.00904703 0.00906991 0.00909281 0.00909999 0.00910718 0.00911436 0.00912155
0.00912863 0.0091446 0.00916059 0.00917659 0.00919261 0.00920863 0.00923206 0.00925551 0.00927898 0.00930248
0.00932601 0.00934976 0.00937353 0.00939733 0.00942115 0.00944501 0.0094691 0.0094932 0.00951733 0.00954148
0.00956568 0.00959012 0.00961457 0.00963903 0.00966352 0.00968807 0.00971286 0.00973766 0.00976248 0.00978732
0.00981223 0.00983738 0.00986255 0.00988773 0.00991294 0.00993821 0.00996374 0.00998928 0.0100148 0.0100404