/*--------------------------------*- C++ -*----------------------------------*\
  =========                 |
  \\      /  F ield         | OpenFOAM: The Open Source CFD Toolbox
   \\    /   O peration     | Website:  https://openfoam.org
    \\  /    A nd           | Version:  10
     \\/     M anipulation  |
\*---------------------------------------------------------------------------*/
FoamFile
{
    format      ascii;
    class       volScalarField;
    location    "1";
    object      p;
}
// * * * * * * * * * * * * * * * * * * * * * * * * * * * * * * * * * * * * * //

dimensions      [1 -1 -2 0 0 0 0];

internalField   nonuniform List<scalar> 
16128
(
1
1
1
1
1
1
1
1
1
1
1
1
1
1
1
1
1
1
1
1
1
1
1
1
1
1
1.26261
7.45021
10.668
10.8446
11.0233
11.1914
11.3595
11.5033
11.5963
11.6492
11.6711
11.6768
11.7085
11.78
11.8716
11.9422
11.9967
12.053
12.1163
12.1765
12.2053
12.2309
1
1
1
1
1
1
1
1
1
1
1
1
1
1
1
1
1
1
1
1
1
1
1
1
1
1
1.23697
7.34056
10.6617
10.8433
11.035
11.2014
11.3608
11.4961
11.5857
11.6393
11.6638
11.6727
11.7046
11.7724
11.8601
11.9312
11.9909
12.0488
12.1057
12.1588
12.1847
12.2119
1
1
1
1
1
1
1
1
1
1
1
1
1
1
1
1
1
1
1
1
1
1
1
1
1
1
1.16247
7.10268
10.6682
10.849
11.0489
11.2074
11.3519
11.4786
11.5671
11.6236
11.6515
11.6634
11.693
11.7561
11.8433
11.9206
11.9877
12.0435
12.0883
12.1336
12.1544
12.1768
1
1
1
1
1
1
1
1
1
1
1
1
1
1
1
1
1
1
1
1
1
1
1
1
1
1
1.037
6.78485
10.6965
10.865
11.0448
11.192
11.3266
11.45
11.5386
11.599
11.6303
11.645
11.6712
11.7289
11.8168
11.9014
11.9758
12.0297
12.0656
12.1002
12.1168
12.1457
1
1
1
1
1
1
1
1
1
1
1
1
1
1
1
1
1
1
1
1
1
1
1
1
1
1
1.0005
6.40911
10.6614
10.8567
11.0262
11.1647
11.2924
11.4131
11.5007
11.5651
11.5997
11.6165
11.6383
11.6885
11.7757
11.8666
11.9506
12.0136
12.0455
12.0672
12.0388
12.1087
1
1
1
1
1
1
1
1
1
1
1
1
1
1
1
1
1
1
1
1
1
1
1
1
1
1
1
5.92866
10.6028
10.8299
10.9881
11.1281
11.2528
11.3682
11.4513
11.5189
11.5585
11.5785
11.5975
11.6395
11.7226
11.8152
11.9053
11.9745
12.0027
12.0301
11.9755
12.0467
1
1
1
1
1
1
1
1
1
1
1
1
1
1
1
1
1
1
1
1
1
1
1
1
1
1
1
5.35323
10.4979
10.7867
10.9402
11.088
11.2109
11.3192
11.3955
11.4645
11.5101
11.5339
11.5524
11.586
11.6588
11.7456
11.8372
11.9121
11.9412
11.9753
11.926
12.0001
1
1
1
1
1
1
1
1
1
1
1
1
1
1
1
1
1
1
1
1
1
1
1
1
1
1
1
4.70579
10.3314
10.7406
10.8982
11.0471
11.1652
11.2652
11.3379
11.4055
11.4569
11.4815
11.5
11.5285
11.5892
11.6679
11.7531
11.8208
11.8474
11.8985
11.9113
11.8889
1
1
1
1
1
1
1
1
1
1
1
1
1
1
1
1
1
1
1
1
1
1
1
1
1
1
1
4.0156
10.0794
10.6961
10.8458
10.9911
11.1141
11.207
11.2843
11.3483
11.3988
11.419
11.437
11.4631
11.5139
11.5828
11.6562
11.7112
11.7302
11.7793
11.8065
11.8342
1
1
1
1
1
1
1
1
1
1
1
1
1
1
1
1
1
1
1
1
1
1
1
1
1
1
1
3.32784
9.70054
10.6547
10.7932
10.935
11.0614
11.1547
11.2339
11.2938
11.3308
11.3449
11.3579
11.3821
11.4283
11.4906
11.5523
11.591
11.6017
11.6487
11.6946
11.7213
1
1
1
1
1
1
1
1
1
1
1
1
1
1
1
1
1
1
1
1
1
1
1
1
1
1
1
2.63622
9.16192
10.6144
10.7351
10.8708
10.9899
11.0831
11.166
11.2296
11.2543
11.2611
11.2669
11.2864
11.325
11.3795
11.4301
11.4531
11.4592
11.4985
11.5469
11.5603
1
1
1
1
1
1
1
1
1
1
1
1
1
1
1
1
1
1
1
1
1
1
1
1
1
1
1
1.91674
8.43956
10.618
10.6722
10.8017
10.9059
11.0064
11.0967
11.1617
11.1789
11.168
11.1589
11.166
11.194
11.2432
11.293
11.3142
11.3195
11.3338
11.3572
11.3276
1
1
1
1
1
1
1
1
1
1
1
1
1
1
1
1
1
1
1
1
1
1
1
1
1
1
1
1.28264
7.5741
10.6698
10.66
10.782
10.8672
10.9418
11.0059
11.0518
11.0703
11.0612
11.0463
11.0371
11.0456
11.0824
11.1257
11.1376
11.1307
11.1105
11.1041
11.0487
1
1
1
1
1
1
1
1
1
1
1
1
1
1
1
1
1
1
1
1
1
1
1
1
1
1
1
1.01255
6.45919
10.3944
10.4656
10.6205
10.7366
10.8322
10.9055
10.9497
10.9712
10.9625
10.9371
10.9025
10.8828
10.8972
10.9262
10.9295
10.9136
10.8611
10.7924
10.6611
1
1
1
1
1
1
1
1
1
1
1
1
1
1
1
1
1
1
1
1
1
1
1
1
1
1
1
1.00004
5.10927
10.1434
10.4169
10.5525
10.6482
10.7236
10.7914
10.8359
10.8642
10.8627
10.8318
10.7739
10.7221
10.7043
10.7038
10.6776
10.6124
10.4702
10.2792
10.1397
1
1
1
1
1
1
1
1
1
1
1
1
1
1
1
1
1
1
1
1
1
1
1
1
1
1
1
1
3.69282
9.62492
10.3429
10.4713
10.5599
10.6181
10.6723
10.7108
10.7412
10.7446
10.709
10.6322
10.5483
10.4887
10.4404
10.3605
10.2374
10.0479
9.74728
9.63604
1
1
1
1
1
1
1
1
1
1
1
1
1
1
1
1
1
1
1
1
1
1
1
1
1
1
1
1
2.32197
8.84785
10.3771
10.4113
10.4751
10.5128
10.5451
10.5659
10.583
10.5809
10.5418
10.4556
10.3499
10.2536
10.1557
10.0262
9.80362
9.44415
8.52206
6.45397
1
1
1
1
1
1
1
1
1
1
1
1
1
1
1
1
1
1
1
1
1
1
1
1
1
1
1
1
1.26007
7.63361
10.4229
10.3762
10.404
10.4285
10.4467
10.4503
10.4461
10.4258
10.3728
10.2732
10.1403
10.0031
9.85038
9.65092
9.30606
8.69419
7.70703
5.4347
1
1
1
1
1
1
1
1
1
1
1
1
1
1
1
1
1
1
1
1
1
1
1
1
1
1
1
1
1.00723
5.99319
9.94579
10.1333
10.2317
10.2727
10.2977
10.3067
10.3017
10.2767
10.2148
10.1086
9.95221
9.77072
9.55195
9.27332
8.84228
8.20048
7.02945
5.14886
1
1
1
1
1
1
1
1
1
1
1
1
1
1
1
1
1
1
1
1
1
1
1
1
1
1
1
1
1
4.14828
9.50374
10.0782
10.1462
10.1877
10.2046
10.1973
10.1728
10.1245
10.0423
9.92759
9.75804
9.54727
9.27824
8.93803
8.44855
7.78089
6.60239
5.13885
1
1
1
1
1
1
1
1
1
1
1
1
1
1
1
1
1
1
1
1
1
1
1
1
1
1
1
1
0.999999
2.39269
8.76576
10.027
10.0509
10.0887
10.0895
10.0678
10.0266
9.96039
9.86396
9.74219
9.56671
9.33732
9.03262
8.64562
8.13499
7.45424
6.39331
5.22344
1
1
1
1
1
1
1
1
1
1
1
1
1
1
1
1
1
1
1
1
1
1
1
1
1
1
1
1
1
1.16889
7.27931
10.0374
9.96283
9.98615
9.96922
9.92463
9.8619
9.7789
9.6758
9.55319
9.3807
9.14625
8.82021
8.40806
7.8848
7.22151
6.31074
5.35469
1
1
1
1
1
1
1
1
1
1
1
1
1
1
1
1
1
1
1
1
1
1
1
1
1
1
1
1
1
1.00271
5.22429
9.54026
9.82135
9.88114
9.86535
9.80596
9.72742
9.62563
9.50888
9.37367
9.19733
8.96084
8.63191
8.21109
7.67618
7.04793
6.27732
5.45608
1
1
1
1
1
1
1
1
1
1
1
1
1
1
1
1
1
1
1
1
1
1
1
1
1
1
1
1
1
0.99999
2.92914
8.89881
9.72728
9.75246
9.73133
9.66288
9.57948
9.46865
9.34515
9.2002
9.02209
8.78016
8.47265
8.04659
7.52066
6.94204
6.2785
5.57521
1
1
1
1
1
1
1
1
1
1
1
1
1
1
1
1
1
1
1
1
1
1
1
1
1
1
1
1
1
0.999998
1.26711
7.44009
9.73051
9.64096
9.6038
9.53408
9.44735
9.32939
9.20244
9.04863
8.85793
8.61196
8.30438
7.89589
7.40149
6.87466
6.27899
5.66717
1
1
1
1
1
1
1
1
1
1
1
1
1
1
1
1
1
1
1
1
1
1
1
1
1
1
1
1
1
1
1.0064
5.13997
9.22267
9.47664
9.5026
9.43739
9.34509
9.23006
9.09436
8.92927
8.71607
8.46334
8.14358
7.76362
7.31915
6.83592
6.29537
5.76232
1
1
1
1
1
1
1
1
1
1
1
1
1
1
1
1
1
1
1
1
1
1
1
1
1
1
1
1
1
1
0.99998
2.54704
8.57986
9.47583
9.41798
9.317
9.20981
9.09757
8.95407
8.78885
8.56861
8.31381
7.99703
7.64059
7.24281
6.79434
6.31117
5.82294
1
1
1
1
1
1
1
1
1
1
1
1
1
1
1
1
1
1
1
1
1
1
1
1
1
1
1
1
1
1
0.999996
1.16733
6.82118
9.34755
9.27008
9.18968
9.08687
8.97354
8.82455
8.65671
8.44003
8.1827
7.88078
7.54278
7.17451
6.7629
6.33297
5.87746
1
1
1
1
1
1
1
1
1
1
1
1
1
1
1
1
1
1
1
1
1
1
1
1
1
1
1
1
1
1
1
1.00211
3.98678
8.67364
9.10958
9.11267
9.02193
8.8992
8.73097
8.5491
8.33479
8.08091
7.79217
7.46912
7.11652
6.73593
6.34047
5.91995
1
1
1
1
1
1
1
1
1
1
1
1
1
1
1
1
1
1
1
1
1
1
1
1
1
1
1
1
1
1
1
0.999996
1.53408
7.58374
9.14622
9.0176
8.91325
8.78784
8.61553
8.44144
8.2352
7.99497
7.71939
7.41136
7.07234
6.71351
6.34053
5.95846
1
1
1
1
1
1
1
1
1
1
1
1
1
1
1
1
1
1
1
1
1
1
1
1
1
1
1
1
1
1
1
0.999999
1.02292
5.07868
8.64413
8.81545
8.77953
8.68432
8.52293
8.35106
8.158
7.93034
7.66476
7.36442
7.03415
6.68778
6.33302
5.98116
1
1
1
1
1
1
1
1
1
1
1
1
1
1
1
1
1
1
1
1
1
1
1
1
1
1
1
1
1
1
1
1
1.00001
2.05787
7.82537
8.90217
8.73505
8.60722
8.44542
8.26397
8.06187
7.83961
7.59098
7.31142
6.99947
6.66691
6.33078
5.99897
1
1
1
1
1
1
1
1
1
1
1
1
1
1
1
1
1
1
1
1
1
1
1
1
1
1
1
1
1
1
1
1
1
1.0775
5.60829
8.51553
8.54031
8.46531
8.34798
8.18735
7.98818
7.76609
7.52663
7.2633
6.97224
6.66059
6.34392
6.02597
1
1
1
1
1
1
1
1
1
1
1
1
1
1
1
1
1
1
1
1
1
1
1
1
1
1
1
1
1
1
1
1
1
1.00043
2.37537
7.7531
8.57897
8.41142
8.27984
8.12256
7.92539
7.70242
7.4635
7.20941
6.93768
6.64943
6.35243
6.04987
1
1
1
1
1
1
1
1
1
1
1
1
1
1
1
1
1
1
1
1
1
1
1
1
1
1
1
1
1
1
1
1
1
1
1.1228
5.65264
8.33649
8.27532
8.16704
8.02326
7.8496
7.64578
7.4168
7.17091
6.91035
6.63855
6.35962
6.07589
1
1
1
1
1
1
1
1
1
1
1
1
1
1
1
1
1
1
1
1
1
1
1
1
1
1
1
1
1
1
1
1
1
1
1.00114
2.3512
7.49353
8.30414
8.14069
7.97428
7.8027
7.60755
7.3843
7.14249
6.88944
6.62896
6.36421
6.09493
1
1
1
1
1
1
1
1
1
1
1
1
1
1
1
1
1
1
1
1
1
1
1
1
1
1
1
1
1
1
1
1
1
1
1
1.11952
5.32611
8.08257
8.05022
7.8966
7.73309
7.54652
7.33819
7.11205
6.87363
6.62638
6.37457
6.11711
1
1
1
1
1
1
1
1
1
1
1
1
1
1
1
1
1
1
1
1
1
1
1
1
1
1
1
1
1
1
1
1
1
1
1
1.00117
2.15555
7.05499
8.06238
7.88178
7.70553
7.51584
7.31728
7.10303
6.87661
6.63956
6.39469
6.14363
1
1
1
1
1
1
1
1
1
1
1
1
1
1
1
1
1
1
1
1
1
1
1
1
1
1
1
1
1
1
1
1
1
1
1
1
1.08876
4.56672
7.73261
7.81751
7.64218
7.45623
7.26584
7.06822
6.86094
6.64349
6.41477
6.17601
1
1
1
1
1
1
1
1
1
1
1
1
1
1
1
1
1
1
1
1
1
1
1
1
1
1
1
1
1
1
1
1
1
1
1
1
1.00086
1.7824
6.40028
7.88023
7.65113
7.46772
7.26776
7.06536
6.85691
6.64373
6.42609
6.20224
1
1
1
1
1
1
1
1
1
1
1
1
1
1
1
1
1
1
1
1
1
1
1
1
1
1
1
1
1
1
1
1
1
1
1
1
1
1.04134
3.37682
7.20006
7.59905
7.41656
7.23007
7.0318
6.8315
6.62834
6.42492
6.2187
1
1
1
1
1
1
1
1
1
1
1
1
1
1
1
1
1
1
1
1
1
1
1
1
1
1
1
1
1
1
1
1
1
1
1
1
1
1.00032
1.35167
5.32949
7.57854
7.43926
7.25552
7.05092
6.84691
6.64263
6.44003
6.23818
1
1
1
1
1
1
1
1
1
1
1
1
1
1
1
1
1
1
1
1
1
1
1
1
1
1
1
1
1
1
1
1
1
1
1
1
1
1
1.00945
2.29851
6.5417
7.49594
7.25773
7.07147
6.86812
6.67057
6.47201
6.27214
1
1
1
1
1
1
1
1
1
1
1
1
1
1
1
1
1
1
1
1
1
1
1
1
1
1
1
1
1
1
1
1
1
1
1
1
1
1
1.00005
1.10766
3.79956
6.98122
7.25156
7.05298
6.86463
6.6678
6.47076
6.27366
1
1
1
1
1
1
1
1
1
1
1
1
1
1
1
1
1
1
1
1
1
1
1
1
1
1
1
1
1
1
1
1
1
1
1
1
1
1
1
1.00147
1.48973
5.22329
7.20737
7.09512
6.90676
6.71157
6.51479
6.31407
1
1
1
1
1
1
1
1
1
1
1
1
1
1
1
1
1
1
1
1
1
1
1
1
1
1
1
1
1
1
1
1
1
1
1
1
1
1
1
1
1.01759
2.29851
6.15104
7.13674
6.9449
6.75135
6.56303
6.36835
1
1
1
1
1
1
1
1
1
1
1
1
1
1
1
1
1
1
1
1
1
1
1
1
1
1
1
1
1
1
1
1
1
1
1
1
1
1
1
1
1.00012
1.10884
3.37783
6.62605
6.97543
6.77912
6.58287
6.39567
1
1
1
1
1
1
1
1
1
1
1
1
1
1
1
1
1
1
1
1
1
1
1
1
1
1
1
1
1
1
1
1
1
1
1
1
1
1
1
1
1
1.00162
1.35783
4.52187
6.68458
6.81296
6.60928
6.42472
1
1
1
1
1
1
1
1
1
1
1
1
1
1
1
1
1
1
1
1
1
1
1
1
1
1
1
1
1
1
1
1
1
1
1
1
1
1
1
1
1
1.00001
1.01064
1.84526
5.29721
6.73716
6.66745
6.4779
1
1
1
1
1
1
1
1
1
1
1
1
1
1
1
1
1
1
1
1
1
1
1
1
1
1
1
1
1
1
1
1
1
1
1
1
1
1
1
1
1
1
1.00006
1.04818
2.48715
5.80428
6.64807
6.5397
1
1
1
1
1
1
1
1
1
1
1
1
1
1
1
1
1
1
1
1
1
1
1
1
1
1
1
1
1
1
1
1
1
1
1
1
1
1
1
1
1
1
1
1.00051
1.14346
3.1937
6.08247
6.53582
1
1
1
1
1
1
1
1
1
1
1
1
1
1
1
1
1
1
1
1
1
1
1
1
1
1
1
1
1
1
1
1
1
1
1
1
1
1
1
1
1
1
1
1
1.00263
1.31857
3.84525
6.2102
1
1
1
1
1
1
1
1
1
1
1
1
1
1
1
1
1
1
1
1
1
1
1
1
1
1
1
1
1
1
1
1
1
1
1
1
1
1
1
1
1
1
1
1
1.00001
1.00926
1.56764
4.40931
1
1
1
1
1
1
1
1
1
1
1
1
1
1
1
1
1
1
1
1
1
1
1
1
1
1
1
1
1
1
1
1
1
1
1
1
1
1
1
1
1
1
1
1
1
1.00006
1.02486
1.87969
1
1
1
1
1
1
1
1
1
1
1
1
1
1
1
1
1
1
1
1
1
1
1
1
1
1
1
1
1
1
1
1
1
1
1
1
1
1
1
1
1
1
1
1
1
1
1.00022
1.05492
1
1
1
1
1
1
1
1
1
1
1
1
1
1
1
1
1
1
1
1
1
1
1
1
1
1
1
1
1
1
1
1
1
1
1
1
1
1
1
1
1
1
1
1
1
1
1
1.00066
1
1
1
1
1
1
1
1
1
1
1
1
1
1
1
1
1
1
1
1
1
1
1
1
1
1
1
1
1
1
1
1
1
1
1
1
1
1
1
1
1
1
1
1
1
1
1
1
1
1
1
1
1
1
1
1
1
1
1
1
1
1
1
1
1
1
1
1
1
1
1
1
1
1
1
1
1
1
1
1
1
1
1
1
1
1
1
1
1
1
1
1
1
1
1
1
1
1
1
1
1
1
1
1
1
1
1
1
1
1
1
1
1
1
1
1
1
1
1
1
1
1
1
1
1
1
1
1
1
1
1
1
1
1
1
1
1
1
1
1
1
1
1
1
1
1
1
1
1
1
1
1
1
1
1
1
1
1
1
1
1
1
1
1
1
1
1
1
1
1
1
1
1
1
1
1
1
1
1
1
1
1
1
1
1
1
1
1
1
1
1
1
1
1
1
1
1
1
1
1
1
1
1
1
1
1
1
1
1
1
1
1
1
1
1
1
1
1
1
1
1
1
1
1
1
1
1
1
1
1
1
1
1
1
1
1
1
1
1
1
1
1
1
1
1
1
1
1
1
1
1
1
1
1
1
1
1
1
1
1
1
1
1
1
1
1
1
1
1
1
1
1
1
1
1
1
1
1
1
1
1
1
1
1
1
1
1
1
1
1
1
1
1
1
1
1
1
1
1
1
1
1
1
1
1
1
1
1
1
1
1
1
1
1
1
1
1
1
1
1
1
1
1
1
1
1
1
1
1
1
1
1
1
1
1
1
1
1
1
1
1
1
1
1
1
1
1
1
1
1
1
1
1
1
1
1
1
1
1
1
1
1
1
1
1
1
1
1
1
1
1
1
1
1
1
1
1
1
1
1
1
1
1
1
1
1
1
1
1
1
1
1
1
1
1
1
1
1
1
1
1
1
1
1
1
1
1
1
1
1
1
1
1
1
1
1
1
1
1
1
1
1
1
1
1
1
1
1
1
1
1
1
1
1
1
1
1
1
1
1
1
1
1
1
1
1
1
1
1
1
1
1
1
1
1
1
1
1
1
1
1
1
1
1
1
1
1
1
1
1
1
1
1
1
1
1
1
1
1
1
1
1
1
1
1
1
1
1
1
1
1
1
1
1
1
1
1
1
1
1
1
1
1
1
1
1
1
1
1
1
1
1
1
1
1
1
1
1
1
1
1
1
1
1
1
1
1
1
1
1
1
1
1
1
1
1
1
1
1
1
1
1
1
1
1
1
1
1
1
1
1
1
1
1
1
1
1
1
1
1
1
1
1
1
1
1
1
1
1
1
1
1
1
1
1
1
1
1
1
1
1
1
1
1
1
1
1
1
1
1
1
1
1
1
1
1
1
1
1
1
1
1
1
1
1
1
1
1
1
1
1
1
1
1
1
1
1
1
1
1
1
1
1
1
1
1
1
1
1
1
1
1
1
1
1
1
1
1
1
1
1
1
1
1
1
1
1
1
1
1
1
1
1
1
1
1
1
1
1
1
1
1
1
1
1
1
1
1
1
1
1
1
1
1
1
1
1
1
1
1
1
1
1
1
1
1
1
1
1
1
1
1
1
1
1
1
1
1
1
1
1
1
1
1
1
1
1
1
1
1
1
1
1
1
1
1
1
1
1
1
1
1
1
1
1
1
1
1
1
1
1
1
1
1
1
1
1
1
1
1
1
1
1
1
1
1
1
1
1
1
1
1
1
1
1
1
1
1
1
1
1
1
1
1
1
1
1
1
1
1
1
1
1
1
1
1
1
1
1
1
1
1
1
1
1
1
1
1
1
1
1
1
1
1
1
1
1
1
1
1
1
1
1
1
1
1
1
1
1
1
1
1
1
1
1
1
1
1
1
1
1
1
1
1
1
1
1
1
1
1
1
1
1
1
1
1
1
1
1
1
1
1
1
1
1
1
1
1
1
1
1
1
1
1
1
1
1
1
1
1
1
1
1
1
1
1
1
1
1
1
1
1
1
1
1
1
1
1
1
1
1
1
1
1
1
1
1
1
1
1
1
1
1
1
1
1
1
1
1
1
1
1
1
1
1
1
1
1
1
1
1
1
1
1
1
1
1
1
1
1
1
1
1
1
1
1
1
1
1
1
1
1
1
1
1
1
1
1
1
1
1
1
1
1
1
1
1
1
1
1
1
1
1
1
1
1
1
1
1
1
1
1
1
1
1
1
1
1
1
1
1
1
1
1
1
1
1
1
1
1
1
1
1
1
1
1
1
1
1
1
1
1
1
1
1
1
1
1
1
1
1
1
1
1
1
1
1
1
1
1
1
1
1
1
1
1
1
1
1
1
1
1
1
1
1
1
1
1
1
1
1
1
1
1
1
1
1
1
1
1
1
1
1
1
1
1
1
1
1
1
1
1
1
1
1
1
1
1
1
1
1
1
1
1
1
1
1
1
1
1
1
1
1
1
1
1
1
1
1
1
1
1
1
1
1
1
1
1
1
1
1
1
1
1
1
1
1
1
1
1
1
1
1
1
1
1
1
1
1
1
1
1
1
1
1
1
1
1
1
1
1
1
1
1
1
1
1
1
1
1
1
1
1
1
1
1
1
1
1
1
1
1
1
1
1
1
1
1
1
1
1
1
1.27839
0.205385
0.0174998
0.0275269
0.0508096
0.0744618
0.106892
0.155099
0.231862
0.302865
0.346825
0.383031
0.440881
0.493063
0.536533
0.625785
0.75648
0.858285
0.878265
0.890416
0.927261
0.937754
0.929581
0.935979
0.956991
0.962019
0.968199
0.998003
1.03848
1.0578
1.0633
1.0682
1.06624
1.06241
1.0651
1.07865
1.08883
1.0952
1.09973
1.1123
1.12354
1.12806
1.12911
1.12447
1.11258
1.10648
1.10481
1.10234
1.10309
1.11378
1.12243
1.12441
1.12707
1.13042
1.13288
1.13037
1.12446
1.11497
1.09941
1.08339
1.07784
1.08081
1.08584
1.08686
1.08111
1.07041
1.05573
1.04101
1.03817
1.03736
1.03784
1.03838
1.03402
1.02907
1.03284
1.04075
1.03618
1.03401
1.03542
1.03497
1.02394
1.00554
0.995957
0.992712
0.989063
0.984256
0.981218
0.981231
0.986223
0.996513
1.00289
1.00682
1.00851
1.00495
0.99659
0.982555
0.96451
0.957161
0.955198
0.954433
0.956965
0.964657
0.966332
0.963416
0.956771
0.944382
0.92816
0.898586
0.871847
0.868662
0.869482
0.879584
0.899971
0.906434
0.903002
0.896194
0.889782
0.891381
0.906892
0.922306
0.926951
0.915526
0.892227
0.871142
0.853148
0.828865
0.770442
0.689867
0.680069
0.686852
0.701862
0.725923
0.754727
0.787013
0.816823
0.839445
0.859174
0.866323
0.863113
0.85712
0.849827
0.842006
0.83493
0.833538
0.838634
0.843698
0.845433
0.838523
0.827867
0.823123
0.821658
0.824659
0.836988
0.845102
0.847236
0.83836
0.826286
0.819666
0.814968
0.811384
0.818309
0.843095
0.872615
0.890684
0.897273
0.894224
0.883403
0.872573
0.86518
0.860896
0.865923
0.881699
0.902853
0.918227
0.919412
0.907231
0.893281
0.886267
0.885248
0.887186
0.881889
0.879587
0.887994
0.897975
0.904373
0.909241
0.913685
0.917053
0.918918
0.922572
0.938532
0.965497
2.14563
0.954792
0.373325
0.268008
0.240095
0.18165
0.138396
0.143693
0.167378
0.197797
0.225596
0.247836
0.286262
0.375039
0.430475
0.462472
0.521317
0.62819
0.69801
0.739384
0.789574
0.850081
0.891997
0.918384
0.939187
0.94482
0.960153
0.992078
1.0101
1.01478
1.01843
1.03744
1.06655
1.08194
1.08769
1.09406
1.1047
1.10648
1.10797
1.11837
1.13107
1.13278
1.13195
1.11907
1.10917
1.10894
1.10838
1.10954
1.11175
1.11698
1.12323
1.12825
1.12961
1.12802
1.12614
1.12013
1.11081
1.10169
1.09687
1.09519
1.09086
1.08735
1.0832
1.07635
1.07227
1.06611
1.05669
1.05117
1.05082
1.04849
1.0403
1.03095
1.02685
1.02851
1.04118
1.04502
1.04267
1.03716
1.03022
1.02274
1.01305
1.00408
0.994241
0.985344
0.981719
0.981246
0.984412
0.990157
0.995677
0.999712
1.00272
1.00586
1.00483
1.00114
0.993485
0.977514
0.962677
0.957392
0.957726
0.960318
0.961159
0.958551
0.953819
0.949358
0.947962
0.944539
0.925752
0.898142
0.891635
0.893055
0.895322
0.898031
0.898108
0.893356
0.886916
0.885352
0.895336
0.906226
0.906938
0.903082
0.898544
0.891427
0.879032
0.865014
0.856172
0.833748
0.769005
0.713459
0.696454
0.693609
0.700379
0.719257
0.74959
0.781431
0.81145
0.842159
0.864779
0.867118
0.861197
0.848434
0.839677
0.838821
0.847912
0.85613
0.858549
0.853711
0.83296
0.815642
0.811938
0.813309
0.82568
0.844808
0.853745
0.855392
0.851365
0.8322
0.811598
0.807734
0.811038
0.824773
0.852082
0.881343
0.890473
0.886521
0.864353
0.84885
0.843227
0.846528
0.869355
0.897121
0.911418
0.919159
0.920984
0.91835
0.899337
0.882713
0.878977
0.880483
0.886971
0.884643
0.87777
0.879789
0.891738
0.901952
0.904784
0.905127
0.905772
0.911247
0.925343
0.949191
0.962842
0.963774
2.8258
1.77033
1.05822
0.73003
0.602046
0.510113
0.393349
0.289573
0.265039
0.292835
0.29877
0.289698
0.296459
0.338118
0.366346
0.368538
0.373687
0.413576
0.503594
0.589949
0.646923
0.725662
0.801382
0.850539
0.892552
0.919236
0.946135
0.969701
0.996043
1.02074
1.03444
1.07169
1.09833
1.11112
1.11578
1.11693
1.11697
1.11022
1.10153
1.09865
1.09825
1.10264
1.10664
1.10909
1.11588
1.12615
1.1354
1.13895
1.14083
1.13875
1.12851
1.11672
1.1111
1.10788
1.10875
1.11396
1.11712
1.12301
1.13238
1.13376
1.12442
1.1025
1.07657
1.06737
1.06557
1.06123
1.05359
1.04692
1.04075
1.03414
1.03031
1.031
1.04119
1.05959
1.06993
1.06981
1.06236
1.0452
1.0204
1.00001
0.989253
0.984301
0.98314
0.985497
0.993463
1.00503
1.01564
1.02065
1.0204
1.01158
0.998678
0.989317
0.982688
0.979354
0.977323
0.975224
0.975485
0.976468
0.976943
0.975052
0.970123
0.960016
0.945478
0.939207
0.938875
0.933462
0.918927
0.911223
0.910166
0.907667
0.897723
0.88722
0.884453
0.884935
0.891809
0.909844
0.921835
0.921732
0.908213
0.880857
0.866448
0.862751
0.862468
0.863981
0.859387
0.839361
0.794826
0.743743
0.711415
0.701375
0.706362
0.730689
0.765681
0.789469
0.814072
0.835716
0.842386
0.840169
0.831709
0.829014
0.836748
0.853435
0.858004
0.855208
0.840081
0.820584
0.812401
0.812005
0.820182
0.844138
0.86334
0.867943
0.858777
0.827397
0.808449
0.802683
0.804498
0.820387
0.849723
0.871905
0.880144
0.873977
0.845228
0.828602
0.824876
0.832575
0.85466
0.892223
0.923081
0.931102
0.928194
0.910357
0.884315
0.865816
0.860274
0.860954
0.875001
0.892146
0.892974
0.889865
0.888626
0.894893
0.8981
0.894889
0.895126
0.89995
0.909657
0.926258
0.941808
0.950333
0.950949
0.940433
3.4591
2.51378
1.86215
1.32469
1.00032
0.869076
0.765402
0.63809
0.489347
0.448621
0.433607
0.394223
0.384197
0.393413
0.409122
0.407902
0.398186
0.394035
0.405932
0.434058
0.476257
0.547036
0.642144
0.72367
0.789955
0.839162
0.870741
0.884859
0.918044
0.963422
0.988671
1.02807
1.05588
1.08242
1.09526
1.0976
1.09797
1.09469
1.08846
1.08415
1.08605
1.09187
1.10147
1.11112
1.12071
1.12562
1.12704
1.12721
1.12708
1.12422
1.11582
1.10888
1.10729
1.10844
1.11522
1.12394
1.12978
1.13152
1.12739
1.11795
1.1029
1.07912
1.06212
1.05849
1.05796
1.05631
1.05187
1.04651
1.04156
1.03777
1.03897
1.0473
1.06248
1.06758
1.06384
1.0571
1.04586
1.02316
1.00233
0.992931
0.987696
0.985721
0.989337
1.00005
1.01022
1.01288
1.01092
1.00707
1.00073
0.988682
0.978937
0.974815
0.974135
0.977426
0.984148
0.989809
0.99138
0.989081
0.980619
0.969085
0.958811
0.947646
0.93623
0.932161
0.933722
0.928596
0.921906
0.920207
0.918227
0.910905
0.897428
0.88754
0.887571
0.893744
0.906631
0.914864
0.911465
0.90091
0.883996
0.865383
0.854332
0.85167
0.855991
0.861366
0.854169
0.836504
0.796907
0.75021
0.724851
0.721056
0.728627
0.759375
0.784373
0.794842
0.80769
0.817779
0.821832
0.821424
0.820249
0.826077
0.844429
0.853665
0.850675
0.838563
0.821106
0.813924
0.815577
0.827309
0.849388
0.862384
0.862485
0.853094
0.831814
0.80828
0.800622
0.80245
0.819006
0.849822
0.866088
0.868657
0.864107
0.842913
0.822577
0.820587
0.828242
0.855461
0.898075
0.92164
0.924313
0.917726
0.904726
0.878116
0.855409
0.852461
0.857362
0.875906
0.905162
0.912702
0.908904
0.903731
0.898654
0.89373
0.888364
0.889157
0.896084
0.90656
0.92013
0.93171
0.937006
0.939191
0.937926
0.930508
3.99221
3.09812
2.44088
1.95622
1.55868
1.2078
1.06209
0.9482
0.790174
0.651218
0.619245
0.588903
0.541391
0.529039
0.532972
0.522295
0.478554
0.444039
0.443109
0.456127
0.46881
0.478047
0.496417
0.526287
0.570816
0.62476
0.68118
0.723774
0.77686
0.860778
0.924207
0.97058
1.00627
1.03801
1.05657
1.06432
1.06865
1.07563
1.09428
1.1059
1.11397
1.12246
1.12394
1.12166
1.11704
1.10623
1.09936
1.09869
1.1026
1.10966
1.11384
1.11883
1.12562
1.12757
1.12495
1.12111
1.11698
1.11183
1.10442
1.09043
1.07129
1.06182
1.06063
1.06275
1.06858
1.0711
1.06824
1.06465
1.05964
1.05465
1.05425
1.05527
1.05414
1.05101
1.04514
1.03263
1.01766
1.0099
1.00654
1.00602
1.01063
1.01368
1.0145
1.0126
1.00696
0.999462
0.992401
0.984143
0.97677
0.974701
0.976508
0.981463
0.991627
1.00364
1.0088
1.00741
0.999266
0.984159
0.967786
0.953706
0.944212
0.937849
0.936387
0.937933
0.94384
0.940528
0.935422
0.929963
0.921121
0.909506
0.901777
0.900678
0.904384
0.911358
0.911855
0.905128
0.894253
0.878734
0.863307
0.856748
0.856192
0.858704
0.866781
0.861625
0.850074
0.831632
0.793647
0.757905
0.749424
0.750499
0.762733
0.785056
0.793057
0.794422
0.794134
0.801412
0.80688
0.811497
0.818197
0.832575
0.844326
0.843279
0.837354
0.828381
0.823569
0.826321
0.836588
0.853372
0.860578
0.857874
0.849164
0.831028
0.81159
0.807701
0.811953
0.825167
0.851298
0.866817
0.866575
0.856994
0.835188
0.822881
0.826082
0.836116
0.858391
0.896345
0.916826
0.916298
0.908188
0.893572
0.866389
0.850551
0.851067
0.85841
0.876289
0.907892
0.92156
0.918131
0.909057
0.90061
0.893302
0.887139
0.887094
0.893011
0.905028
0.917733
0.923761
0.926558
0.927819
0.928137
0.926824
0.929329
4.37627
3.56174
2.91127
2.43893
2.01843
1.61089
1.37765
1.23638
1.09626
0.911651
0.807632
0.77419
0.745389
0.699027
0.666982
0.648571
0.60056
0.538667
0.525892
0.525804
0.529077
0.522984
0.521008
0.524742
0.517009
0.513414
0.52152
0.54521
0.582814
0.657736
0.758368
0.827818
0.887712
0.929549
0.968858
0.998116
1.01986
1.04378
1.07187
1.10468
1.12322
1.12754
1.12376
1.11086
1.09867
1.08951
1.08736
1.08931
1.09641
1.11041
1.1226
1.12771
1.12736
1.122
1.11498
1.10839
1.10067
1.0899
1.07899
1.0685
1.0627
1.06157
1.065
1.07238
1.07786
1.0769
1.0736
1.06792
1.0607
1.05587
1.05232
1.0476
1.04099
1.03343
1.02534
1.01695
1.01223
1.01171
1.01791
1.02456
1.02326
1.01869
1.01193
1.00433
0.994469
0.981616
0.973019
0.968868
0.968595
0.973652
0.986362
1.00261
1.0134
1.01562
1.01206
1.00344
0.991659
0.974155
0.953516
0.941426
0.936344
0.935379
0.938596
0.948106
0.948288
0.94264
0.935219
0.925557
0.912994
0.906294
0.90566
0.907639
0.910736
0.910246
0.904148
0.894072
0.877106
0.859708
0.85211
0.851562
0.856817
0.869359
0.866668
0.854316
0.840896
0.821411
0.790013
0.772519
0.771558
0.775742
0.787625
0.794493
0.79583
0.788738
0.783308
0.790749
0.797111
0.803768
0.818086
0.836778
0.840799
0.837807
0.83135
0.830781
0.834901
0.842877
0.850601
0.852006
0.850514
0.847268
0.836626
0.816226
0.807331
0.811124
0.824441
0.849294
0.86355
0.863911
0.859241
0.842637
0.820692
0.820423
0.83128
0.856703
0.891492
0.906481
0.904946
0.900144
0.887649
0.861173
0.847381
0.849062
0.858382
0.880538
0.912288
0.924165
0.920561
0.911739
0.901218
0.887996
0.88204
0.88285
0.888698
0.899887
0.913619
0.920945
0.923602
0.925053
0.923871
0.92167
0.92263
0.931437
4.64323
3.92484
3.28805
2.82305
2.4164
2.01663
1.69748
1.5069
1.36988
1.22789
1.06406
0.948036
0.923932
0.879526
0.810731
0.776601
0.73955
0.673251
0.63633
0.631895
0.630237
0.620248
0.602094
0.579136
0.544098
0.521079
0.521791
0.529816
0.540001
0.553087
0.578218
0.612495
0.653899
0.712256
0.781455
0.853465
0.908867
0.964253
1.02291
1.07581
1.10261
1.11135
1.11258
1.10166
1.08186
1.08186
1.09041
1.0997
1.11377
1.1236
1.12141
1.11924
1.11604
1.10781
1.09845
1.09096
1.08412
1.07778
1.0713
1.06992
1.07199
1.07599
1.0752
1.07304
1.07117
1.06868
1.06488
1.06006
1.05488
1.05153
1.04821
1.043
1.03678
1.0303
1.02462
1.02237
1.02391
1.02906
1.02893
1.02286
1.01487
1.007
0.997733
0.987045
0.97968
0.975719
0.973273
0.973828
0.980222
0.992831
1.00397
1.0092
1.01037
1.00846
1.00349
0.99357
0.97759
0.961701
0.952353
0.948849
0.948
0.951859
0.957341
0.954546
0.94726
0.937764
0.926217
0.914879
0.90936
0.907794
0.908451
0.909859
0.909235
0.904144
0.894716
0.880006
0.867722
0.862215
0.861096
0.865043
0.874818
0.872108
0.859907
0.844601
0.832694
0.818382
0.798327
0.791366
0.79211
0.796885
0.799073
0.796185
0.78782
0.775076
0.77738
0.785869
0.794962
0.809312
0.830515
0.84043
0.841579
0.837618
0.837106
0.84016
0.843841
0.844875
0.843868
0.842056
0.838538
0.830303
0.820282
0.816838
0.81953
0.829818
0.850806
0.862715
0.862172
0.855775
0.840698
0.826252
0.827102
0.834981
0.8564
0.886708
0.897781
0.894969
0.888693
0.873637
0.857385
0.852509
0.855473
0.864222
0.887574
0.916025
0.924086
0.920251
0.912307
0.899376
0.883052
0.878174
0.878688
0.882608
0.893823
0.910151
0.919005
0.921925
0.923559
0.923203
0.922618
0.924741
0.929283
0.940755
4.87423
4.2157
3.63034
3.15948
2.73657
2.3467
2.06272
1.81861
1.6037
1.4822
1.33589
1.17589
1.10844
1.0618
0.98076
0.898009
0.847624
0.797508
0.755178
0.747057
0.738749
0.722193
0.699104
0.670347
0.626373
0.584541
0.575147
0.572854
0.569394
0.565643
0.57331
0.57372
0.568243
0.571076
0.587644
0.631877
0.707973
0.802176
0.901001
0.967801
1.0097
1.03551
1.05785
1.07062
1.07003
1.07482
1.09625
1.12093
1.13202
1.1282
1.11526
1.10354
1.0909
1.07998
1.07771
1.07923
1.08303
1.08498
1.08276
1.07942
1.07489
1.07311
1.07173
1.06887
1.06386
1.06076
1.05987
1.05814
1.05522
1.0523
1.04844
1.04251
1.03989
1.03857
1.0382
1.03703
1.03365
1.02871
1.02111
1.01167
1.00063
0.989944
0.982676
0.978836
0.977675
0.979516
0.984846
0.989898
0.993313
0.995407
0.997843
1.0004
1.00122
0.998035
0.990561
0.980811
0.96979
0.963348
0.962022
0.964002
0.967676
0.966168
0.961279
0.952155
0.94023
0.926044
0.916319
0.911478
0.90956
0.909341
0.909557
0.90875
0.904428
0.895261
0.882339
0.873338
0.87079
0.871961
0.877702
0.879169
0.874778
0.865934
0.849131
0.833941
0.827437
0.818558
0.808944
0.806112
0.806509
0.804943
0.799195
0.789261
0.771873
0.76605
0.772617
0.784553
0.803108
0.82768
0.840781
0.844168
0.843252
0.838047
0.835315
0.8359
0.836316
0.835933
0.83484
0.830871
0.821768
0.814257
0.813582
0.818736
0.833252
0.855032
0.864726
0.864155
0.856937
0.839302
0.821988
0.821383
0.830991
0.855371
0.882056
0.889919
0.887834
0.88266
0.866509
0.851121
0.84981
0.855279
0.870047
0.896757
0.916892
0.920341
0.917339
0.909956
0.893777
0.879398
0.876566
0.877269
0.882173
0.895124
0.912176
0.919881
0.921628
0.920646
0.918829
0.92014
0.922432
0.927159
0.936009
0.944574
5.04484
4.4463
3.92401
3.46022
3.0302
2.66027
2.37284
2.12188
1.8755
1.72892
1.58543
1.40582
1.28196
1.2182
1.15065
1.07042
0.995744
0.916939
0.870872
0.865058
0.848897
0.826288
0.796735
0.754353
0.701749
0.664074
0.656429
0.653211
0.644803
0.632713
0.617138
0.594556
0.569414
0.564365
0.56516
0.571303
0.588507
0.622556
0.685649
0.763644
0.821397
0.867011
0.911527
0.958369
0.997608
1.03052
1.07712
1.11511
1.12115
1.12035
1.10934
1.08366
1.06345
1.0618
1.06553
1.07591
1.09151
1.0949
1.0915
1.08266
1.07071
1.06685
1.06561
1.06403
1.06281
1.06481
1.06648
1.0646
1.06032
1.0542
1.04698
1.04282
1.04097
1.04017
1.04
1.03696
1.03166
1.02302
1.01075
0.998641
0.989416
0.984256
0.982223
0.983399
0.988695
0.991628
0.992069
0.99129
0.989085
0.987894
0.9879
0.987742
0.988253
0.988527
0.98628
0.982235
0.981646
0.982349
0.981558
0.978802
0.97399
0.965858
0.955197
0.941108
0.926769
0.919811
0.916324
0.914637
0.914178
0.912992
0.910161
0.904511
0.895899
0.886751
0.882414
0.88261
0.885766
0.887515
0.885066
0.878717
0.869064
0.854563
0.83856
0.831907
0.828688
0.823809
0.820054
0.817387
0.812189
0.802936
0.79005
0.774312
0.768003
0.771898
0.783657
0.804837
0.829839
0.841356
0.844721
0.844249
0.838988
0.833214
0.829454
0.827557
0.82659
0.824226
0.820042
0.815532
0.813972
0.815353
0.821526
0.838892
0.860635
0.867816
0.866768
0.858436
0.841022
0.826831
0.825956
0.8328
0.854295
0.876065
0.880286
0.878802
0.874608
0.863185
0.854429
0.855337
0.861271
0.877257
0.900952
0.911953
0.912462
0.910749
0.902407
0.885558
0.875004
0.873892
0.875852
0.883271
0.899436
0.916221
0.9218
0.922129
0.917902
0.914243
0.915272
0.918409
0.923951
0.932548
0.939026
0.940573
5.19074
4.64914
4.1707
3.71509
3.29802
2.9613
2.65869
2.39031
2.1482
1.95945
1.79522
1.6375
1.49999
1.37512
1.27893
1.21662
1.15531
1.07228
1.01169
0.992055
0.961065
0.921653
0.883507
0.834646
0.775753
0.743564
0.736978
0.735103
0.725408
0.711245
0.695207
0.665672
0.614981
0.589914
0.587387
0.587398
0.593701
0.606084
0.613865
0.621264
0.630033
0.649985
0.692653
0.753457
0.835767
0.91257
0.994147
1.06231
1.09387
1.10436
1.09878
1.06636
1.0496
1.05343
1.06472
1.08376
1.09223
1.08878
1.08243
1.07228
1.05675
1.0516
1.05077
1.05304
1.06397
1.07365
1.07523
1.0732
1.06518
1.05162
1.03938
1.03394
1.0315
1.03029
1.03079
1.02849
1.02396
1.01737
1.00715
0.998553
0.995309
0.993921
0.993655
0.993215
0.992673
0.991407
0.987964
0.983226
0.978809
0.97666
0.977044
0.980049
0.983771
0.988017
0.993194
0.997352
0.998337
0.99538
0.987876
0.979185
0.969574
0.957767
0.943257
0.929864
0.923632
0.921152
0.920467
0.919753
0.917664
0.913536
0.906294
0.897185
0.891049
0.890081
0.892354
0.895829
0.894962
0.890811
0.883219
0.872167
0.857652
0.84543
0.839151
0.83638
0.834265
0.830646
0.826077
0.818788
0.809171
0.793889
0.777648
0.770999
0.773682
0.785151
0.806936
0.828636
0.836198
0.838476
0.839186
0.835503
0.829273
0.82501
0.822862
0.819688
0.815536
0.812107
0.809651
0.809651
0.812977
0.823802
0.845411
0.864507
0.868882
0.867278
0.859654
0.842063
0.828658
0.828349
0.834869
0.851051
0.865583
0.869955
0.870254
0.866624
0.858338
0.854437
0.8574
0.866542
0.884418
0.899881
0.903276
0.903044
0.901209
0.890942
0.875841
0.87083
0.872501
0.877082
0.889161
0.907908
0.91985
0.921493
0.919248
0.911961
0.908521
0.909411
0.912935
0.919798
0.928783
0.934713
0.935807
0.935124
5.29987
4.82316
4.3726
3.93112
3.55602
3.21925
2.91325
2.62773
2.39931
2.18857
1.99935
1.82677
1.69673
1.56863
1.43812
1.36172
1.30773
1.21977
1.15477