/*--------------------------------*- C++ -*----------------------------------*\
  =========                 |
  \\      /  F ield         | OpenFOAM: The Open Source CFD Toolbox
   \\    /   O peration     | Website:  https://openfoam.org
    \\  /    A nd           | Version:  10
     \\/     M anipulation  |
\*---------------------------------------------------------------------------*/
FoamFile
{
    format      ascii;
    class       volScalarField;
    location    "1";
    object      T;
}
// * * * * * * * * * * * * * * * * * * * * * * * * * * * * * * * * * * * * * //

dimensions      [0 0 0 1 0 0 0];

internalField   nonuniform List<scalar> 
16128
(
1
1
1
1
1
1
1
1
1
1
1
1
1
1
1
1
1
1
1
1
1
1
1
1
1
1
1.14314
2.38582
2.70979
2.76371
2.79593
2.81215
2.82028
2.82422
2.82572
2.82891
2.83523
2.84239
2.85109
2.86033
2.8684
2.87434
2.88261
2.90017
2.93864
3.00455
3.07112
3.10226
1
1
1
1
1
1
1
1
1
1
1
1
1
1
1
1
1
1
1
1
1
1
1
1
1
1
1.1311
2.37496
2.71022
2.76445
2.79722
2.81271
2.82014
2.8236
2.82497
2.82826
2.8348
2.8422
2.8509
2.85984
2.86763
2.87362
2.88234
2.9003
2.93864
3.00428
3.0705
3.10144
1
1
1
1
1
1
1
1
1
1
1
1
1
1
1
1
1
1
1
1
1
1
1
1
1
1
1.09182
2.34478
2.71206
2.76639
2.7988
2.81286
2.81906
2.82211
2.82363
2.8272
2.834
2.84171
2.85024
2.85874
2.86652
2.87297
2.88243
2.90082
2.93929
3.00509
3.07054
3.10058
1
1
1
1
1
1
1
1
1
1
1
1
1
1
1
1
1
1
1
1
1
1
1
1
1
1
1.02159
2.30396
2.71667
2.76979
2.79909
2.81139
2.81663
2.81963
2.82137
2.82526
2.8323
2.84044
2.84879
2.85683
2.86472
2.87172
2.88193
2.9009
2.94014
3.00639
3.07104
3.10081
1
1
1
1
1
1
1
1
1
1
1
1
1
1
1
1
1
1
1
1
1
1
1
1
1
1
1.00024
2.26072
2.71849
2.77245
2.79841
2.80865
2.81319
2.81613
2.81793
2.82207
2.82946
2.83812
2.84639
2.85394
2.8619
2.86933
2.88043
2.90077
2.94096
3.00755
3.06878
3.10074
1
1
1
1
1
1
1
1
1
1
1
1
1
1
1
1
1
1
1
1
1
1
1
1
1
1
1
2.20526
2.72061
2.7738
2.79516
2.80454
2.80869
2.81128
2.81275
2.8171
2.82518
2.83472
2.84325
2.85039
2.85824
2.86573
2.87731
2.89849
2.93906
3.00697
3.06684
3.09897
1
1
1
1
1
1
1
1
1
1
1
1
1
1
1
1
1
1
1
1
1
1
1
1
1
1
1
2.13188
2.71904
2.77333
2.79037
2.79927
2.80293
2.80488
2.8058
2.81042
2.81971
2.83058
2.83977
2.84653
2.85378
2.86075
2.87234
2.89377
2.93427
3.00334
3.0649
3.09841
1
1
1
1
1
1
1
1
1
1
1
1
1
1
1
1
1
1
1
1
1
1
1
1
1
1
1
2.0385
2.71105
2.77186
2.7852
2.79249
2.79518
2.7964
2.79721
2.8025
2.81364
2.82592
2.83594
2.84245
2.84872
2.85503
2.86593
2.88635
2.92592
2.99636
3.06455
3.09246
1
1
1
1
1
1
1
1
1
1
1
1
1
1
1
1
1
1
1
1
1
1
1
1
1
1
1
1.92492
2.69418
2.76857
2.77681
2.78219
2.78499
2.78591
2.7878
2.7946
2.80771
2.82109
2.83163
2.83773
2.84297
2.84852
2.8583
2.87717
2.91537
2.98559
3.05647
3.08916
1
1
1
1
1
1
1
1
1
1
1
1
1
1
1
1
1
1
1
1
1
1
1
1
1
1
1
1.79406
2.66359
2.76094
2.76458
2.76916
2.77292
2.77497
2.77894
2.78799
2.80213
2.81647
2.82642
2.83162
2.83609
2.84114
2.8498
2.8668
2.90364
2.97351
3.04691
3.08066
1
1
1
1
1
1
1
1
1
1
1
1
1
1
1
1
1
1
1
1
1
1
1
1
1
1
1
1.63163
2.60476
2.74463
2.74853
2.75456
2.75924
2.76319
2.77045
2.78297
2.79787
2.81199
2.82025
2.82397
2.82741
2.83194
2.83955
2.85461
2.89009
2.95897
3.03368
3.06753
1
1
1
1
1
1
1
1
1
1
1
1
1
1
1
1
1
1
1
1
1
1
1
1
1
1
1
1.40303
2.50277
2.72382
2.73171
2.74146
2.74645
2.75294
2.76418
2.77996
2.79543
2.80715
2.8122
2.81374
2.81601
2.82028
2.82777
2.84184
2.87581
2.94209
3.01604
3.04779
1
1
1
1
1
1
1
1
1
1
1
1
1
1
1
1
1
1
1
1
1
1
1
1
1
1
1
1.13622
2.3842
2.71321
2.7214
2.73357
2.73943
2.74663
2.75884
2.77501
2.79095
2.80039
2.80253
2.80201
2.80245
2.80609
2.81328
2.8258
2.85698
2.91918
2.99177
3.0228
1
1
1
1
1
1
1
1
1
1
1
1
1
1
1
1
1
1
1
1
1
1
1
1
1
1
1
1.00521
2.26992
2.69496
2.70661
2.72007
2.7294
2.74022
2.75467
2.77078
2.78544
2.79216
2.79151
2.78852
2.78677
2.78939
2.79588
2.80704
2.83547
2.89314
2.96098
2.98626
1
1
1
1
1
1
1
1
1
1
1
1
1
1
1
1
1
1
1
1
1
1
1
1
1
1
1
1.00001
2.10432
2.68547
2.70921
2.71935
2.72627
2.73516
2.74863
2.76351
2.77619
2.7812
2.77926
2.77391
2.77005
2.77147
2.77623
2.78481
2.80673
2.85374
2.91189
2.93784
1
1
1
1
1
1
1
1
1
1
1
1
1
1
1
1
1
1
1
1
1
1
1
1
1
1
1
1
1.85812
2.63025
2.70082
2.71346
2.72115
2.72846
2.73921
2.75143
2.76193
2.76603
2.7637
2.75718
2.75152
2.75104
2.75316
2.75737
2.77117
2.809
2.86236
2.9053
1
1
1
1
1
1
1
1
1
1
1
1
1
1
1
1
1
1
1
1
1
1
1
1
1
1
1
1
1.51455
2.51324
2.68592
2.70091
2.71079
2.71674
2.72407
2.73256
2.74074
2.74452
2.74274
2.73683
2.73052
2.72824
2.72816
2.72844
2.73079
2.74206
2.73128
2.62943
1
1
1
1
1
1
1
1
1
1
1
1
1
1
1
1
1
1
1
1
1
1
1
1
1
1
1
1
1.1168
2.36328
2.67566
2.68687
2.6951
2.70076
2.70631
2.71209
2.71823
2.72177
2.72052
2.71548
2.70862
2.70417
2.7009
2.69567
2.68372
2.66065
2.62343
2.45969
1
1
1
1
1
1
1
1
1
1
1
1
1
1
1
1
1
1
1
1
1
1
1
1
1
1
1
1
1.00295
2.20277
2.64187
2.6639
2.67401
2.67997
2.6855
2.69066
2.69629
2.70042
2.70001
2.69621
2.6889
2.68178
2.67389
2.66206
2.63914
2.60302
2.52483
2.35207
1
1
1
1
1
1
1
1
1
1
1
1
1
1
1
1
1
1
1
1
1
1
1
1
1
1
1
1
1
1.93311
2.6011
2.65626
2.66376
2.66864
2.67264
2.67522
2.67861
2.68141
2.68071
2.67729
2.66981
2.66067
2.64869
2.63121
2.6005
2.55415
2.45681
2.31105
1
1
1
1
1
1
1
1
1
1
1
1
1
1
1
1
1
1
1
1
1
1
1
1
1
1
1
1
1
1.52491
2.49379
2.64076
2.65159
2.65772
2.65989
2.66056
2.66209
2.66376
2.66297
2.65979
2.65233
2.64147
2.62573
2.60321
2.5685
2.51573
2.41958
2.29769
1
1
1
1
1
1
1
1
1
1
1
1
1
1
1
1
1
1
1
1
1
1
1
1
1
1
1
1
1
1.06912
2.32064
2.63303
2.63808
2.6451
2.64592
2.64492
2.64458
2.64503
2.64481
2.6426
2.63604
2.6245
2.60569
2.57928
2.54146
2.48712
2.40108
2.30007
1
1
1
1
1
1
1
1
1
1
1
1
1
1
1
1
1
1
1
1
1
1
1
1
1
1
1
1
1
1.00103
2.08706
2.58697
2.6232
2.63195
2.63175
2.62937
2.62766
2.62695
2.62678
2.62504
2.61942
2.60793
2.58768
2.55851
2.51751
2.46429
2.38991
2.3023
1
1
1
1
1
1
1
1
1
1
1
1
1
1
1
1
1
1
1
1
1
1
1
1
1
1
1
1
1
0.999997
1.65666
2.49683
2.60481
2.61341
2.61324
2.61057
2.60832
2.60672
2.60668
2.60553
2.60137
2.59042
2.57143
2.54014
2.49772
2.44734
2.38349
2.30828
1
1
1
1
1
1
1
1
1
1
1
1
1
1
1
1
1
1
1
1
1
1
1
1
1
1
1
1
1
1
1.10835
2.31949
2.59264
2.59241
2.59437
2.5923
2.5893
2.58633
2.58595
2.58489
2.58123
2.57123
2.55267
2.52203
2.48071
2.43363
2.37598
2.31118
1
1
1
1
1
1
1
1
1
1
1
1
1
1
1
1
1
1
1
1
1
1
1
1
1
1
1
1
1
1
1.00251
2.05883
2.53678
2.57154
2.57997
2.57662
2.57226
2.56837
2.56625
2.56445
2.55994
2.55043
2.53183
2.50372
2.46606
2.42183
2.3692
2.31343
1
1
1
1
1
1
1
1
1
1
1
1
1
1
1
1
1
1
1
1
1
1
1
1
1
1
1
1
1
1
0.999995
1.54352
2.42983
2.55914
2.56092
2.5581
2.55322
2.54841
2.54401
2.54155
2.53641
2.5272
2.50967
2.48419
2.4508
2.40937
2.36183
2.31109
1
1
1
1
1
1
1
1
1
1
1
1
1
1
1
1
1
1
1
1
1
1
1
1
1
1
1
1
1
1
0.999999
1.06754
2.24846
2.53865
2.5377
2.53805
2.53491
2.52977
2.52363
2.51967
2.51384
2.50426
2.48837
2.46527
2.43522
2.39745
2.35516
2.30789
1
1
1
1
1
1
1
1
1
1
1
1
1
1
1
1
1
1
1
1
1
1
1
1
1
1
1
1
1
1
1
1.00082
1.85871
2.45699
2.51589
2.5228
2.51921
2.51393
2.50645
2.50049
2.49372
2.48378
2.46906
2.44797
2.42025
2.38605
2.34749
2.30406
1
1
1
1
1
1
1
1
1
1
1
1
1
1
1
1
1
1
1
1
1
1
1
1
1
1
1
1
1
1
1
0.999999
1.21082
2.29793
2.50365
2.50058
2.49903
2.49503
2.48764
2.48173
2.47468
2.46516
2.45143
2.43219
2.40656
2.37529
2.33948
2.30047
1
1
1
1
1
1
1
1
1
1
1
1
1
1
1
1
1
1
1
1
1
1
1
1
1
1
1
1
1
1
1
1
1.00908
2.02378
2.44362
2.47341
2.47731
2.47595
2.47
2.46401
2.45743
2.44847
2.43553
2.41744
2.39341
2.36418
2.33088
2.29562
1
1
1
1
1
1
1
1
1
1
1
1
1
1
1
1
1
1
1
1
1
1
1
1
1
1
1
1
1
1
1
1
1.00001
1.38843
2.30511
2.46415
2.45815
2.45764
2.45319
2.44639
2.4383
2.42915
2.41755
2.40166
2.38003
2.35311
2.32264
2.29021
1
1
1
1
1
1
1
1
1
1
1
1
1
1
1
1
1
1
1
1
1
1
1
1
1
1
1
1
1
1
1
1
1
1.03104
2.07915
2.41632
2.43277
2.43436
2.43335
2.42886
2.42075
2.41089
2.39957
2.38532
2.36655
2.34286
2.31549
2.28537
1
1
1
1
1
1
1
1
1
1
1
1
1
1
1
1
1
1
1
1
1
1
1
1
1
1
1
1
1
1
1
1
1
1.00017
1.47452
2.288
2.42194
2.41472
2.41436
2.4111
2.40332
2.3929
2.3811
2.3676
2.35118
2.33075
2.30653
2.27908
1
1
1
1
1
1
1
1
1
1
1
1
1
1
1
1
1
1
1
1
1
1
1
1
1
1
1
1
1
1
1
1
1
1
1.04904
2.07158
2.3872
2.39096
2.39167
2.38968
2.38412
2.375
2.36373
2.35082
2.33554
2.31732
2.29593
2.27154
1
1
1
1
1
1
1
1
1
1
1
1
1
1
1
1
1
1
1
1
1
1
1
1
1
1
1
1
1
1
1
1
1
1
1.00043
1.46105
2.24773
2.38081
2.37512
2.37186
2.36699
2.35875
2.34752
2.33449
2.31977
2.30295
2.28374
2.26189
1
1
1
1
1
1
1
1
1
1
1
1
1
1
1
1
1
1
1
1
1
1
1
1
1
1
1
1
1
1
1
1
1
1
1
1.04735
2.01573
2.34557
2.35695
2.35321
2.34833
2.3404
2.32986
2.31768
2.30407
2.28864
2.27122
2.25144
1
1
1
1
1
1
1
1
1
1
1
1
1
1
1
1
1
1
1
1
1
1
1
1
1
1
1
1
1
1
1
1
1
1
1
1.00043
1.40156
2.19268
2.34417
2.33712
2.33214
2.32446
2.31468
2.30311
2.29019
2.27561
2.25918
2.24074
1
1
1
1
1
1
1
1
1
1
1
1
1
1
1
1
1
1
1
1
1
1
1
1
1
1
1
1
1
1
1
1
1
1
1
1
1.03497
1.89653
2.28825
2.32272
2.31404
2.3052
2.29603
2.28594
2.27454
2.26161
2.24689
2.2302
1
1
1
1
1
1
1
1
1
1
1
1
1
1
1
1
1
1
1
1
1
1
1
1
1
1
1
1
1
1
1
1
1
1
1
1
1.0003
1.2874
2.11187
2.30982
2.29821
2.29169
2.2824
2.27172
2.25985
2.24714
2.23361
2.21879
1
1
1
1
1
1
1
1
1
1
1
1
1
1
1
1
1
1
1
1
1
1
1
1
1
1
1
1
1
1
1
1
1
1
1
1
1
1.01613
1.67292
2.20147
2.28193
2.27186
2.2637
2.25374
2.24263
2.23084
2.21885
2.20614
1
1
1
1
1
1
1
1
1
1
1
1
1
1
1
1
1
1
1
1
1
1
1
1
1
1
1
1
1
1
1
1
1
1
1
1
1
1.00011
1.13544
1.97526
2.26276
2.25734
2.24993
2.2404
2.22943
2.2175
2.20561
2.19362
1
1
1
1
1
1
1
1
1
1
1
1
1
1
1
1
1
1
1
1
1
1
1
1
1
1
1
1
1
1
1
1
1
1
1
1
1
1
1.00351
1.42759
2.11491
2.24518
2.23093
2.22456
2.21534
2.20514
2.1943
2.18289
1
1
1
1
1
1
1
1
1
1
1
1
1
1
1
1
1
1
1
1
1
1
1
1
1
1
1
1
1
1
1
1
1
1
1
1
1
1
1.00001
1.04202
1.74157
2.16363
2.22018
2.2076
2.19925
2.19009
2.18017
2.16927
1
1
1
1
1
1
1
1
1
1
1
1
1
1
1
1
1
1
1
1
1
1
1
1
1
1
1
1
1
1
1
1
1
1
1
1
1
1
1
1.0005
1.18421
1.94312
2.19975
2.19567
2.18838
2.18047
2.17063
2.15885
1
1
1
1
1
1
1
1
1
1
1
1
1
1
1
1
1
1
1
1
1
1
1
1
1
1
1
1
1
1
1
1
1
1
1
1
1
1
1
1
1.00655
1.42169
2.05077
2.18434
2.17485
2.16777
2.1592
2.14803
1
1
1
1
1
1
1
1
1
1
1
1
1
1
1
1
1
1
1
1
1
1
1
1
1
1
1
1
1
1
1
1
1
1
1
1
1
1
1
1
1.00004
1.04217
1.65109
2.10131
2.16607
2.15355
2.14319
2.13294
1
1
1
1
1
1
1
1
1
1
1
1
1
1
1
1
1
1
1
1
1
1
1
1
1
1
1
1
1
1
1
1
1
1
1
1
1
1
1
1
1
1.00054
1.13614
1.8331
2.11122
2.14485
2.12961
2.11841
1
1
1
1
1
1
1
1
1
1
1
1
1
1
1
1
1
1
1
1
1
1
1
1
1
1
1
1
1
1
1
1
1
1
1
1
1
1
1
1
1
1
1.00385
1.29497
1.9277
2.11804
2.11842
2.1092
1
1
1
1
1
1
1
1
1
1
1
1
1
1
1
1
1
1
1
1
1
1
1
1
1
1
1
1
1
1
1
1
1
1
1
1
1
1
1
1
1
1
1.00002
1.01826
1.45901
1.98127
2.10291
2.09891
1
1
1
1
1
1
1
1
1
1
1
1
1
1
1
1
1
1
1
1
1
1
1
1
1
1
1
1
1
1
1
1
1
1
1
1
1
1
1
1
1
1
1
1.00016
1.05523
1.59814
2.01242
2.08672
1
1
1
1
1
1
1
1
1
1
1
1
1
1
1
1
1
1
1
1
1
1
1
1
1
1
1
1
1
1
1
1
1
1
1
1
1
1
1
1
1
1
1
1
1.00088
1.11981
1.70796
2.02509
1
1
1
1
1
1
1
1
1
1
1
1
1
1
1
1
1
1
1
1
1
1
1
1
1
1
1
1
1
1
1
1
1
1
1
1
1
1
1
1
1
1
1
1
1
1.00328
1.20462
1.78675
1
1
1
1
1
1
1
1
1
1
1
1
1
1
1
1
1
1
1
1
1
1
1
1
1
1
1
1
1
1
1
1
1
1
1
1
1
1
1
1
1
1
1
1
1
1.00002
1.00913
1.29773
1
1
1
1
1
1
1
1
1
1
1
1
1
1
1
1
1
1
1
1
1
1
1
1
1
1
1
1
1
1
1
1
1
1
1
1
1
1
1
1
1
1
1
1
1
1
1.00007
1.02058
1
1
1
1
1
1
1
1
1
1
1
1
1
1
1
1
1
1
1
1
1
1
1
1
1
1
1
1
1
1
1
1
1
1
1
1
1
1
1
1
1
1
1
1
1
1
1
1.00021
1
1
1
1
1
1
1
1
1
1
1
1
1
1
1
1
1
1
1
1
1
1
1
1
1
1
1
1
1
1
1
1
1
1
1
1
1
1
1
1
1
1
1
1
1
1
1
1
1
1
1
1
1
1
1
1
1
1
1
1
1
1
1
1
1
1
1
1
1
1
1
1
1
1
1
1
1
1
1
1
1
1
1
1
1
1
1
1
1
1
1
1
1
1
1
1
1
1
1
1
1
1
1
1
1
1
1
1
1
1
1
1
1
1
1
1
1
1
1
1
1
1
1
1
1
1
1
1
1
1
1
1
1
1
1
1
1
1
1
1
1
1
1
1
1
1
1
1
1
1
1
1
1
1
1
1
1
1
1
1
1
1
1
1
1
1
1
1
1
1
1
1
1
1
1
1
1
1
1
1
1
1
1
1
1
1
1
1
1
1
1
1
1
1
1
1
1
1
1
1
1
1
1
1
1
1
1
1
1
1
1
1
1
1
1
1
1
1
1
1
1
1
1
1
1
1
1
1
1
1
1
1
1
1
1
1
1
1
1
1
1
1
1
1
1
1
1
1
1
1
1
1
1
1
1
1
1
1
1
1
1
1
1
1
1
1
1
1
1
1
1
1
1
1
1
1
1
1
1
1
1
1
1
1
1
1
1
1
1
1
1
1
1
1
1
1
1
1
1
1
1
1
1
1
1
1
1
1
1
1
1
1
1
1
1
1
1
1
1
1
1
1
1
1
1
1
1
1
1
1
1
1
1
1
1
1
1
1
1
1
1
1
1
1
1
1
1
1
1
1
1
1
1
1
1
1
1
1
1
1
1
1
1
1
1
1
1
1
1
1
1
1
1
1
1
1
1
1
1
1
1
1
1
1
1
1
1
1
1
1
1
1
1
1
1
1
1
1
1
1
1
1
1
1
1
1
1
1
1
1
1
1
1
1
1
1
1
1
1
1
1
1
1
1
1
1
1
1
1
1
1
1
1
1
1
1
1
1
1
1
1
1
1
1
1
1
1
1
1
1
1
1
1
1
1
1
1
1
1
1
1
1
1
1
1
1
1
1
1
1
1
1
1
1
1
1
1
1
1
1
1
1
1
1
1
1
1
1
1
1
1
1
1
1
1
1
1
1
1
1
1
1
1
1
1
1
1
1
1
1
1
1
1
1
1
1
1
1
1
1
1
1
1
1
1
1
1
1
1
1
1
1
1
1
1
1
1
1
1
1
1
1
1
1
1
1
1
1
1
1
1
1
1
1
1
1
1
1
1
1
1
1
1
1
1
1
1
1
1
1
1
1
1
1
1
1
1
1
1
1
1
1
1
1
1
1
1
1
1
1
1
1
1
1
1
1
1
1
1
1
1
1
1
1
1
1
1
1
1
1
1
1
1
1
1
1
1
1
1
1
1
1
1
1
1
1
1
1
1
1
1
1
1
1
1
1
1
1
1
1
1
1
1
1
1
1
1
1
1
1
1
1
1
1
1
1
1
1
1
1
1
1
1
1
1
1
1
1
1
1
1
1
1
1
1
1
1
1
1
1
1
1
1
1
1
1
1
1
1
1
1
1
1
1
1
1
1
1
1
1
1
1
1
1
1
1
1
1
1
1
1
1
1
1
1
1
1
1
1
1
1
1
1
1
1
1
1
1
1
1
1
1
1
1
1
1
1
1
1
1
1
1
1
1
1
1
1
1
1
1
1
1
1
1
1
1
1
1
1
1
1
1
1
1
1
1
1
1
1
1
1
1
1
1
1
1
1
1
1
1
1
1
1
1
1
1
1
1
1
1
1
1
1
1
1
1
1
1
1
1
1
1
1
1
1
1
1
1
1
1
1
1
1
1
1
1
1
1
1
1
1
1
1
1
1
1
1
1
1
1
1
1
1
1
1
1
1
1
1
1
1
1
1
1
1
1
1
1
1
1
1
1
1
1
1
1
1
1
1
1
1
1
1
1
1
1
1
1
1
1
1
1
1
1
1
1
1
1
1
1
1
1
1
1
1
1
1
1
1
1
1
1
1
1
1
1
1
1
1
1
1
1
1
1
1
1
1
1
1
1
1
1
1
1
1
1
1
1
1
1
1
1
1
1
1
1
1
1
1
1
1
1
1
1
1
1
1
1
1
1
1
1
1
1
1
1
1
1
1
1
1
1
1
1
1
1
1
1
1
1
1
1
1
1
1
1
1
1
1
1
1
1
1
1
1
1
1
1
1
1
1
1
1
1
1
1
1
1
1
1
1
1
1
1
1
1
1
1
1
1
1
1
1
1
1
1
1
1
1
1
1
1
1
1
1
1
1
1
1
1
1
1
1
1
1
1
1
1
1
1
1
1
1
1
1
1
1
1
1
1
1
1
1
1
1
1
1
1
1
1
1
1
1
1
1
1
1
1
1
1
1
1
1
1
1
1
1
1
1
1
1
1
1
1
1
1
1
1
1
1
1
1
1
1
1
1
1
1
1
1
1
1
1
1
1
1
1
1
1
1
1
1
1
1
1
1
1
1
1
1
1
1
1
1
1
1
1
1
1
1
1
1
1
1
1
1
1
1
1
1
1
1
1
1
1
1
1
1
1
1
1
1
1
1
1
1
1
1
1
1
1
1
1.64817
0.841139
0.431356
0.730848
0.849364
0.9413
1.06157
1.17175
1.26467
1.30267
1.31811
1.34359
1.40342
1.47034
1.53895
1.63373
1.70163
1.7102
1.71104
1.73334
1.78157
1.78523
1.7643
1.74793
1.74997
1.75769
1.76936
1.79029
1.79335
1.78424
1.77074
1.7667
1.76238
1.75586
1.75403
1.7578
1.76075
1.76146
1.76237
1.76646
1.7685
1.77014
1.77237
1.77203
1.76921
1.76657
1.76538
1.76426
1.76597
1.77519
1.78243
1.78354
1.78349
1.78196
1.77924
1.7753
1.77112
1.76678
1.76181
1.75905
1.76163
1.76967
1.7757
1.77638
1.77324
1.76696
1.75867
1.75024
1.74784
1.74678
1.74618
1.74576
1.74422
1.7443
1.74963
1.75672
1.75665
1.75881
1.76182
1.76201
1.75594
1.74581
1.7401
1.7377
1.73529
1.73346
1.73347
1.73591
1.74224
1.75037
1.75526
1.75822
1.75939
1.75742
1.75218
1.74432
1.73811
1.73861
1.7435
1.7507
1.75908
1.76859
1.77141
1.77078
1.76665
1.75675
1.74302
1.72256
1.70867
1.70856
1.71097
1.7215
1.73777
1.74217
1.74073
1.73998
1.74197
1.74938
1.76699
1.78182
1.78724
1.78285
1.76991
1.75644
1.74311
1.72157
1.67405
1.61791
1.61362
1.62084
1.63375
1.6514
1.6723
1.69624
1.71732
1.73181
1.74347
1.74721
1.74392
1.73813
1.73289
1.72948
1.7277
1.72862
1.73491
1.73808
1.7381
1.73268
1.7255
1.72428
1.72676
1.73219
1.74158
1.74543
1.74224
1.72971
1.71864
1.71195
1.70858
1.70847
1.71593
1.73442
1.75139
1.75557
1.75514
1.74956
1.7389
1.73182
1.7293
1.72806
1.73218
1.74401
1.75865
1.76546
1.76446
1.75626
1.74693
1.74201
1.73986
1.73783
1.73018
1.72724
1.73226
1.73696
1.73876
1.74002
1.74132
1.74311
1.74496
1.74719
1.75689
1.76921
1.94039
1.52038
1.23444
1.15467
1.103
1.00198
0.928083
0.944245
0.995654
1.04865
1.08871
1.11894
1.15855
1.24636
1.32162
1.36921
1.42077
1.49011
1.52994
1.56457
1.6085
1.65655
1.67936
1.68303
1.68731
1.6937
1.71186
1.73357
1.73184
1.72192
1.71548
1.71985
1.73162
1.73616
1.73735
1.74008
1.74658
1.74727
1.74695
1.74883
1.75077
1.75143
1.75246
1.75066
1.75053
1.75211
1.75166
1.75172
1.75258
1.75673
1.76267
1.76659
1.76732
1.76608
1.76376
1.75916
1.75347
1.74901
1.74813
1.7497
1.75203
1.75594
1.75749
1.75652
1.75553
1.75292
1.74837
1.74525
1.74437
1.74247
1.73769
1.73305
1.73196
1.73414
1.74375
1.74751
1.74765
1.74711
1.74472
1.74119
1.73705
1.73411
1.73073
1.72727
1.72601
1.72618
1.72901
1.73365
1.73796
1.74102
1.74321
1.74531
1.74531
1.74476
1.74232
1.73522
1.73051
1.73079
1.73503
1.74222
1.74823
1.75158
1.7517
1.7517
1.75261
1.75165
1.74109
1.72369
1.72009
1.72124
1.72345
1.72674
1.72834
1.72742
1.72585
1.72685
1.73763
1.74932
1.75382
1.75532
1.75549
1.75454
1.75102
1.74577
1.74238
1.72936
1.68616
1.64543
1.6299
1.627
1.63157
1.64458
1.66579
1.68782
1.70797
1.72767
1.74128
1.74264
1.73875
1.73027
1.72573
1.72618
1.73451
1.74209
1.7447
1.74132
1.72698
1.7161
1.71461
1.71626
1.72661
1.74146
1.74778
1.74801
1.74214
1.725
1.71037
1.70764
1.7093
1.7182
1.73679
1.75384
1.75658
1.75079
1.73226
1.71969
1.71502
1.71616
1.7292
1.74666
1.7562
1.76053
1.76083
1.75746
1.74454
1.73604
1.73567
1.73745
1.74107
1.73839
1.72976
1.72902
1.73422
1.73863
1.73855
1.73722
1.73674
1.73913
1.74724
1.7613
1.76796
1.76757
2.03044
1.81513
1.59523
1.44436
1.36033
1.30067
1.22514
1.12705
1.0909
1.11894
1.12137
1.1102
1.11747
1.15698
1.18426
1.1905
1.19577
1.23024
1.30647
1.36811
1.40534
1.45724
1.51066
1.54143
1.56366
1.58112
1.60155
1.61545
1.62626
1.63582
1.64405
1.66417
1.67197
1.67305
1.6747
1.67888
1.68651
1.68718
1.68408
1.67954
1.67746
1.67901
1.68465
1.69191
1.70081
1.70748
1.7105
1.71144
1.71264
1.71308
1.71206
1.71068
1.71106
1.71189
1.71337
1.71545
1.71631
1.71871
1.72275
1.7237
1.72153
1.71627
1.71027
1.71026
1.71199
1.71129
1.70863
1.7064
1.7042
1.70136
1.70017
1.70131
1.70787
1.71796
1.7236
1.7239
1.7215
1.71486
1.7045
1.69662
1.69442
1.69483
1.69729
1.70174
1.70832
1.71497
1.71998
1.72137
1.7203
1.71474
1.70899
1.70625
1.70569
1.70738
1.71046
1.71258
1.71501
1.71799
1.72092
1.72253
1.72312
1.72178
1.71836
1.71924
1.72411
1.72437
1.71981
1.71659
1.7162
1.71532
1.71058
1.7051
1.70367
1.70509
1.71219
1.72539
1.73361
1.73426
1.72862
1.7164
1.71207
1.71346
1.71933
1.72548
1.7256
1.71895
1.69739
1.66575
1.6407
1.63178
1.63478
1.64995
1.67218
1.68698
1.70136
1.71372
1.71687
1.71538
1.71096
1.71046
1.71672
1.72852
1.73235
1.73174
1.72412
1.71221
1.70697
1.70713
1.71382
1.73038
1.74239
1.74518
1.74015
1.72072
1.70732
1.70314
1.70439
1.71459
1.73262
1.74428
1.74745
1.74251
1.72199
1.70762
1.70294
1.70529
1.71588
1.73668
1.75194
1.75442
1.75212
1.74128
1.72492
1.7137
1.71201
1.71399
1.72533
1.73689
1.73774
1.73567
1.73285
1.73434
1.73418
1.73112
1.7306
1.73198
1.73612
1.74453
1.75243
1.75644
1.75638
1.74882
2.09469
1.9491
1.82123
1.67161
1.53988
1.47355
1.42747
1.37285
1.28496
1.24038
1.21837
1.17896
1.17217
1.18041
1.19044
1.18653
1.17394
1.17139
1.18326
1.20934
1.23943
1.28779
1.34962
1.39888
1.43529
1.46219
1.4791
1.48445
1.49739
1.52053
1.5408
1.56449
1.57413
1.58039
1.58428
1.59003
1.59881
1.60194
1.59989
1.59578
1.59573
1.59931
1.60895
1.61962
1.6281
1.6303
1.63045
1.63091
1.63282
1.63549
1.6369
1.63835
1.64083
1.64383
1.64829
1.65222
1.6551
1.65619
1.65479
1.65117
1.6465
1.64086
1.63925
1.64157
1.64515
1.64551
1.6444
1.64371
1.64362
1.6437
1.6461
1.65304
1.66225
1.66548
1.66431
1.66221
1.65849
1.64998
1.64284
1.6414
1.64139
1.64293
1.64894
1.65899
1.66637
1.66838
1.6674
1.66408
1.65869
1.65195
1.64919
1.64975
1.65348
1.66082
1.66968
1.6764
1.68004
1.68138
1.67998
1.67601
1.67292
1.67071
1.67006
1.67298
1.67984
1.67987
1.68006
1.68294
1.6844
1.68237
1.67563
1.67083
1.67164
1.67741
1.68784
1.69451
1.6933
1.68878
1.68138
1.67448
1.67268
1.67471
1.68283
1.68993
1.68908
1.68656
1.67248
1.64974
1.63443
1.63187
1.63666
1.65555
1.67017
1.67532
1.68117
1.68453
1.68546
1.68526
1.68525
1.6907
1.70368
1.70989
1.70854
1.70267
1.69402
1.69132
1.69349
1.70249
1.71643
1.72433
1.72457
1.71863
1.70483
1.69139
1.68827
1.69051
1.70224
1.72012
1.72841
1.72901
1.72389
1.70686
1.6914
1.68873
1.69087
1.70281
1.72294
1.73204
1.73164
1.72438
1.7126
1.69616
1.68563
1.68568
1.69215
1.70742
1.72522
1.72953
1.72797
1.72565
1.72279
1.71964
1.71548
1.71536
1.71867
1.72389
1.73081
1.73682
1.73867
1.73861
1.73724
1.73093
2.14537
2.01835
1.90765
1.80841
1.70639
1.59136
1.54258
1.50127
1.43144
1.3529
1.32586
1.30343
1.27517
1.26772
1.26753
1.25513
1.21809
1.19441
1.19423
1.20394
1.21297
1.21952
1.23298
1.25174
1.27923
1.31246
1.34381
1.36361
1.3862
1.42551
1.45858
1.47976
1.49322
1.50415
1.51112
1.51818
1.52627
1.53525
1.54387
1.54552
1.54779
1.55378
1.5591
1.56247
1.56255
1.55914
1.5567
1.55733
1.5617
1.56925
1.57539
1.5809
1.58552
1.58669
1.58587
1.58478
1.58374
1.58228
1.57994
1.57535
1.57036
1.57024
1.57351
1.57853
1.5843
1.58615
1.58601
1.58682
1.58751
1.58796
1.59035
1.59368
1.59483
1.59477
1.59384
1.58994
1.58479
1.5834
1.58346
1.58433
1.58862
1.59317
1.59733
1.59967
1.59935
1.59688
1.59347
1.589
1.58565
1.5856
1.58836
1.59427
1.6043
1.61614
1.62348
1.62613
1.62627
1.62322
1.61761
1.61294
1.61156
1.61212
1.61639
1.62289
1.63028
1.63023
1.63113
1.63221
1.63118
1.62757
1.62562
1.62659
1.63171
1.63919
1.64151
1.64072
1.63806
1.63267
1.62777
1.6275
1.6309
1.63693
1.64493
1.64431
1.64389
1.64137
1.6278
1.61561
1.61492
1.61715
1.62759
1.64196
1.64486
1.64446
1.64307
1.64561
1.64753
1.65
1.65458
1.66443
1.67262
1.67266
1.67131
1.66931
1.66868
1.67185
1.68026
1.69112
1.69517
1.69309
1.68747
1.6773
1.66813
1.66763
1.67227
1.68185
1.69685
1.70424
1.70293
1.69475
1.67898
1.66962
1.67015
1.67211
1.67904
1.69468
1.7
1.69528
1.68364
1.67033
1.65519
1.64875
1.65087
1.65899
1.67347
1.69379
1.70197
1.70059
1.69668
1.69273
1.68918
1.68629
1.68643
1.68997
1.69674
1.7039
1.70773
1.70975
1.71104
1.71138
1.71055
1.71018
2.18077
2.06766
1.96498
1.88222
1.79585
1.69239
1.62604
1.5836
1.53722
1.46121
1.40507
1.38537
1.37298
1.35238
1.33444
1.32022
1.28724
1.24822
1.24072
1.24009
1.24174
1.23719
1.23337
1.23464
1.22853
1.22416
1.22862
1.24178
1.26299
1.30582
1.36055
1.39139
1.41507
1.43076
1.44616
1.45925
1.47092
1.48411
1.49753
1.51101
1.52045
1.52399
1.52359
1.52104
1.51801
1.5153
1.51514
1.51757
1.52381
1.53257
1.5396
1.54297
1.54318
1.54062
1.53678
1.53405
1.5316
1.52844
1.52545
1.52286
1.52241
1.5237
1.52806
1.53429
1.53892
1.53979
1.54016
1.54001
1.53954
1.53988
1.54061
1.54059
1.53948
1.53775
1.53577
1.53348
1.53235
1.53253
1.53592
1.53945
1.53974
1.53983
1.53942
1.53836
1.53587
1.53125
1.52836
1.52772
1.52855
1.53297
1.54174
1.55303
1.56286
1.56801
1.57014
1.57023
1.56938
1.56495
1.55775
1.55508
1.55563
1.55896
1.56524
1.57427
1.57613
1.57619
1.57579
1.57378
1.57012
1.56939
1.57155
1.57655
1.58255
1.58566
1.586
1.58561
1.58121
1.57538
1.5744
1.5767
1.58404
1.59457
1.59478
1.59323
1.59268
1.58832
1.57745
1.57576
1.57909
1.58641
1.59726
1.60077
1.60095
1.59616
1.59307
1.59775
1.6014
1.60515
1.61417
1.62734
1.63172
1.63174
1.63138
1.63327
1.63865
1.64549
1.65107
1.65217
1.65139
1.65007
1.64536
1.63581
1.63239
1.63583
1.64557
1.66018
1.66676
1.66595
1.66129
1.64956
1.63497
1.63325
1.63527
1.64343
1.65591
1.65752
1.65053
1.64008
1.62723
1.61213
1.60553
1.60705
1.61423
1.63009
1.65052
1.65855
1.65778
1.65534
1.65123
1.64471
1.64194
1.64278
1.64695
1.65404
1.66222
1.66705
1.66959
1.67184
1.67298
1.67341
1.67472
1.67742
2.20445
2.10709
2.01048
1.93408
1.8587
1.77368
1.69603
1.64458
1.60413
1.55782
1.49792
1.4494
1.44079
1.42222
1.38972
1.37127
1.35082
1.31557
1.29619
1.29335
1.29178
1.28461
1.27214
1.25722
1.23465
1.21541
1.21482
1.2188
1.22433
1.2316
1.24547
1.26386
1.28574
1.31678
1.3511
1.38349
1.4065
1.43043
1.45746
1.48127
1.49366
1.49844
1.49978
1.49773
1.49283
1.49341
1.49746
1.50236
1.51031
1.51604
1.51594
1.516
1.51455
1.50941
1.50417
1.50109
1.49932
1.49824
1.49711
1.49744
1.49934
1.50215
1.50324
1.50457
1.50644
1.50799
1.50822
1.50784
1.50753
1.50799
1.50832
1.50765
1.50607
1.50429
1.50279
1.50236
1.50327
1.5052
1.50482
1.50191
1.49877
1.49641
1.49402
1.49118
1.48999
1.49012
1.49061
1.49256
1.49799
1.50609
1.51399
1.51997
1.52371
1.52602
1.52696
1.52648
1.52312
1.51869
1.51713
1.51779
1.52012
1.52544
1.53101
1.53165
1.53127
1.52936
1.5258
1.52242
1.52201
1.52344
1.52726
1.53222
1.53597
1.53742
1.53748
1.53494
1.5327
1.53295
1.53522
1.54104
1.54955
1.54996
1.54774
1.54531
1.5443
1.54161
1.5369
1.53842
1.54302
1.54979
1.55217
1.55093
1.54656
1.53991
1.54227
1.5494
1.55628
1.56531
1.57884
1.58769
1.59078
1.592
1.59486
1.59966
1.60402
1.60584
1.60608
1.60609
1.60537
1.60215
1.59831
1.59773
1.6006
1.60799
1.61978
1.62531
1.62431
1.61928
1.60907
1.59908
1.59814
1.59875
1.60465
1.61456
1.61488
1.60715
1.59559
1.58201
1.57161
1.56826
1.56901
1.57338
1.58775
1.60531
1.61107
1.61037
1.60908
1.60486
1.59732
1.59534
1.59614
1.59936
1.60639
1.61582
1.62132
1.62364
1.62534
1.62621
1.62734
1.62995
1.63336
1.63735
2.2254
2.13879
2.05376
1.97931
1.90522
1.82887
1.76857
1.71018
1.65292
1.62004
1.57629
1.52155
1.49761
1.48066
1.44867
1.41322
1.39013
1.36645
1.34671
1.34354
1.33928
1.32976
1.3165
1.29985
1.27388
1.24776
1.23974
1.23661
1.23241
1.22737
1.23107
1.23021
1.22311
1.22378
1.23346
1.25989
1.30233
1.35018
1.39725
1.42748
1.44538
1.45681
1.46721
1.47476
1.47699
1.48091
1.4906
1.5004
1.50481
1.50352
1.4992
1.49519
1.48958
1.48308
1.48097
1.48136
1.48336
1.48531
1.48533
1.48541
1.48478
1.4849
1.48532
1.48598
1.48693
1.48884
1.49062
1.4908
1.49074
1.49096
1.49066
1.48874
1.48779
1.48751
1.48758
1.48723
1.48573
1.48319
1.47919
1.47451
1.46983
1.46605
1.46434
1.46432
1.4655
1.46853
1.47327
1.47778
1.48175
1.48523
1.48895
1.49281
1.49585
1.49694
1.49656
1.49549
1.49339
1.49247
1.4934
1.4964
1.50034
1.50146
1.50159
1.49998
1.49655
1.49168
1.48882
1.48832
1.48907
1.49153
1.49504
1.49839
1.50006
1.50003
1.49837
1.49782
1.49957
1.50351
1.51002
1.51324
1.51364
1.51282
1.50817
1.50441
1.5049
1.50445
1.50426
1.50676
1.51039
1.51115
1.50919
1.50426
1.49574
1.49406
1.50036
1.5107
1.52305
1.53792
1.54772
1.55251
1.55469
1.55606
1.55833
1.56143
1.56354
1.56469
1.56534
1.56477
1.56129
1.55842
1.55879
1.56322
1.57233
1.58397
1.58821
1.58733
1.58223
1.57114
1.55978
1.55815
1.56043
1.56912
1.57782
1.57746
1.57095
1.56117
1.54717
1.5364
1.53404
1.53456
1.54043
1.55498
1.56641
1.56882
1.56817
1.5663
1.5601
1.55396
1.55334
1.55453
1.55849
1.56599
1.57515
1.57957
1.58067
1.58025
1.57932
1.57988
1.58098
1.58333
1.58766
1.59013
2.23893
2.16253
2.08988
2.01946
1.94758
1.88001
1.82321
1.76873
1.71051
1.6756
1.63791
1.58462
1.54484
1.52364
1.50057
1.47242
1.44403
1.41077
1.39054
1.38869
1.38167
1.37104
1.35667
1.33464
1.30584
1.28416
1.27815
1.27494
1.26847
1.25974
1.24896
1.23356
1.21635
1.21221
1.21267
1.21648
1.22724
1.24767
1.28514
1.32984
1.35942
1.38047
1.40051
1.42175
1.44035
1.45634
1.47677
1.48972
1.49052
1.4901
1.4861
1.47653
1.468
1.46616
1.46669
1.47011
1.47673
1.47883
1.47848
1.47649
1.47288
1.47254
1.473
1.47417
1.47667
1.48073
1.48279
1.48254
1.48194
1.48062
1.47824
1.47639
1.47543
1.47491
1.47462
1.47301
1.47044
1.46654
1.46113
1.45575
1.45182
1.45024
1.45019
1.45202
1.45681
1.46064
1.46327
1.46526
1.46645
1.46797
1.47019
1.47256
1.47514
1.47746
1.47856
1.47916
1.48079
1.48248
1.48338
1.48377
1.48348
1.48152
1.47829
1.47369
1.46897
1.46743
1.46719
1.46764
1.46936
1.47137
1.47294
1.47356
1.47346
1.47321
1.47461
1.47829
1.48322
1.48696
1.48848
1.48826
1.48644
1.48205
1.47694
1.47661
1.47776
1.47887
1.48067
1.48228
1.48191
1.47842
1.47214
1.465
1.46335
1.46783
1.47864
1.49363
1.50893
1.51711
1.52123
1.5232
1.52412
1.52515
1.5265
1.52813
1.52964
1.52987
1.52933
1.52835
1.52849
1.53055
1.53526
1.5451
1.55608
1.55895
1.55777
1.55203
1.54134
1.53218
1.53065
1.53208
1.54004
1.54729
1.5463
1.5408
1.53292
1.52225
1.51443
1.51264
1.51258
1.51793
1.52935
1.53472
1.53483
1.53371
1.53028
1.52317
1.51851
1.51835
1.52024
1.52492
1.53354
1.54201
1.54473
1.54474
1.54212
1.5393
1.53867
1.53836
1.53901
1.54147
1.54312
1.54212
2.24858
2.18181
2.11792
2.05158
1.98515
1.92759
1.87159
1.81805
1.76637
1.72406
1.68344
1.64152
1.60351
1.56621
1.53572
1.51624
1.49566
1.46548
1.4421
1.43481
1.42218
1.40531
1.38838
1.365
1.33542
1.3182
1.31357
1.3115
1.30489
1.29574
1.28545
1.26788
1.23891
1.2231
1.22145
1.22142
1.22497
1.23264
1.23884
1.24476
1.25164
1.26466
1.28977
1.3223
1.36303
1.39953
1.43604
1.46201
1.47145
1.47466
1.47278
1.46121
1.4548
1.45539
1.45837
1.46541
1.46929
1.46844
1.46725
1.46505
1.46058
1.45983
1.4606
1.46328
1.4702
1.47657
1.47829
1.47813
1.47576
1.47038
1.46526
1.46283
1.46143
1.46053
1.46048
1.45912
1.45675
1.45394
1.44997
1.44644
1.44504
1.44476
1.44541
1.44706
1.44958
1.45178
1.45253
1.45247
1.45226
1.45282
1.45476
1.45844
1.46222
1.46572
1.46957
1.47298
1.47446
1.47441
1.47305
1.47074
1.46772
1.4636
1.45833
1.45401
1.45292
1.45288
1.45355
1.45482
1.45588
1.45623
1.45574
1.45488
1.45527
1.45823
1.46308
1.46813
1.47045
1.47124
1.47054
1.46766
1.46254
1.45871
1.45804
1.45869
1.46026
1.46128
1.46176
1.4608
1.4578
1.45136
1.44438
1.4426
1.44576
1.45571
1.4714
1.48572
1.49209
1.49518
1.49728
1.49812
1.49864
1.49992
1.502
1.5028
1.50281
1.50289
1.503
1.50398
1.50709
1.5136
1.52519
1.53448
1.53596
1.53446
1.52912
1.51853
1.50993
1.50882
1.51033
1.51648
1.52121
1.52077
1.51762
1.51137
1.50277
1.49737
1.49581
1.49647
1.50267
1.50882
1.50944
1.5081
1.50605
1.50087
1.49413
1.49187
1.49274
1.49506
1.50104
1.51007
1.51542
1.51601
1.51436
1.50971
1.50631
1.50492
1.50377
1.5037
1.50472
1.50472
1.50297
1.49925
2.25275
2.19598
2.13817
2.0766
2.02033
1.96607
1.91319
1.85984
1.81488
1.77009
1.72685
1.685
1.65264
1.618
1.58005
1.55792
1.54186
1.51269
1.48973
1.47623
1.45988
1.43793
1.41778
1.39592
1.36951
1.35464
1.35093
1.34716
1.33789
1.32521
1.3116
1.29318
1.27
1.25973
1.25822
1.2561
1.25215
1.24804
1.24486
1.23908
1.22959
1.22844
1.23103
1.23888
1.26304
1.30596
1.34994
1.38789
1.41005
1.42779
1.43937
1.43945
1.44277
1.45422
1.46109
1.46251
1.46226
1.45805
1.45281
1.4493
1.44664
1.44694
1.44978
1.45754
1.46667
1.47028
1.47116
1.47079
1.46715
1.45993
1.45365
1.45057
1.44901
1.44842
1.44886
1.44849
1.44671
1.44461
1.44284
1.4425
1.44233
1.44191
1.44162
1.44188
1.44208
1.44196
1.4409
1.43981
1.43995
1.44106
1.44357
1.44806
1.454
1.45934
1.46273
1.46431
1.46417
1.46289
1.46039
1.45779
1.45486
1.45065
1.44573
1.44399
1.44401
1.44421
1.44451
1.44437
1.44337
1.44223
1.44193
1.44298
1.44624
1.45123
1.45532
1.45744
1.45763
1.45654
1.45292
1.44893
1.44631
1.44582
1.44608
1.44652
1.44654
1.44547
1.44398
1.44156
1.43657
1.43286
1.43234
1.43453
1.44228
1.4546
1.46521
1.47015
1.473
1.47445
1.47461
1.47482
1.47631
1.47975
1.48286
1.48498
1.4862
1.48705
1.48895
1.49253
1.49983
1.51024
1.51594
1.5162
1.51428
1.51005
1.50146
1.49404
1.49308
1.49422
1.49843
1.50104
1.50043
1.49768
1.49359
1.4892
1.48592
1.48466
1.4863
1.49103
1.49228
1.49041
1.48678
1.48204
1.47601
1.47174
1.47134
1.47264
1.47623
1.48406
1.49128
1.49307
1.49218
1.48825
1.48233
1.47852
1.4769
1.47595
1.47604
1.47684