/*--------------------------------*- C++ -*----------------------------------*\
  =========                 |
  \\      /  F ield         | OpenFOAM: The Open Source CFD Toolbox
   \\    /   O peration     | Website:  https://openfoam.org
    \\  /    A nd           | Version:  10
     \\/     M anipulation  |
\*---------------------------------------------------------------------------*/
FoamFile
{
    format      ascii;
    class       volVectorField;
    location    "1";
    object      U;
}
// * * * * * * * * * * * * * * * * * * * * * * * * * * * * * * * * * * * * * //

dimensions      [0 1 -1 0 0 0 0];

internalField   nonuniform List<vector> 
16128
(
(3 6.40019e-15 0)
(3 1.67591e-14 0)
(3 1.42694e-14 0)
(3 3.13575e-14 0)
(3 1.5794e-14 0)
(3 -2.10994e-14 0)
(3 -1.07766e-13 0)
(3 -1.55162e-13 0)
(3 -1.16453e-13 0)
(3 -3.91484e-14 0)
(3 -2.40313e-14 0)
(3 -3.5745e-14 0)
(3 -5.82265e-14 0)
(3 -4.84704e-14 0)
(3 -1.81318e-14 0)
(3 -8.95726e-15 0)
(3 4.3679e-14 0)
(3 4.81525e-14 0)
(3 2.16681e-14 0)
(3 -3.42349e-15 0)
(3 -3.91826e-14 0)
(3 -2.05549e-14 0)
(3 -8.37643e-15 0)
(3 2.54823e-14 0)
(3 5.54316e-14 0)
(3 2.12539e-14 0)
(2.91399 0.00173043 0)
(0.982879 0.0115991 0)
(0.680427 0.0114436 0)
(0.655705 0.00747883 0)
(0.631434 0.00899388 0)
(0.60757 0.0116498 0)
(0.578463 0.0145534 0)
(0.5427 0.0174672 0)
(0.5041 0.0188953 0)
(0.469181 0.0177483 0)
(0.437577 0.0165352 0)
(0.40956 0.0163307 0)
(0.378867 0.0164566 0)
(0.343393 0.0165041 0)
(0.305553 0.0168384 0)
(0.269628 0.0172884 0)
(0.234793 0.0180577 0)
(0.197768 0.0186252 0)
(0.159256 0.0191111 0)
(0.117602 0.0207315 0)
(0.0718973 0.023218 0)
(0.0248532 0.0237691 0)
(3 1.10417e-14 0)
(3 2.45474e-14 0)
(3 5.1669e-14 0)
(3 5.67197e-14 0)
(3 3.42854e-14 0)
(3 -9.21332e-14 0)
(3 -1.68666e-13 0)
(3 -2.00816e-13 0)
(3 -1.80036e-13 0)
(3 -8.22421e-14 0)
(3 -2.30178e-14 0)
(3 -2.15483e-15 0)
(3 -2.03578e-14 0)
(3 -3.53664e-14 0)
(3 -1.16482e-14 0)
(3 -9.51295e-15 0)
(3 8.33608e-15 0)
(3 6.27319e-15 0)
(3 7.76417e-14 0)
(3 1.93727e-14 0)
(3 -1.98396e-14 0)
(3 -3.4305e-14 0)
(3 -6.92693e-15 0)
(3 -9.20064e-16 0)
(3 6.84232e-15 0)
(3 -1.24848e-14 0)
(2.91926 0.0135253 0)
(0.987331 0.0506767 0)
(0.676577 0.0388425 0)
(0.653245 0.0242316 0)
(0.627327 0.0272721 0)
(0.601789 0.0346043 0)
(0.57055 0.0430285 0)
(0.533421 0.0515975 0)
(0.494387 0.0555143 0)
(0.459802 0.0520331 0)
(0.428403 0.0482367 0)
(0.400629 0.0474212 0)
(0.370402 0.0479217 0)
(0.335571 0.0485294 0)
(0.298223 0.0500873 0)
(0.262317 0.0515334 0)
(0.227747 0.0533989 0)
(0.191196 0.0549897 0)
(0.154398 0.056897 0)
(0.114523 0.0629752 0)
(0.0697577 0.0709011 0)
(0.0240505 0.0719989 0)
(3 3.53403e-15 0)
(3 -2.80315e-14 0)
(3 -1.00372e-14 0)
(3 -1.06366e-14 0)
(3 -2.10843e-14 0)
(3 -4.20262e-14 0)
(3 -6.54346e-14 0)
(3 -9.96166e-14 0)
(3 -1.25885e-13 0)
(3 -1.0281e-13 0)
(3 -4.0275e-14 0)
(3 -7.61924e-15 0)
(3 -1.97291e-14 0)
(3 -6.65436e-14 0)
(3 -9.08616e-14 0)
(3 -3.06308e-14 0)
(3 1.48369e-15 0)
(3 9.47753e-15 0)
(3 8.58011e-16 0)
(3 1.17291e-14 0)
(3 -3.0676e-14 0)
(3 -2.45278e-14 0)
(3 1.32017e-14 0)
(3 3.72539e-14 0)
(3 3.01129e-14 0)
(3 -2.87073e-14 0)
(2.94511 0.0272948 0)
(1.01304 0.0830654 0)
(0.691209 0.061296 0)
(0.664871 0.0443502 0)
(0.633186 0.0505433 0)
(0.602356 0.0607831 0)
(0.56814 0.0738952 0)
(0.529864 0.0870612 0)
(0.490185 0.0926445 0)
(0.455384 0.0868358 0)
(0.423541 0.0805427 0)
(0.395296 0.0792552 0)
(0.365095 0.0803202 0)
(0.330593 0.0814073 0)
(0.292847 0.0834967 0)
(0.255539 0.0850633 0)
(0.21969 0.0874057 0)
(0.182563 0.0900068 0)
(0.146904 0.0932749 0)
(0.10868 0.103381 0)
(0.0659191 0.11677 0)
(0.0212054 0.117254 0)
(3 1.10941e-15 0)
(3 -1.85787e-14 0)
(3 -5.11924e-14 0)
(3 -4.54138e-14 0)
(3 -3.80762e-14 0)
(3 -1.46151e-14 0)
(3 -2.17585e-14 0)
(3 -2.14243e-14 0)
(3 2.36602e-14 0)
(3 5.41262e-14 0)
(3 6.02735e-14 0)
(3 5.39639e-14 0)
(3 6.94832e-14 0)
(3 5.41479e-14 0)
(3 3.06234e-14 0)
(3 -3.83559e-14 0)
(3 -4.96243e-14 0)
(3 -2.02146e-14 0)
(3 -6.33386e-14 0)
(3 -7.67334e-14 0)
(3 -8.85557e-14 0)
(3 -7.56822e-14 0)
(3 -1.35955e-14 0)
(3 5.19208e-14 0)
(3 7.5212e-14 0)
(3 1.67819e-14 0)
(2.98581 0.00669749 0)
(1.06316 0.0999788 0)
(0.705894 0.0850516 0)
(0.673029 0.0712804 0)
(0.637927 0.0778667 0)
(0.60483 0.088931 0)
(0.570374 0.105267 0)
(0.532453 0.12249 0)
(0.492584 0.129478 0)
(0.457628 0.121768 0)
(0.425445 0.113305 0)
(0.396549 0.111821 0)
(0.366316 0.113655 0)
(0.332057 0.115415 0)
(0.293573 0.118099 0)
(0.254345 0.119995 0)
(0.216231 0.122859 0)
(0.177175 0.126038 0)
(0.140807 0.129424 0)
(0.102597 0.142373 0)
(0.0617234 0.160456 0)
(0.0198814 0.160692 0)
(3 -4.93448e-16 0)
(3 1.68847e-14 0)
(3 -9.2984e-16 0)
(3 -2.73902e-15 0)
(3 -3.65128e-14 0)
(3 -5.70885e-14 0)
(3 -4.03455e-14 0)
(3 -6.21926e-15 0)
(3 4.35707e-15 0)
(3 -3.76874e-14 0)
(3 -4.42265e-14 0)
(3 -6.2705e-15 0)
(3 2.24097e-14 0)
(3 3.46355e-14 0)
(3 2.65976e-14 0)
(3 1.1388e-14 0)
(3 -7.60533e-14 0)
(3 -1.28672e-13 0)
(3 -1.20093e-13 0)
(3 -9.47695e-14 0)
(3 -4.93768e-14 0)
(3 -2.0161e-14 0)
(3 3.60741e-15 0)
(3 -3.42032e-14 0)
(3 -2.56449e-14 0)
(3 -1.19908e-14 0)
(2.99993 0.00027513 0)
(1.12271 0.126955 0)
(0.711471 0.114041 0)
(0.678073 0.0992098 0)
(0.642828 0.105779 0)
(0.607541 0.117208 0)
(0.572307 0.137158 0)
(0.534079 0.158301 0)
(0.493758 0.166082 0)
(0.459229 0.156438 0)
(0.42773 0.145897 0)
(0.399613 0.144161 0)
(0.370652 0.146988 0)
(0.337788 0.149874 0)
(0.299317 0.153516 0)
(0.258828 0.156349 0)
(0.218666 0.160421 0)
(0.17593 0.164569 0)
(0.136242 0.167617 0)
(0.0975947 0.182979 0)
(0.056154 0.198689 0)
(0.0332867 0.201515 0)
(3 -1.40036e-14 0)
(3 -1.42257e-15 0)
(3 8.20132e-15 0)
(3 -1.92716e-14 0)
(3 -8.75066e-14 0)
(3 -8.69218e-14 0)
(3 -5.07131e-14 0)
(3 -3.42012e-14 0)
(3 -8.91002e-14 0)
(3 -1.19957e-13 0)
(3 -1.31082e-13 0)
(3 -8.77185e-14 0)
(3 4.05527e-15 0)
(3 -2.17759e-15 0)
(3 -5.18899e-14 0)
(3 -6.79568e-14 0)
(3 -2.66428e-14 0)
(3 -6.64055e-14 0)
(3 -6.58736e-14 0)
(3 -1.50389e-15 0)
(3 4.24496e-14 0)
(3 4.58634e-14 0)
(3 6.57735e-15 0)
(3 -6.22941e-15 0)
(3 -4.95394e-14 0)
(3 -8.52272e-14 0)
(3 2.47406e-07 0)
(1.21349 0.157141 0)
(0.722433 0.140799 0)
(0.682943 0.125578 0)
(0.647991 0.13406 0)
(0.610436 0.146768 0)
(0.57378 0.170547 0)
(0.534519 0.194774 0)
(0.494151 0.201912 0)
(0.461699 0.189779 0)
(0.432612 0.177071 0)
(0.406379 0.174984 0)
(0.378879 0.179301 0)
(0.34697 0.18436 0)
(0.307763 0.189971 0)
(0.265724 0.194563 0)
(0.224017 0.200423 0)
(0.1794 0.206323 0)
(0.138551 0.209578 0)
(0.0990369 0.225464 0)
(0.0548107 0.233557 0)
(0.0409174 0.242539 0)
(3 1.75448e-15 0)
(3 -1.60963e-14 0)
(3 -8.23965e-15 0)
(3 -4.0056e-14 0)
(3 -2.74981e-14 0)
(3 2.26232e-14 0)
(3 3.24674e-14 0)
(3 -9.55912e-16 0)
(3 -5.62709e-15 0)
(3 2.33288e-14 0)
(3 1.41126e-14 0)
(3 -2.02927e-14 0)
(3 -3.75611e-15 0)
(3 2.71101e-14 0)
(3 1.41816e-14 0)
(3 -3.67821e-14 0)
(3 -4.32449e-14 0)
(3 -3.57911e-14 0)
(3 -5.02111e-14 0)
(3 -2.15456e-14 0)
(3 5.23415e-14 0)
(3 3.70839e-14 0)
(3 9.63081e-15 0)
(3 3.62429e-15 0)
(3 3.42436e-15 0)
(3 -6.2343e-15 0)
(3 1.1503e-11 0)
(1.34044 0.185964 0)
(0.73714 0.167605 0)
(0.688238 0.152228 0)
(0.652621 0.163174 0)
(0.612299 0.178453 0)
(0.574117 0.205875 0)
(0.533867 0.231088 0)
(0.494995 0.235199 0)
(0.467089 0.22021 0)
(0.441399 0.2059 0)
(0.416984 0.204259 0)
(0.390113 0.211302 0)
(0.357994 0.219767 0)
(0.317416 0.228131 0)
(0.273947 0.234623 0)
(0.231537 0.242089 0)
(0.186035 0.249437 0)
(0.145349 0.253532 0)
(0.105169 0.26918 0)
(0.0591558 0.270612 0)
(0.0416446 0.284277 0)
(3 3.99919e-15 0)
(3 -9.80172e-15 0)
(3 -1.95951e-14 0)
(3 -9.63984e-15 0)
(3 6.6972e-14 0)
(3 1.05923e-13 0)
(3 1.0693e-13 0)
(3 8.03056e-14 0)
(3 5.87651e-14 0)
(3 7.66251e-14 0)
(3 9.07837e-14 0)
(3 -3.26198e-15 0)
(3 -8.12972e-14 0)
(3 -9.3094e-14 0)
(3 -9.79627e-14 0)
(3 1.12176e-14 0)
(3 3.58181e-14 0)
(3 2.51346e-14 0)
(3 -1.0814e-14 0)
(3 -1.01276e-14 0)
(3 1.64758e-14 0)
(3 5.89852e-14 0)
(3 6.35502e-14 0)
(3 3.88677e-14 0)
(3 4.81738e-14 0)
(3 6.75586e-14 0)
(3 8.11327e-14 0)
(1.50902 0.211735 0)
(0.755804 0.196549 0)
(0.692457 0.18116 0)
(0.654691 0.195451 0)
(0.610048 0.212913 0)
(0.571027 0.24199 0)
(0.533391 0.264843 0)
(0.500939 0.26387 0)
(0.479824 0.24631 0)
(0.456047 0.232268 0)
(0.432347 0.232787 0)
(0.405251 0.243825 0)
(0.371682 0.256327 0)
(0.329664 0.267517 0)
(0.284454 0.275671 0)
(0.24084 0.284664 0)
(0.195297 0.293508 0)
(0.155423 0.29889 0)
(0.113997 0.313672 0)
(0.066324 0.315863 0)
(0.0245822 0.322671 0)
(3 6.62555e-16 0)
(3 2.98017e-14 0)
(3 3.22383e-14 0)
(3 5.74789e-14 0)
(3 1.02421e-13 0)
(3 4.79061e-14 0)
(3 9.73785e-15 0)
(3 3.50676e-15 0)
(3 1.03956e-14 0)
(3 2.35031e-14 0)
(3 8.54074e-15 0)
(3 -1.38418e-14 0)
(3 -5.61265e-14 0)
(3 -1.06759e-13 0)
(3 -1.01538e-13 0)
(3 -4.9936e-14 0)
(3 3.57788e-14 0)
(3 8.56316e-14 0)
(3 1.61109e-13 0)
(3 1.67515e-13 0)
(3 1.45765e-13 0)
(3 1.13244e-13 0)
(3 1.17958e-13 0)
(3 1.20435e-13 0)
(3 7.61103e-14 0)
(3 -2.05602e-14 0)
(3 2.86773e-15 0)
(1.72079 0.231333 0)
(0.777515 0.230756 0)
(0.690236 0.213533 0)
(0.648831 0.228961 0)
(0.605886 0.24816 0)
(0.574978 0.276454 0)
(0.544538 0.292455 0)
(0.519318 0.285561 0)
(0.500584 0.267801 0)
(0.475568 0.257638 0)
(0.45074 0.262373 0)
(0.422125 0.278436 0)
(0.38638 0.294973 0)
(0.343007 0.30839 0)
(0.296327 0.317697 0)
(0.25148 0.327993 0)
(0.205796 0.338129 0)
(0.165426 0.344976 0)
(0.123686 0.35875 0)
(0.0763792 0.372168 0)
(0.00923244 0.36613 0)
(3 1.22887e-14 0)
(3 2.80721e-14 0)
(3 5.18812e-14 0)
(3 5.87338e-14 0)
(3 4.74755e-14 0)
(3 2.91496e-14 0)
(3 -3.16176e-15 0)
(3 -4.35587e-14 0)
(3 4.75618e-14 0)
(3 7.47453e-14 0)
(3 4.9324e-14 0)
(3 6.20179e-14 0)
(3 4.07342e-14 0)
(3 6.45829e-14 0)
(3 9.67381e-14 0)
(3 2.5881e-14 0)
(3 -8.4298e-15 0)
(3 1.61142e-14 0)
(3 9.2014e-14 0)
(3 1.19527e-13 0)
(3 1.73069e-13 0)
(3 1.59483e-13 0)
(3 1.51264e-13 0)
(3 1.47925e-13 0)
(3 1.10187e-13 0)
(3 1.95595e-14 0)
(3 1.89299e-14 0)
(1.96877 0.25227 0)
(0.800233 0.276467 0)
(0.688334 0.250591 0)
(0.65294 0.263064 0)
(0.619097 0.280231 0)
(0.596213 0.303329 0)
(0.570223 0.312295 0)
(0.547418 0.303869 0)
(0.524802 0.289411 0)
(0.497504 0.284324 0)
(0.468813 0.295227 0)
(0.437144 0.316887 0)
(0.399394 0.336577 0)
(0.355522 0.350755 0)
(0.308498 0.360346 0)
(0.263022 0.371702 0)
(0.21759 0.38398 0)
(0.175084 0.394005 0)
(0.128638 0.406342 0)
(0.0797871 0.428759 0)
(0.0033154 0.418759 0)
(3 -6.27502e-15 0)
(3 4.05196e-15 0)
(3 1.22731e-14 0)
(3 2.25441e-14 0)
(3 1.97914e-14 0)
(3 2.87395e-14 0)
(3 3.94828e-14 0)
(3 5.47279e-14 0)
(3 5.84527e-14 0)
(3 9.15918e-14 0)
(3 8.68782e-14 0)
(3 3.38716e-14 0)
(3 -8.73146e-15 0)
(3 4.17393e-15 0)
(3 3.25676e-14 0)
(3 -2.54351e-14 0)
(3 -4.39623e-14 0)
(3 -5.64499e-16 0)
(3 1.9962e-14 0)
(3 3.67257e-14 0)
(3 5.55154e-14 0)
(3 9.82247e-14 0)
(3 1.16124e-13 0)
(3 1.20855e-13 0)
(3 1.22199e-13 0)
(3 1.2457e-13 0)
(3 1.00253e-13 0)
(2.26861 0.272208 0)
(0.845227 0.32986 0)
(0.714781 0.282808 0)
(0.684394 0.286754 0)
(0.653592 0.300504 0)
(0.631247 0.322893 0)
(0.60388 0.332659 0)
(0.578188 0.325002 0)
(0.548517 0.315015 0)
(0.516433 0.31516 0)
(0.483091 0.332614 0)
(0.44838 0.359558 0)
(0.409013 0.380907 0)
(0.366351 0.394103 0)
(0.321909 0.402908 0)
(0.278626 0.414824 0)
(0.23569 0.429384 0)
(0.191565 0.444132 0)
(0.139787 0.457537 0)
(0.0879465 0.488667 0)
(0.00540468 0.480266 0)
(3 -6.0329e-15 0)
(3 1.67436e-14 0)
(3 5.6969e-15 0)
(3 1.86835e-14 0)
(3 4.26989e-17 0)
(3 -4.83365e-15 0)
(3 -4.29969e-15 0)
(3 3.19855e-14 0)
(3 1.4695e-14 0)
(3 -2.47845e-14 0)
(3 5.28106e-14 0)
(3 6.65023e-14 0)
(3 6.61719e-14 0)
(3 5.75394e-14 0)
(3 4.88831e-14 0)
(3 4.52605e-14 0)
(3 4.31727e-14 0)
(3 7.67435e-14 0)
(3 1.97238e-14 0)
(3 -3.67786e-14 0)
(3 -7.84099e-14 0)
(3 -7.33815e-14 0)
(3 -2.54941e-14 0)
(3 2.37295e-14 0)
(3 9.05135e-14 0)
(3 1.64658e-13 0)
(3 1.37573e-13 0)
(2.66322 0.252914 0)
(0.940539 0.359162 0)
(0.766276 0.291423 0)
(0.736472 0.300762 0)
(0.696565 0.323181 0)
(0.663089 0.352251 0)
(0.628755 0.362944 0)
(0.598417 0.356116 0)
(0.564123 0.348582 0)
(0.526124 0.352624 0)
(0.486813 0.374188 0)
(0.450807 0.404239 0)
(0.414957 0.425303 0)
(0.379172 0.436036 0)
(0.340757 0.443376 0)
(0.300484 0.456584 0)
(0.257816 0.475941 0)
(0.210428 0.498332 0)
(0.152862 0.516033 0)
(0.0971953 0.555955 0)
(0.0078778 0.553101 0)
(3 2.07091e-14 0)
(3 -1.5054e-14 0)
(3 -4.82657e-14 0)
(3 -5.81735e-14 0)
(3 -4.9434e-14 0)
(3 -3.66783e-14 0)
(3 -5.88375e-14 0)
(3 -3.66765e-14 0)
(3 -5.41221e-14 0)
(3 -7.73e-14 0)
(3 -3.80742e-14 0)
(3 5.40296e-14 0)
(3 8.70694e-14 0)
(3 7.90244e-14 0)
(3 4.1372e-14 0)
(3 9.52353e-14 0)
(3 5.58323e-14 0)
(3 3.43359e-14 0)
(3 4.11734e-14 0)
(3 -2.49445e-14 0)
(3 -8.33224e-14 0)
(3 -1.05207e-13 0)
(3 -6.39666e-14 0)
(3 -4.51386e-14 0)
(3 2.27935e-14 0)
(3 8.72803e-14 0)
(3 4.4243e-14 0)
(2.99705 0.0787854 0)
(1.07505 0.369621 0)
(0.790499 0.314372 0)
(0.762697 0.33832 0)
(0.718008 0.366948 0)
(0.675676 0.394562 0)
(0.633951 0.399732 0)
(0.596428 0.390281 0)
(0.56001 0.383295 0)
(0.522349 0.391189 0)
(0.487814 0.415618 0)
(0.458883 0.445906 0)
(0.43041 0.464735 0)
(0.401843 0.473032 0)
(0.367586 0.482231 0)
(0.32929 0.49916 0)
(0.288609 0.524115 0)
(0.241964 0.553979 0)
(0.181515 0.579748 0)
(0.11942 0.631167 0)
(0.0255502 0.63735 0)
(3 -1.86613e-15 0)
(3 -4.02843e-14 0)
(3 -2.68321e-14 0)
(3 -5.23855e-15 0)
(3 2.41509e-14 0)
(3 -1.63678e-15 0)
(3 -1.40086e-14 0)
(3 -1.97746e-14 0)
(3 -7.81542e-14 0)
(3 -1.38194e-13 0)
(3 -8.23816e-14 0)
(3 -1.03799e-14 0)
(3 3.41253e-14 0)
(3 5.76706e-14 0)
(3 6.31075e-14 0)
(3 6.62006e-14 0)
(3 5.13869e-14 0)
(3 3.60867e-14 0)
(3 4.88609e-14 0)
(3 8.50693e-14 0)
(3 5.69873e-14 0)
(3 6.39212e-14 0)
(3 7.74955e-14 0)
(3 7.83641e-14 0)
(3 7.74393e-14 0)
(3 2.12269e-14 0)
(3 -4.35228e-14 0)
(3.01485 0.00445233 0)
(1.20782 0.362524 0)
(0.783374 0.339905 0)
(0.741836 0.375558 0)
(0.694844 0.408652 0)
(0.656518 0.431819 0)
(0.624299 0.43239 0)
(0.59542 0.422672 0)
(0.564901 0.416786 0)
(0.53228 0.426702 0)
(0.504069 0.451582 0)
(0.481099 0.480248 0)
(0.458917 0.497842 0)
(0.43365 0.5074 0)
(0.40295 0.521253 0)
(0.366034 0.542905 0)
(0.326262 0.574466 0)
(0.277308 0.616308 0)
(0.208223 0.660428 0)
(0.133955 0.726765 0)
(0.0454177 0.745323 0)
(3 -9.27843e-15 0)
(3 -1.91814e-15 0)
(3 1.35555e-14 0)
(3 2.52981e-14 0)
(3 2.10716e-14 0)
(3 1.92787e-14 0)
(3 3.37713e-14 0)
(3 -1.62824e-14 0)
(3 -6.35495e-14 0)
(3 -9.74295e-14 0)
(3 -1.30274e-13 0)
(3 -1.3127e-13 0)
(3 -1.14921e-13 0)
(3 -7.85799e-14 0)
(3 -1.88343e-14 0)
(3 3.03022e-14 0)
(3 3.66451e-14 0)
(3 6.59047e-14 0)
(3 8.32135e-14 0)
(3 1.06364e-13 0)
(3 1.22316e-13 0)
(3 1.44164e-13 0)
(3 1.59591e-13 0)
(3 1.54023e-13 0)
(3 1.27357e-13 0)
(3 9.49212e-14 0)
(3 1.88778e-14 0)
(3.00022 8.75608e-06 0)
(1.45576 0.394193 0)
(0.779919 0.376407 0)
(0.713642 0.408413 0)
(0.685433 0.445359 0)
(0.659045 0.464173 0)
(0.636381 0.461662 0)
(0.613477 0.452426 0)
(0.587695 0.447273 0)
(0.560171 0.457065 0)
(0.53672 0.480634 0)
(0.517964 0.508317 0)
(0.499795 0.527967 0)
(0.476809 0.540699 0)
(0.448676 0.560181 0)
(0.41282 0.589 0)
(0.372481 0.63173 0)
(0.325988 0.688228 0)
(0.263356 0.752146 0)
(0.184064 0.831058 0)
(0.112561 0.862518 0)
(3 -1.74382e-15 0)
(3 1.23393e-14 0)
(3 -1.54162e-15 0)
(3 -3.40618e-14 0)
(3 -7.5201e-14 0)
(3 -8.58029e-15 0)
(3 2.593e-14 0)
(3 -1.71737e-14 0)
(3 -2.76421e-14 0)
(3 -8.06361e-14 0)
(3 -1.37689e-13 0)
(3 -1.64056e-13 0)
(3 -1.58557e-13 0)
(3 -1.42303e-13 0)
(3 -3.65568e-14 0)
(3 5.68795e-14 0)
(3 9.53608e-14 0)
(3 1.15414e-13 0)
(3 1.26828e-13 0)
(3 1.09004e-13 0)
(3 1.56372e-13 0)
(3 1.4222e-13 0)
(3 1.35323e-13 0)
(3 7.5247e-14 0)
(3 4.69171e-14 0)
(3 8.84717e-14 0)
(3 6.91054e-14 0)
(3 -1.26785e-08 0)
(1.88789 0.43305 0)
(0.830775 0.445371 0)
(0.730092 0.444902 0)
(0.711829 0.471816 0)
(0.690132 0.48422 0)
(0.671335 0.482686 0)
(0.651843 0.476754 0)
(0.629536 0.473446 0)
(0.605913 0.483497 0)
(0.585479 0.506281 0)
(0.569146 0.53379 0)
(0.553601 0.555242 0)
(0.531914 0.570455 0)
(0.505527 0.595899 0)
(0.470766 0.633727 0)
(0.433134 0.687019 0)
(0.39011 0.755032 0)
(0.331863 0.855716 0)
(0.22357 0.990547 0)
(0.166341 1.0951 0)
(3 -7.06621e-15 0)
(3 -4.15287e-15 0)
(3 -1.75386e-14 0)
(3 -3.6902e-14 0)
(3 -4.97235e-14 0)
(3 -7.03098e-14 0)
(3 -6.80873e-14 0)
(3 -5.98181e-14 0)
(3 -4.93706e-14 0)
(3 2.84949e-14 0)
(3 4.3554e-14 0)
(3 3.70296e-14 0)
(3 5.5092e-14 0)
(3 5.97873e-14 0)
(3 4.76507e-14 0)
(3 -1.97293e-14 0)
(3 2.36427e-15 0)
(3 4.53303e-15 0)
(3 3.91078e-14 0)
(3 7.75486e-14 0)
(3 5.35851e-15 0)
(3 -1.42207e-14 0)
(3 3.84989e-15 0)
(3 4.55901e-14 0)
(3 5.03953e-14 0)
(3 3.95169e-14 0)
(3 1.38951e-13 0)
(3 -2.63212e-09 0)
(2.52313 0.352954 0)
(0.958853 0.50446 0)
(0.802501 0.44928 0)
(0.777291 0.476594 0)
(0.749243 0.492068 0)
(0.725686 0.496257 0)
(0.70366 0.494763 0)
(0.68112 0.494478 0)
(0.658534 0.505959 0)
(0.639415 0.529377 0)
(0.623304 0.558327 0)
(0.608212 0.583796 0)
(0.586031 0.604282 0)
(0.559118 0.637008 0)
(0.524858 0.682972 0)
(0.491471 0.747939 0)
(0.449946 0.837173 0)
(0.428228 0.978471 0)
(0.413707 1.14336 0)
(0.56576 1.41844 0)
(3 -2.21023e-15 0)
(3 -8.92463e-15 0)
(3 2.01447e-15 0)
(3 -1.41212e-14 0)
(3 7.33033e-15 0)
(3 -5.76212e-14 0)
(3 -6.39697e-14 0)
(3 -3.17434e-14 0)
(3 1.88323e-14 0)
(3 1.88816e-14 0)
(3 5.49088e-14 0)
(3 7.97281e-14 0)
(3 8.37962e-14 0)
(3 7.56052e-14 0)
(3 3.41677e-14 0)
(3 -4.29889e-14 0)
(3 -2.5045e-14 0)
(3 -1.28793e-14 0)
(3 -3.68124e-14 0)
(3 -7.5257e-14 0)
(3 -1.25235e-13 0)
(3 -1.14224e-13 0)
(3 -2.33492e-14 0)
(3 6.68339e-15 0)
(3 -1.65588e-14 0)
(3 -3.99329e-14 0)
(3 4.53809e-14 0)
(3 -3.66306e-10 0)
(3.036 0.077789 0)
(1.1644 0.490693 0)
(0.857104 0.485741 0)
(0.824012 0.515884 0)
(0.795651 0.521461 0)
(0.770437 0.521152 0)
(0.744916 0.520057 0)
(0.719003 0.520912 0)
(0.693665 0.533283 0)
(0.673289 0.55807 0)
(0.656646 0.589423 0)
(0.642606 0.619649 0)
(0.622809 0.645092 0)
(0.601536 0.682062 0)
(0.574839 0.73208 0)
(0.55352 0.804629 0)
(0.538153 0.906841 0)
(0.55419 1.04857 0)
(0.64602 1.20615 0)
(0.968521 1.41359 0)
(3 1.01672e-14 0)
(3 1.89077e-14 0)
(3 1.11015e-15 0)
(3 -1.31956e-14 0)
(3 -1.16009e-14 0)
(3 2.10269e-14 0)
(3 6.49147e-14 0)
(3 1.2353e-14 0)
(3 -2.3792e-14 0)
(3 -2.64424e-14 0)
(3 1.00003e-14 0)
(3 3.44572e-14 0)
(3 3.45218e-14 0)
(3 6.67622e-14 0)
(3 6.03767e-14 0)
(3 2.57784e-14 0)
(3 -1.47561e-14 0)
(3 1.3415e-14 0)
(3 2.5019e-14 0)
(3 2.65147e-14 0)
(3 5.02151e-14 0)
(3 6.89448e-14 0)
(3 2.15698e-14 0)
(3 -1.7773e-14 0)
(3 -3.89765e-14 0)
(3 -6.67874e-14 0)
(3 1.09457e-14 0)
(3 -5.68877e-11 0)
(3.01337 0.00211628 0)
(1.35355 0.476974 0)
(0.843216 0.528775 0)
(0.815687 0.546001 0)
(0.793859 0.550266 0)
(0.774788 0.55223 0)
(0.753717 0.552736 0)
(0.732459 0.55201 0)
(0.711713 0.561043 0)
(0.694949 0.58324 0)
(0.680598 0.614897 0)
(0.670368 0.649411 0)
(0.65594 0.680269 0)
(0.642524 0.720853 0)
(0.627088 0.773923 0)
(0.621625 0.848463 0)
(0.631206 0.949111 0)
(0.686082 1.07198 0)
(0.843717 1.21082 0)
(1.17696 1.33264 0)
(3 3.46141e-15 0)
(3 -1.98385e-14 0)
(3 -2.74152e-14 0)
(3 -4.79903e-14 0)
(3 -4.17546e-14 0)
(3 -1.54344e-14 0)
(3 -1.85754e-14 0)
(3 -4.35796e-14 0)
(3 -9.40908e-14 0)
(3 -2.01099e-14 0)
(3 1.8256e-14 0)
(3 5.73904e-14 0)
(3 5.77203e-14 0)
(3 1.9059e-14 0)
(3 4.45198e-14 0)
(3 1.31729e-14 0)
(3 1.39677e-14 0)
(3 -5.41659e-14 0)
(3 -7.06273e-14 0)
(3 -4.52667e-15 0)
(3 -3.46799e-15 0)
(3 1.12982e-14 0)
(3 -9.95939e-15 0)
(3 -1.14336e-13 0)
(3 -1.23135e-13 0)
(3 -1.13188e-13 0)
(3 2.95596e-14 0)
(3 -4.81878e-12 0)
(3.0001 -8.17433e-07 0)
(1.79777 0.506685 0)
(0.869515 0.560126 0)
(0.819136 0.56129 0)
(0.806247 0.571275 0)
(0.790444 0.577309 0)
(0.771107 0.581553 0)
(0.751822 0.580511 0)
(0.732289 0.58792 0)
(0.716217 0.608673 0)
(0.703396 0.6405 0)
(0.696702 0.67796 0)
(0.688972 0.712998 0)
(0.68459 0.75419 0)
(0.682021 0.805565 0)
(0.69227 0.875147 0)
(0.721896 0.966983 0)
(0.807371 1.07547 0)
(0.984795 1.18244 0)
(1.2765 1.25574 0)
(3 -1.54192e-14 0)
(3 -1.99908e-14 0)
(3 -1.57998e-14 0)
(3 -2.25001e-14 0)
(3 -3.03069e-14 0)
(3 -4.2252e-14 0)
(3 -5.53665e-14 0)
(3 -4.25333e-15 0)
(3 2.73595e-14 0)
(3 3.83419e-14 0)
(3 4.01478e-14 0)
(3 2.88928e-14 0)
(3 -2.68755e-15 0)
(3 2.95836e-15 0)
(3 2.46786e-14 0)
(3 7.65883e-15 0)
(3 -2.64347e-14 0)
(3 -6.15759e-14 0)
(3 -1.30521e-13 0)
(3 -8.58977e-14 0)
(3 -8.00025e-14 0)
(3 -7.28959e-14 0)
(3 -7.40072e-14 0)
(3 -1.768e-13 0)
(3 -1.98642e-13 0)
(3 -1.79221e-13 0)
(3 -8.61557e-14 0)
(3 -1.50573e-13 0)
(3 -2.60994e-07 0)
(2.52826 0.394774 0)
(1.00257 0.603084 0)
(0.865738 0.566034 0)
(0.844578 0.581684 0)
(0.823985 0.594077 0)
(0.803782 0.60387 0)
(0.78438 0.604349 0)
(0.764349 0.610368 0)
(0.74665 0.629838 0)
(0.73301 0.662374 0)
(0.727523 0.702829 0)
(0.725379 0.741618 0)
(0.729316 0.782012 0)
(0.738459 0.828887 0)
(0.761374 0.889065 0)
(0.807456 0.96691 0)
(0.907576 1.05809 0)
(1.07696 1.13524 0)
(1.31534 1.17999 0)
(3 2.0488e-15 0)
(3 -3.47579e-15 0)
(3 -2.98343e-14 0)
(3 4.80895e-15 0)
(3 2.7385e-14 0)
(3 2.98884e-14 0)
(3 -9.42925e-15 0)
(3 4.59739e-14 0)
(3 8.66994e-14 0)
(3 1.07925e-13 0)
(3 1.25279e-13 0)
(3 8.20689e-14 0)
(3 -3.68557e-14 0)
(3 -1.66763e-14 0)
(3 2.87797e-14 0)
(3 1.34248e-13 0)
(3 9.83402e-14 0)
(3 8.01571e-14 0)
(3 1.18833e-14 0)
(3 -4.9564e-14 0)
(3 -5.43918e-14 0)
(3 -5.33706e-14 0)
(3 -7.3443e-14 0)
(3 -1.15291e-13 0)
(3 -1.1802e-13 0)
(3 -1.24743e-13 0)
(3 -1.10967e-13 0)
(3 -1.02462e-13 0)
(3 -7.64456e-08 0)
(3.07914 0.0608039 0)
(1.26625 0.589468 0)
(0.929108 0.599504 0)
(0.88987 0.613911 0)
(0.855247 0.622289 0)
(0.829402 0.633031 0)
(0.809278 0.634976 0)
(0.790758 0.639992 0)
(0.774636 0.657088 0)
(0.76418 0.687204 0)
(0.762088 0.726424 0)
(0.765749 0.766039 0)
(0.777134 0.804865 0)
(0.795136 0.846505 0)
(0.828628 0.897137 0)
(0.887093 0.958946 0)
(0.990155 1.03286 0)
(1.14134 1.08782 0)
(1.33954 1.11766 0)
(3 3.49931e-14 0)
(3 1.55772e-14 0)
(3 -4.36871e-14 0)
(3 -1.14052e-14 0)
(3 -6.8937e-15 0)
(3 -1.26508e-14 0)
(3 9.34993e-15 0)
(3 4.83448e-14 0)
(3 6.33338e-14 0)
(3 5.97291e-14 0)
(3 5.25284e-14 0)
(3 -1.07071e-14 0)
(3 -6.90452e-14 0)
(3 -6.93717e-14 0)
(3 1.38008e-14 0)
(3 8.45267e-14 0)
(3 2.44977e-14 0)
(3 -1.99636e-14 0)
(3 -6.00524e-15 0)
(3 -7.34099e-14 0)
(3 -8.23794e-14 0)
(3 -4.21913e-14 0)
(3 -1.1787e-14 0)
(3 -6.7699e-15 0)
(3 -2.44919e-14 0)
(3 -8.87513e-15 0)
(3 -2.84919e-14 0)
(3 -5.51023e-14 0)
(3 -7.20141e-09 0)
(3.00923 0.000461291 0)
(1.56202 0.574064 0)
(0.919064 0.647489 0)
(0.888369 0.650237 0)
(0.869619 0.655635 0)
(0.853324 0.660712 0)
(0.839784 0.659869 0)
(0.824167 0.663399 0)
(0.810175 0.678405 0)
(0.802862 0.7068 0)
(0.803686 0.744873 0)
(0.811978 0.784651 0)
(0.827352 0.822611 0)
(0.851908 0.858648 0)
(0.893919 0.899037 0)
(0.95739 0.943968 0)
(1.05522 0.999984 0)
(1.18819 1.04028 0)
(1.35112 1.05858 0)
(3 1.87243e-14 0)
(3 4.09374e-14 0)
(3 4.09347e-14 0)
(3 4.02019e-15 0)
(3 -2.22003e-15 0)
(3 1.76235e-14 0)
(3 1.04726e-13 0)
(3 8.60432e-14 0)
(3 4.38366e-14 0)
(3 1.28932e-14 0)
(3 -3.73213e-14 0)
(3 -7.06471e-14 0)
(3 -1.28386e-14 0)
(3 1.74156e-14 0)
(3 4.30486e-14 0)
(3 2.26056e-14 0)
(3 6.14628e-14 0)
(3 6.04758e-17 0)
(3 -8.5335e-15 0)
(3 -3.24115e-14 0)
(3 -4.62233e-14 0)
(3 -5.45138e-14 0)
(3 2.74892e-14 0)
(3 6.83527e-14 0)
(3 1.29372e-13 0)
(3 1.50458e-13 0)
(3 1.12164e-13 0)
(3 4.54696e-14 0)
(3 -1.71468e-10 0)
(3.00004 -1.8378e-06 0)
(2.30563 0.498551 0)
(1.01043 0.677262 0)
(0.919658 0.659879 0)
(0.904849 0.669011 0)
(0.89032 0.67557 0)
(0.878208 0.679309 0)
(0.863827 0.685358 0)
(0.85132 0.69981 0)
(0.846575 0.72628 0)
(0.84955 0.762102 0)
(0.861414 0.801676 0)
(0.878141 0.837555 0)
(0.908372 0.870431 0)
(0.956089 0.903289 0)
(1.0211 0.935705 0)
(1.11471 0.976461 0)
(1.23184 1.00487 0)
(1.37125 1.01593 0)
(3 -3.53736e-14 0)
(3 -5.27965e-15 0)
(3 4.83669e-14 0)
(3 5.54055e-14 0)
(3 5.96354e-14 0)
(3 7.22295e-14 0)
(3 9.26094e-14 0)
(3 6.63872e-14 0)
(3 -3.13545e-15 0)
(3 -2.70841e-14 0)
(3 -6.86872e-14 0)
(3 -4.35129e-14 0)
(3 7.26643e-15 0)
(3 -1.86531e-14 0)
(3 -4.55761e-14 0)
(3 4.49834e-14 0)
(3 2.33783e-13 0)
(3 1.82206e-13 0)
(3 1.13707e-13 0)
(3 9.12243e-14 0)
(3 9.52751e-14 0)
(3 4.19434e-14 0)
(3 -4.82616e-16 0)
(3 7.06212e-14 0)
(3 1.13821e-13 0)
(3 1.28518e-13 0)
(3 9.99168e-14 0)
(3 4.26673e-14 0)
(3 -2.80404e-13 0)
(3 -9.51329e-07 0)
(3.07278 0.102301 0)
(1.28375 0.667544 0)
(0.988687 0.684922 0)
(0.960256 0.689476 0)
(0.933389 0.696906 0)
(0.913188 0.702615 0)
(0.898039 0.709876 0)
(0.889523 0.721561 0)
(0.88932 0.744182 0)
(0.896427 0.776283 0)
(0.909625 0.813755 0)
(0.929591 0.845905 0)
(0.962585 0.873629 0)
(1.01083 0.900375 0)
(1.07439 0.923737 0)
(1.16175 0.951118 0)
(1.26433 0.969351 0)
(1.38821 0.97548 0)
(3 -2.54523e-14 0)
(3 -2.87431e-14 0)
(3 -6.77017e-15 0)
(3 1.57347e-14 0)
(3 4.46299e-14 0)
(3 8.96729e-14 0)
(3 8.16196e-14 0)
(3 8.96598e-14 0)
(3 4.73904e-14 0)
(3 3.58142e-14 0)
(3 2.63756e-14 0)
(3 2.79612e-16 0)
(3 -4.73791e-14 0)
(3 -1.08369e-13 0)
(3 -1.11028e-13 0)
(3 1.39468e-14 0)
(3 4.15998e-14 0)
(3 1.01077e-13 0)
(3 1.37189e-13 0)
(3 1.68077e-13 0)
(3 1.06386e-13 0)
(3 8.00272e-14 0)
(3 5.98886e-14 0)
(3 5.22279e-14 0)
(3 3.49993e-14 0)
(3 -1.66231e-14 0)
(3 -2.08898e-14 0)
(3 -5.27183e-14 0)
(3 -5.45407e-16 0)
(3 -1.33659e-07 0)
(3.01627 0.00112509 0)
(1.63304 0.645385 0)
(0.995923 0.735082 0)
(0.968221 0.722073 0)
(0.953474 0.731309 0)
(0.941186 0.732177 0)
(0.932874 0.730025 0)
(0.928315 0.73712 0)
(0.93126 0.756919 0)
(0.942232 0.787818 0)
(0.955618 0.823387 0)
(0.979238 0.854607 0)
(1.01431 0.879949 0)
(1.06076 0.902475 0)
(1.12214 0.921614 0)
(1.202 0.939432 0)
(1.29428 0.949245 0)
(1.40489 0.953649 0)
(3 9.11211e-15 0)
(3 -7.60467e-16 0)
(3 5.36855e-15 0)
(3 -1.59396e-14 0)
(3 -8.50227e-15 0)
(3 2.78976e-14 0)
(3 6.76962e-14 0)
(3 1.12069e-13 0)
(3 1.79963e-13 0)
(3 1.31107e-13 0)
(3 1.44926e-13 0)
(3 1.38422e-13 0)
(3 1.05108e-13 0)
(3 2.99274e-14 0)
(3 -1.89339e-15 0)
(3 -1.11155e-13 0)
(3 -1.24578e-13 0)
(3 -4.22096e-14 0)
(3 6.70772e-14 0)
(3 5.96302e-14 0)
(3 5.10655e-14 0)
(3 7.18137e-14 0)
(3 1.21586e-13 0)
(3 8.89158e-14 0)
(3 6.54171e-14 0)
(3 3.83674e-14 0)
(3 -6.5338e-16 0)
(3 -4.24694e-14 0)
(3 -1.01928e-14 0)
(3 -6.54563e-09 0)
(3.00011 -4.78354e-07 0)
(2.50684 0.453454 0)
(1.11601 0.740657 0)
(1.005 0.724814 0)
(0.991535 0.736629 0)
(0.981354 0.748128 0)
(0.974522 0.747572 0)
(0.970148 0.75209 0)
(0.972589 0.768041 0)
(0.984726 0.79607 0)
(0.99896 0.827157 0)
(1.02335 0.856161 0)
(1.05897 0.878867 0)
(1.1029 0.897691 0)
(1.16008 0.913325 0)
(1.23034 0.923863 0)
(1.31458 0.928956 0)
(1.41054 0.931411 0)
(3 2.74855e-14 0)
(3 3.19405e-14 0)
(3 1.32728e-14 0)
(3 -1.36834e-14 0)
(3 -2.13585e-14 0)
(3 -1.82053e-14 0)
(3 6.87585e-15 0)
(3 9.03592e-14 0)
(3 1.24803e-13 0)
(3 1.01865e-13 0)
(3 4.59565e-14 0)
(3 8.34989e-14 0)
(3 1.04487e-13 0)
(3 8.60365e-14 0)
(3 5.21652e-14 0)
(3 -6.1225e-15 0)
(3 3.34622e-14 0)
(3 2.88428e-14 0)
(3 7.67024e-14 0)
(3 -9.20211e-15 0)
(3 -3.20829e-14 0)
(3 -1.23981e-14 0)
(3 1.10232e-14 0)
(3 3.96232e-14 0)
(3 -1.13959e-14 0)
(3 1.5383e-14 0)
(3 2.17509e-15 0)
(3 -8.98192e-15 0)
(3 -1.3256e-14 0)
(3 -1.57716e-11 0)
(3.00001 -2.12561e-06 0)
(3.07426 0.0559883 0)
(1.39318 0.703583 0)
(1.05065 0.76131 0)
(1.02271 0.765285 0)
(1.00739 0.773573 0)
(1.00405 0.772337 0)
(1.00503 0.77263 0)
(1.00918 0.784118 0)
(1.02174 0.807866 0)
(1.03844 0.836597 0)
(1.06248 0.861266 0)
(1.0971 0.883541 0)
(1.13977 0.901386 0)
(1.19267 0.913867 0)
(1.25557 0.919846 0)
(1.33165 0.922559 0)
(1.41497 0.921931 0)
(3 1.01822e-14 0)
(3 -1.25544e-15 0)
(3 -2.14171e-14 0)
(3 -5.67297e-15 0)
(3 -1.386e-14 0)
(3 -6.43311e-14 0)
(3 -4.19295e-14 0)
(3 -1.83583e-14 0)
(3 -3.21989e-14 0)
(3 9.99805e-15 0)
(3 -3.10506e-14 0)
(3 -2.75451e-14 0)
(3 1.42827e-14 0)
(3 9.25393e-14 0)
(3 8.0084e-14 0)
(3 9.13851e-14 0)
(3 7.34662e-14 0)
(3 -1.52351e-14 0)
(3 -2.00889e-14 0)
(3 -3.43575e-14 0)
(3 1.79616e-14 0)
(3 6.25276e-14 0)
(3 2.34113e-14 0)
(3 -8.96845e-15 0)
(3 -5.9447e-14 0)
(3 -1.08317e-13 0)
(3 -5.28169e-14 0)
(3 -3.92534e-14 0)
(3 -6.14527e-14 0)
(3 -1.41052e-13 0)
(3 -3.21766e-07 0)
(3.0064 0.000521104 0)
(1.97647 0.667389 0)
(1.07794 0.80874 0)
(1.04627 0.78713 0)
(1.03873 0.786875 0)
(1.03806 0.78387 0)
(1.04165 0.782954 0)
(1.04664 0.79141 0)
(1.05826 0.812534 0)
(1.07525 0.839445 0)
(1.09836 0.861494 0)
(1.13075 0.881185 0)
(1.17147 0.896615 0)
(1.21949 0.906046 0)
(1.27608 0.909827 0)
(1.34296 0.911112 0)
(1.41803 0.908577 0)
(3 -1.66132e-14 0)
(3 -2.9376e-14 0)
(3 -4.11497e-14 0)
(3 -1.5424e-14 0)
(3 -5.45422e-16 0)
(3 -6.63428e-14 0)
(3 -1.10785e-13 0)
(3 -1.17614e-13 0)
(3 -1.04098e-13 0)
(3 -4.92158e-14 0)
(3 -4.72441e-14 0)
(3 -5.36064e-14 0)
(3 -3.68992e-14 0)
(3 4.14336e-14 0)
(3 3.24645e-14 0)
(3 -1.13542e-14 0)
(3 -8.15256e-14 0)
(3 -2.6945e-14 0)
(3 -1.83779e-14 0)
(3 -2.10987e-14 0)
(3 -7.81197e-15 0)
(3 4.08523e-15 0)
(3 1.11068e-14 0)
(3 -1.61363e-14 0)
(3 -2.58253e-14 0)
(3 -5.72393e-14 0)
(3 -1.26464e-13 0)
(3 -1.17259e-13 0)
(3 -1.03144e-13 0)
(3 -4.89881e-14 0)
(3 -1.69831e-08 0)
(3.00002 1.22362e-06 0)
(2.98971 0.211071 0)
(1.32368 0.778483 0)
(1.09862 0.795361 0)
(1.09154 0.796983 0)
(1.08123 0.801327 0)
(1.081 0.797559 0)
(1.0823 0.802177 0)
(1.09128 0.82315 0)
(1.10773 0.846801 0)
(1.13154 0.866456 0)
(1.16274 0.884492 0)
(1.20116 0.898781 0)
(1.24541 0.906815 0)
(1.29672 0.909092 0)
(1.35571 0.907975 0)
(1.42374 0.90328 0)
(3 -1.08974e-14 0)
(3 4.99725e-15 0)
(3 2.38542e-14 0)
(3 1.7412e-14 0)
(3 7.97611e-15 0)
(3 -6.52678e-15 0)
(3 -7.96401e-14 0)
(3 -1.23335e-13 0)
(3 -5.22369e-14 0)
(3 -6.05671e-14 0)
(3 -2.03035e-14 0)
(3 2.19687e-14 0)
(3 4.91815e-15 0)
(3 2.02522e-14 0)
(3 4.08444e-14 0)
(3 -4.61382e-15 0)
(3 -6.75687e-14 0)
(3 -4.36646e-14 0)
(3 -7.57111e-14 0)
(3 -6.06736e-14 0)
(3 -4.1651e-14 0)
(3 -4.90943e-14 0)
(3 -4.8803e-14 0)
(3 -8.85933e-14 0)
(3 -6.50383e-14 0)
(3 -4.04271e-14 0)
(3 -2.18194e-14 0)
(3 -1.561e-14 0)
(3 -1.997e-14 0)
(3 5.00569e-14 0)
(3 -3.94665e-11 0)
(3 -3.58632e-07 0)
(3.03192 0.00481008 0)
(1.71981 0.74658 0)
(1.1173 0.844572 0)
(1.10743 0.830896 0)
(1.10885 0.826704 0)
(1.10734 0.824259 0)
(1.10967 0.824076 0)
(1.11844 0.838669 0)
(1.1377 0.853379 0)
(1.16371 0.868885 0)
(1.19452 0.883193 0)