/*--------------------------------*- C++ -*----------------------------------*\
  =========                 |
  \\      /  F ield         | OpenFOAM: The Open Source CFD Toolbox
   \\    /   O peration     | Website:  https://openfoam.org
    \\  /    A nd           | Version:  10
     \\/     M anipulation  |
\*---------------------------------------------------------------------------*/
FoamFile
{
    format      ascii;
    class       volScalarField;
    location    "73";
    object      p;
}
// * * * * * * * * * * * * * * * * * * * * * * * * * * * * * * * * * * * * * //

dimensions      [0 2 -2 0 0 0 0];

internalField   nonuniform List<scalar> 
2200
(
0.772905
0.751408
0.735505
0.719845
0.705243
0.692738
0.682402
0.674324
0.668639
0.665772
0.666307
0.67012
0.676522
0.685117
0.695816
0.708604
0.723405
0.73934
0.755388
0.776887
0.705322
0.702064
0.699142
0.69503
0.689579
0.68312
0.676524
0.670602
0.666144
0.663837
0.664388
0.667722
0.672931
0.679409
0.686417
0.693186
0.698862
0.702964
0.705816
0.70918
0.665373
0.665596
0.667666
0.669022
0.669424
0.668586
0.666627
0.663986
0.66149
0.66004
0.660666
0.6632
0.666522
0.669778
0.672132
0.67314
0.672873
0.671882
0.670247
0.669999
0.642872
0.644326
0.646923
0.649378
0.651834
0.653872
0.655049
0.655311
0.654985
0.654761
0.65545
0.656925
0.658178
0.658605
0.65795
0.656301
0.654156
0.651978
0.649372
0.647969
0.628467
0.630439
0.633264
0.636114
0.638993
0.641847
0.644339
0.646244
0.647519
0.64837
0.649182
0.649734
0.649563
0.648512
0.646688
0.644344
0.641817
0.639103
0.636316
0.634394
0.621066
0.622664
0.624877
0.627421
0.630106
0.6328
0.635425
0.637889
0.639967
0.641555
0.64253
0.642648
0.641888
0.640436
0.638586
0.63648
0.634177
0.631846
0.629753
0.628178
0.617578
0.6186
0.619879
0.621764
0.623933
0.626134
0.628372
0.630722
0.633025
0.634973
0.636113
0.636237
0.635543
0.634404
0.633064
0.631545
0.629873
0.628315
0.627209
0.626193
0.614838
0.615507
0.616148
0.617468
0.619109
0.620833
0.62264
0.624639
0.626803
0.628881
0.630269
0.630704
0.630485
0.629946
0.629231
0.628337
0.627322
0.626421
0.625987
0.625308
0.611491
0.611935
0.612341
0.613359
0.614653
0.616081
0.61764
0.619394
0.621367
0.623471
0.625152
0.626089
0.626474
0.626514
0.626307
0.625896
0.62536
0.624861
0.624689
0.624222
0.607328
0.607624
0.607991
0.608881
0.610022
0.611338
0.612836
0.614533
0.616465
0.618664
0.620729
0.622225
0.623147
0.623654
0.623835
0.623776
0.623539
0.623252
0.623141
0.622813
0.602459
0.602659
0.603036
0.603888
0.605018
0.606378
0.607975
0.609818
0.611929
0.614374
0.616874
0.618911
0.620306
0.621168
0.621631
0.621822
0.621779
0.62165
0.621565
0.621323
0.597111
0.597255
0.597637
0.598471
0.59965
0.601135
0.60292
0.605015
0.607462
0.610336
0.613407
0.615988
0.617816
0.619014
0.619737
0.620113
0.620286
0.620311
0.620261
0.620065
0.591298
0.591406
0.591791
0.592629
0.593887
0.595532
0.597563
0.600004
0.602936
0.606422
0.610148
0.613325
0.615618
0.617182
0.618211
0.618862
0.619261
0.619426
0.619419
0.619244
0.585039
0.585099
0.585494
0.586379
0.587767
0.589618
0.591938
0.594792
0.598293
0.602539
0.607076
0.61094
0.613779
0.615805
0.617235
0.618209
0.618859
0.61918
0.619216
0.619047
0.578255
0.578289
0.578721
0.579642
0.581167
0.583221
0.585837
0.589151
0.593323
0.598435
0.604018
0.60876
0.612291
0.614907
0.616841
0.618223
0.61915
0.619635
0.619721
0.619549
0.570786
0.570744
0.571181
0.572217
0.573968
0.576301
0.579315
0.583199
0.588175
0.594331
0.601014
0.606835
0.611254
0.614606
0.617132
0.618958
0.620205
0.620867
0.621004
0.620826
0.562382
0.562388
0.562822
0.563943
0.565956
0.568634
0.57214
0.576702
0.582592
0.590023
0.598116
0.60521
0.610728
0.614928
0.618134
0.620512
0.622122
0.62296
0.623151
0.622958
0.552808
0.552822
0.553287
0.554569
0.556876
0.559981
0.564115
0.56954
0.576579
0.585466
0.595303
0.603923
0.610707
0.615947
0.619955
0.62292
0.624941
0.625978
0.626222
0.626009
0.541718
0.541686
0.54226
0.543763
0.546435
0.550138
0.555105
0.561626
0.570101
0.580835
0.59265
0.60314
0.611352
0.617728
0.622616
0.626296
0.628784
0.630007
0.630295
0.630055
0.528555
0.528487
0.52918
0.531055
0.534276
0.538751
0.544795
0.552741
0.563038
0.576034
0.590236
0.60274
0.612576
0.620282
0.62622
0.630678
0.633668
0.635093
0.635408
0.635136
0.512902
0.51279
0.513575
0.515824
0.519825
0.52542
0.532929
0.54277
0.555414
0.571122
0.588137
0.602961
0.614652
0.62375
0.630798
0.636117
0.639626
0.641219
0.641543
0.641239
0.493883
0.493802
0.494825
0.497615
0.502603
0.509668
0.519151
0.531486
0.547116
0.566129
0.586288
0.603748
0.617378
0.62807
0.636398
0.642643
0.646661
0.648403
0.648692
0.648358
0.47046
0.470314
0.471653
0.475288
0.481733
0.490904
0.503133
0.518812
0.538176
0.561131
0.584903
0.605193
0.620982
0.633324
0.642933
0.650132
0.654614
0.65645
0.65666
0.656307
0.440208
0.44024
0.442376
0.447492
0.456359
0.468789
0.484917
0.504916
0.528773
0.55623
0.584042
0.607418
0.625458
0.639494
0.650455
0.658517
0.663318
0.665166
0.665258
0.664898
0.400439
0.400687
0.404271
0.412363
0.425266
0.442673
0.464169
0.48963
0.518875
0.551522
0.583741
0.610312
0.630643
0.646462
0.6587
0.667525
0.672482
0.674204
0.674159
0.673815
0.347452
0.347961
0.355154
0.368519
0.387999
0.412723
0.441309
0.473504
0.509069
0.547456
0.584242
0.614034
0.636675
0.654167
0.667636
0.67695
0.681653
0.682925
0.682754
0.682475
0.27833
0.281026
0.296436
0.31845
0.347008
0.380661
0.417463
0.457169
0.499605
0.544234
0.586084
0.619569
0.644875
0.664402
0.679067
0.688701
0.692985
0.693618
0.693501
0.69328
0.199806
0.209668
0.235356
0.267001
0.30576
0.348691
0.393814
0.441218
0.490866
0.542211
0.589608
0.627241
0.655488
0.67697
0.692851
0.702423
0.706022
0.706114
0.706136
0.705991
0.129674
0.14423
0.176778
0.217653
0.26618
0.318028
0.37121
0.426353
0.483244
0.541148
0.593877
0.635331
0.66627
0.689485
0.706148
0.715305
0.718293
0.718142
0.71829
0.718194
0.0759563
0.0899641
0.127017
0.173923
0.229987
0.289488
0.350181
0.412661
0.476421
0.5406
0.598584
0.643714
0.676942
0.701572
0.718945
0.72828
0.730534
0.730631
0.730871
0.730818
0.0317008
0.0448384
0.0858969
0.136834
0.198469
0.264037
0.331234
0.400194
0.470234
0.540435
0.603447
0.652095
0.687569
0.713789
0.731862
0.74148
0.743793
0.744293
0.744383
0.744446
-0.00554777
0.00744437
0.0511924
0.105183
0.17119
0.241591
0.314255
0.388899
0.464668
0.540475
0.608191
0.660275
0.698222
0.725934
0.745164
0.755205
0.758206
0.758711
0.758698
0.758783
-0.0381738
-0.0249176
0.0209933
0.0776161
0.147278
0.221726
0.299106
0.378721
0.459631
0.540594
0.612786
0.668225
0.708578
0.737998
0.758482
0.768799
0.772056
0.772465
0.772483
0.77254
-0.0668068
-0.0537245
-0.00602984
0.0530158
0.125889
0.203847
0.2853
0.369281
0.454833
0.540557
0.617238
0.67607
0.718499
0.749233
0.770694
0.781457
0.784872
0.785344
0.785364
0.785406
-0.0929346
-0.0798279
-0.030783
0.0305852
0.106295
0.18736
0.27243
0.360269
0.450071
0.540498
0.621669
0.683439
0.727683
0.759747
0.781679
0.792816
0.796574
0.7971
0.797122
0.797143
-0.116885
-0.103772
-0.0538492
0.00971933
0.0879637
0.171829
0.260101
0.351447
0.445321
0.540251
0.625413
0.69009
0.736313
0.769284
0.791503
0.803193
0.807045
0.807655
0.807655
0.807659
-0.139425
-0.126017
-0.0754812
-0.0099355
0.0705035
0.156887
0.248098
0.342717
0.440302
0.539179
0.628234
0.696064
0.744091
0.778133
0.800549
0.812384
0.816357
0.817008
0.816993
0.81698
-0.160706
-0.146919
-0.0959086
-0.0286556
0.0536688
0.142354
0.236234
0.333765
0.434577
0.537121
0.630407
0.701487
0.751481
0.786336
0.808862
0.820769
0.824571
0.825263
0.825213
0.825183
-0.180806
-0.166987
-0.115302
-0.0465857
0.0373371
0.128049
0.224274
0.324358
0.428105
0.534329
0.631893
0.706321
0.758475
0.794415
0.816825
0.828114
0.831857
0.832474
0.832418
0.83237
-0.199978
-0.186091
-0.133836
-0.063904
0.0213728
0.11385
0.212113
0.314474
0.420994
0.53081
0.632514
0.710619
0.765514
0.80243
0.82448
0.835161
0.838343
0.838831
0.838744
0.83868
-0.218654
-0.204391
-0.151657
-0.0806984
0.00572764
0.0997033
0.199737
0.304199
0.413352
0.526507
0.632249
0.714335
0.772425
0.81098
0.832627
0.84195
0.844178
0.844275
0.844206
0.844212
-0.236874
-0.221961
-0.168885
-0.0970545
-0.00964796
0.085626
0.187238
0.293635
0.405179
0.521352
0.631058
0.717482
0.779323
0.820104
0.841652
0.849304
0.849488
0.849099
0.848702
0.84857
-0.254698
-0.239069
-0.185621
-0.112974
-0.0247025
0.0716941
0.174685
0.282799
0.396475
0.515371
0.628842
0.71985
0.785999
0.830161
0.852754
0.858086
0.855958
0.854512
0.854559
0.85559
-0.271911
-0.255719
-0.201882
-0.128463
-0.0394197
0.0579531
0.16213
0.271721
0.387255
0.508563
0.625489
0.721248
0.792407
0.840954
0.866127
0.870649
0.865423
0.858472
0.854089
0.853614
-0.288561
-0.271947
-0.217654
-0.143482
-0.0537406
0.0444605
0.149607
0.260416
0.377564
0.50101
0.620982
0.721333
0.797854
0.852304
0.882133
0.887679
0.881798
0.872118
0.87306
0.877242
-0.304558
-0.28761
-0.232861
-0.158003
-0.0676541
0.0312339
0.137159
0.248965
0.367489
0.492789
0.615304
0.71986
0.802078
0.86324
0.899733
0.90956
0.901799
0.872655
0.83653
0.805511
-0.319917
-0.302741
-0.247534
-0.172086
-0.0812482
0.0181588
0.124649
0.237214
0.356848
0.483689
0.608272
0.71639
0.80388
0.872935
0.918663
0.935563
0.940731
0.912198
0.929896
0.993238
-0.334558
-0.317297
-0.261734
-0.185886
-0.0947312
0.00498937
0.111808
0.224855
0.345225
0.473145
0.599279
0.710098
0.802329
0.878369
0.930582
0.95271
0.9488
0.917517
0.871829
0.890257
-0.348493
-0.33131
-0.27544
-0.199347
-0.108015
-0.00816211
0.0987691
0.212016
0.33272
0.461189
0.588218
0.700562
0.794981
0.874918
0.929117
0.952264
0.927694
0.865861
0.798722
0.78534
-0.361685
-0.344708
-0.288629
-0.212478
-0.121115
-0.0213042
0.0855427
0.198717
0.319344
0.447785
0.574948
0.687433
0.78147
0.858512
0.907855
0.905089
0.862775
0.779301
0.701578
0.674365
-0.374195
-0.357552
-0.301343
-0.225291
-0.134029
-0.0344274
0.072139
0.184959
0.305102
0.432926
0.559337
0.670306
0.759938
0.825982
0.850675
0.830798
0.762863
0.65658
0.566251
0.540895
-0.386436
-0.370163
-0.313924
-0.238137
-0.147109
-0.0478476
0.0582795
0.170511
0.289814
0.416441
0.541139
0.648662
0.731294
0.780697
0.772299
0.731668
0.611759
0.484588
0.374036
0.343954
-0.39926
-0.383393
-0.327086
-0.251597
-0.160868
-0.0620026
0.0435842
0.155047
0.27323
0.398139
0.520077
0.621963
0.697274
0.720702
0.68552
0.590037
0.428587
0.271849
0.139178
0.10894
-0.41315
-0.397487
-0.341054
-0.265894
-0.1755
-0.0770394
0.0279518
0.138529
0.25536
0.378035
0.496085
0.591135
0.65561
0.649288
0.595588
0.43933
0.235785
0.0202033
-0.161985
-0.2129
-0.428245
-0.412706
-0.355981
-0.281044
-0.19095
-0.0929006
0.0114335
0.120995
0.236258
0.35622
0.469149
0.557584
0.606714
0.568434
0.478141
0.286348
0.0531995
-0.237227
-0.558467
-0.709036
-0.444592
-0.428953
-0.371883
-0.297159
-0.207332
-0.109696
-0.00606983
0.10238
0.215881
0.332715
0.439488
0.521106
0.551623
0.482998
0.342418
0.135001
-0.0994752
-0.443757
-1.02804
-1.59838
-0.462308
-0.446539
-0.388956
-0.31429
-0.224628
-0.127382
-0.024495
0.082763
0.194375
0.307877
0.408244
0.481646
0.492424
0.407698
0.212394
-0.0220606
-0.225002
-0.459213
-1.00932
-2.50588
-0.481383
-0.465288
-0.407166
-0.332589
-0.243058
-0.146208
-0.0441165
0.0618598
0.17141
0.281368
0.375337
0.438818
0.427911
0.348253
0.118602
-0.119377
-0.267884
-0.30571
-0.294762
-0.677691
-0.50178
-0.485646
-0.426845
-0.352323
-0.262947
-0.166609
-0.0655103
0.0389126
0.146042
0.251852
0.339794
0.392464
0.364933
0.29661
0.0685084
-0.133838
-0.245245
-0.253999
-0.201562
-0.241512
-0.52336
-0.507132
-0.447801
-0.373593
-0.284475
-0.188795
-0.0889026
0.0137182
0.118045
0.219147
0.301821
0.343938
0.309588
0.241248
0.0355095
-0.124903
-0.207748
-0.216232
-0.263977
-0.26799
-0.5461
-0.530039
-0.470172
-0.396361
-0.307534
-0.212715
-0.114289
-0.0137716
0.087404
0.18364
0.261194
0.293234
0.261464
0.178868
0.00695407
-0.115971
-0.186886
-0.163871
-0.184321
-0.186013
-0.569697
-0.55335
-0.493587
-0.420568
-0.3321
-0.238392
-0.141664
-0.0434695
0.0542583
0.145706
0.218243
0.239075
0.219514
0.110712
-0.0288136
-0.111661
-0.151337
-0.199235
-0.173486
-0.182138
-0.594131
-0.57735
-0.51814
-0.445982
-0.35782
-0.265589
-0.170796
-0.0751538
0.0187564
0.105652
0.173858
0.183933
0.175941
0.0493794
-0.0660481
-0.130109
-0.108315
-0.167837
-0.148361
-0.15343
-0.618165
-0.601223
-0.543504
-0.472263
-0.384521
-0.294178
-0.201457
-0.108502
-0.0188751
0.0639098
0.129232
0.131504
0.123379
-0.00203605
-0.093509
-0.145055
-0.13226
-0.148169
-0.153311
-0.151632
-0.641626
-0.624836
-0.569177
-0.498708
-0.411723
-0.323706
-0.233217
-0.143133
-0.0581092
0.0208261
0.0846741
0.0831672
0.065944
-0.0446986
-0.107203
-0.139617
-0.177192
-0.149096
-0.154608
-0.149053
-0.663331
-0.647261
-0.59366
-0.524431
-0.439299
-0.353741
-0.265585
-0.178481
-0.0981024
-0.0232714
0.0401054
0.0392668
0.00995149
-0.0792532
-0.120245
-0.114925
-0.18694
-0.129376
-0.144435
-0.13653
-0.682781
-0.667835
-0.616371
-0.548503
-0.46656
-0.383409
-0.297909
-0.214031
-0.137933
-0.0679037
-0.00490475
-0.00134478
-0.0354262
-0.0979298
-0.12691
-0.0879279
-0.134115
-0.115344
-0.121304
-0.117919
-0.698245
-0.684908
-0.636115
-0.5705
-0.492531
-0.411895
-0.32938
-0.248928
-0.176632
-0.112297
-0.0502184
-0.0393656
-0.0670731
-0.098681
-0.114549
-0.0924385
-0.10619
-0.110266
-0.111597
-0.11164
-0.709018
-0.697816
-0.652462
-0.58955
-0.515531
-0.43813
-0.359143
-0.28247
-0.213529
-0.155261
-0.0945689
-0.0743396
-0.0901297
-0.0956227
-0.103181
-0.112396
-0.106534
-0.111406
-0.110866
-0.111851
-0.713641
-0.704802
-0.663635
-0.604381
-0.534584
-0.461098
-0.386081
-0.313403
-0.247723
-0.195109
-0.135749
-0.107984
-0.11764
-0.0968489
-0.104603
-0.128634
-0.11585
-0.121746
-0.11717
-0.118704
-0.712239
-0.705453
-0.66873
-0.613573
-0.548248
-0.479404
-0.409064
-0.34075
-0.278631
-0.229975
-0.17236
-0.139875
-0.140505
-0.112516
-0.120882
-0.161296
-0.131711
-0.138119
-0.131073
-0.132729
-0.703835
-0.696598
-0.664906
-0.615565
-0.555862
-0.492196
-0.426789
-0.362788
-0.304278
-0.258363
-0.203258
-0.168086
-0.153105
-0.121539
-0.088939
-0.0808635
-0.077358
-0.0851506
-0.0864958
-0.0890459
-0.682533
-0.674255
-0.650981
-0.609342
-0.556113
-0.49835
-0.438526
-0.378628
-0.322884
-0.278268
-0.225901
-0.184031
-0.160292
-0.147878
-0.136917
-0.16447
-0.173911
-0.171301
-0.169784
-0.165374
-0.639568
-0.631905
-0.623872
-0.594402
-0.549943
-0.498464
-0.443666
-0.386967
-0.33246
-0.287389
-0.236331
-0.184267
-0.201074
-0.268244
-0.426606
-0.570363
-0.596742
-0.583404
-0.534451
-0.487988
-0.599862
-0.597235
-0.595619
-0.573396
-0.538082
-0.493602
-0.443161
-0.388487
-0.332176
-0.282581
-0.232529
-0.160217
-0.169352
-0.24176
-0.358987
-0.407401
-0.375112
-0.317315
-0.273963
-0.253311
-0.576512
-0.578357
-0.56807
-0.555625
-0.527403
-0.486927
-0.438333
-0.384321
-0.323731
-0.263481
-0.206814
-0.101173
0.0204484
0.192793
0.3524
0.517581
0.645262
0.719542
0.761979
0.797779
-0.546297
-0.545733
-0.543383
-0.542467
-0.518962
-0.481974
-0.433962
-0.37763
-0.311791
-0.237436
-0.162581
-0.035373
0.158181
0.452672
0.736183
0.977219
1.15353
1.25344
1.29895
1.31356
-0.535452
-0.533628
-0.537216
-0.528749
-0.512149
-0.478829
-0.431051
-0.372154
-0.301627
-0.215758
-0.122964
0.000229449
0.222255
0.534569
0.839836
1.09663
1.28801
1.39722
1.44497
1.46153
-0.520381
-0.518909
-0.522382
-0.514063
-0.510334
-0.477656
-0.42808
-0.367004
-0.294233
-0.202064
-0.0996949
0.006813
0.224348
0.503048
0.777338
1.01359
1.19865
1.30931
1.35833
1.37186
-0.50882
-0.508709
-0.50794
-0.507291
-0.506018
-0.477699
-0.430033
-0.36768
-0.2925
-0.198864
-0.0965193
-0.0109255
0.176117
0.414379
0.642073
0.837464
0.99547
1.09216
1.13438
1.14486
-0.504578
-0.505343
-0.502834
-0.506549
-0.499811
-0.475801
-0.430943
-0.370854
-0.297421
-0.20728
-0.109079
-0.0408672
0.107909
0.308378
0.491625
0.643865
0.766995
0.843705
0.876396
0.88416
-0.500594
-0.501582
-0.500624
-0.50489
-0.499804
-0.480701
-0.436004
-0.376764
-0.306153
-0.222554
-0.130183
-0.0728075
0.0382264
0.203579
0.348844
0.464356
0.556215
0.614826
0.639617
0.645791
-0.49102
-0.490833
-0.488674
-0.48894
-0.482743
-0.481085
-0.444897
-0.386754
-0.31742
-0.240263
-0.15356
-0.102301
-0.0230924
0.110943
0.224644
0.311483
0.378743
0.422455
0.439672
0.443259
-0.493841
-0.490545
-0.48572
-0.478888
-0.475412
-0.480258
-0.448587
-0.394216
-0.326078
-0.25561
-0.175095
-0.127731
-0.0734701
0.0340988
0.122049
0.186652
0.236279
0.268608
0.280629
0.284546
-0.522341
-0.51879
-0.515609
-0.513567
-0.515598
-0.509846
-0.460213
-0.399265
-0.329254
-0.265145
-0.19179
-0.147739
-0.111611
-0.0257861
0.0413226
0.0896462
0.12771
0.152935
0.162231
0.164621
-0.577474
-0.579082
-0.584646
-0.592442
-0.590635
-0.562406
-0.483229
-0.405175
-0.32849
-0.268095
-0.202468
-0.161866
-0.136326
-0.0682859
-0.0177203
0.0185572
0.0472877
0.0649449
0.0727571
0.0749383
-0.597634
-0.602762
-0.617284
-0.630846
-0.629861
-0.582798
-0.489495
-0.401284
-0.320993
-0.262801
-0.205872
-0.16932
-0.148057
-0.0955846
-0.0581937
-0.0312111
-0.0109618
0.000673669
0.00549448
0.00630361
-0.519158
-0.525082
-0.545221
-0.557036
-0.557864
-0.519117
-0.446418
-0.372166
-0.301006
-0.246617
-0.200487
-0.169398
-0.149103
-0.110746
-0.0839308
-0.0652195
-0.0522283
-0.0454114
-0.0432313
-0.0436448
-0.361854
-0.368861
-0.379215
-0.387754
-0.389855
-0.373239
-0.341038
-0.302852
-0.257949
-0.21806
-0.185226
-0.161579
-0.142965
-0.116265
-0.0983116
-0.0866172
-0.0794716
-0.0766476
-0.0766083
-0.0776371
-0.192268
-0.195443
-0.200833
-0.210591
-0.219249
-0.222074
-0.219684
-0.212443
-0.19617
-0.178215
-0.160232
-0.145494
-0.131902
-0.114313
-0.103627
-0.0978551
-0.0953344
-0.0953542
-0.0966311
-0.0979345
-0.06071
-0.0625711
-0.0668802
-0.0755481
-0.0884056
-0.10286
-0.117389
-0.129178
-0.133225
-0.133854
-0.128554
-0.122794
-0.116572
-0.106698
-0.102042
-0.100708
-0.101291
-0.103136
-0.104987
-0.106352
0.0231744
0.0218782
0.0187965
0.0103871
-0.00516394
-0.0256011
-0.0471282
-0.06681
-0.0809004
-0.0926484
-0.095758
-0.0972871
-0.0980724
-0.0942089
-0.0948413
-0.0969676
-0.0995171
-0.102157
-0.104073
-0.105369
0.0641918
0.0634147
0.0611945
0.053716
0.0383923
0.0168529
-0.00638285
-0.0282297
-0.0451506
-0.0604347
-0.0668705
-0.0725358
-0.0783346
-0.0796325
-0.0840032
-0.0882837
-0.0919538
-0.0948352
-0.0966166
-0.0977952
0.078336
0.0777419
0.0760132
0.06984
0.0567018
0.0373904
0.0154361
-0.00619668
-0.0233778
-0.0389235
-0.0455626
-0.0517684
-0.0594232
-0.0648679
-0.0715089
-0.0769399
-0.0810499
-0.0839458
-0.0854706
-0.0865141
0.0771342
0.0767251
0.0754362
0.0707248
0.0604712
0.0449435
0.0262256
0.0063991
-0.00999608
-0.0252515
-0.0317433
-0.0369638
-0.044215
-0.0513055
-0.0587243
-0.0644947
-0.0687423
-0.0716161
-0.0728509
-0.0737185
0.068612
0.0683574
0.067413
0.0640042
0.0564035
0.0447179
0.0300525
0.0133968
-0.00108598
-0.0157898
-0.0224976
-0.0269878
-0.0333959
-0.0402358
-0.0472349
-0.0526459
-0.0566431
-0.0593382
-0.060326
-0.0610147
0.0571434
0.0570148
0.0563396
0.0539928
0.0485547
0.0401015
0.0292518
0.0163759
0.00493937
-0.0083623
-0.0153105
-0.019765
-0.0254083
-0.0312857
-0.0373686
-0.0420316
-0.0454937
-0.0478388
-0.0485921
-0.0491122
0.0451225
0.0450689
0.0445984
0.0430802
0.039339
0.0334075
0.0256284
0.0160997
0.00797393
-0.00283176
-0.00900702
-0.0134981
-0.0186673
-0.0235303
-0.0286195
-0.0325296
-0.0354308
-0.0374161
-0.0380398
-0.03843
0.0335523
0.033562
0.0332309
0.0323065
0.0298555
0.0258818
0.0204881
0.0135674
0.00818757
0.000216325
-0.00401583
-0.00771744
-0.0122585
-0.0164504
-0.0208182
-0.0240618
-0.0264011
-0.0279743
-0.0284468
-0.0287311
0.0228781
0.022901
0.0227066
0.0221888
0.0206762
0.0182094
0.0147266
0.00991719
0.00665409
0.00111028
-0.0011669
-0.00348624
-0.00685306
-0.0101278
-0.0138087
-0.0164505
-0.0182812
-0.0194759
-0.0198632
-0.0200845
0.0130023
0.0130246
0.0129717
0.0128202
0.0120518
0.0107531
0.0089358
0.00593251
0.00434208
0.000813496
-0.00021494
-0.00114613
-0.00317258
-0.00512056
-0.00800974
-0.00985189
-0.0111224
-0.0118716
-0.0119761
-0.0121147
0.0040884
0.00411348
0.00413224
0.00423574
0.00410748
0.00374308
0.00329518
0.00193121
0.00168759
6.75629e-05
8.31526e-05
0.000191245
-0.00081134
-0.00143385
-0.00345091
-0.00446496
-0.00544447
-0.00591521
-0.00566194
-0.00562649
-1.07681
-0.243067
0.0266844
0.300445
0.478512
0.630231
0.750162
0.872944
1.01037
1.09632
-0.103071
0.300494
0.313969
0.500265
0.620212
0.72779
0.819813
0.902288
0.928776
0.887889
0.267826
0.479277
0.511411
0.646497
0.729437
0.806813
0.870716
0.918828
0.920429
0.935162
0.493202
0.633524
0.667539
0.766823
0.822891
0.878593
0.922493
0.954361
0.963192
0.987109
0.667876
0.767162
0.796752
0.862282
0.906482
0.946234
0.977814
1.00188
1.01149
1.04325
0.808898
0.876467
0.906505
0.948348
0.983929
1.0135
1.03745
1.05815
1.07211
1.10054
0.9266
0.976474
1.00177
1.02926
1.05649
1.07999
1.09977
1.119
1.13378
1.16039
1.02947
1.06613
1.08699
1.10739
1.12794
1.14717
1.16451
1.18261
1.19746
1.22115
1.12292
1.15186
1.16807
1.18322
1.1992
1.2152
1.23072
1.24761
1.26123
1.28356
1.2109
1.23128
1.24606
1.25917
1.2727
1.28643
1.29993
1.31451
1.32606
1.34569
1.2962
1.31195
1.32575
1.33754
1.34944
1.36107
1.37221
1.38387
1.39155
1.40834
1.38137
1.39391
1.40762
1.41935
1.42999
1.43978
1.4486
1.45685
1.46041
1.47164
1.4701
1.48094
1.49441
1.50392
1.51149
1.51878
1.52596
1.53241
1.53352
1.54087
1.5685
1.57311
1.5813
1.58603
1.58942
1.59389
1.59989
1.60752
1.61144
1.62132
1.68177
1.66866
1.66137
1.65567
1.65294
1.65428
1.66058
1.67294
1.68778
1.71745
1.80373
1.74769
1.71667
1.69947
1.69125
1.69117
1.70006
1.71969
1.75145
1.82074
)
;

boundaryField
{
    wall-4
    {
        type            zeroGradient;
    }
    pressure-outlet-7
    {
        type            fixedValue;
        value           uniform 0;
    }
    velocity-inlet-6
    {
        type            zeroGradient;
    }
    velocity-inlet-5
    {
        type            zeroGradient;
    }
    frontAndBackPlanes
    {
        type            empty;
    }
}


// ************************************************************************* //
