/*--------------------------------*- C++ -*----------------------------------*\
  =========                 |
  \\      /  F ield         | OpenFOAM: The Open Source CFD Toolbox
   \\    /   O peration     | Website:  https://openfoam.org
    \\  /    A nd           | Version:  10
     \\/     M anipulation  |
\*---------------------------------------------------------------------------*/
FoamFile
{
    format      ascii;
    class       surfaceScalarField;
    location    "73";
    object      phi;
}
// * * * * * * * * * * * * * * * * * * * * * * * * * * * * * * * * * * * * * //

dimensions      [0 3 -1 0 0 0 0];

internalField   nonuniform List<scalar> 
4262
(
0.107132
0.470856
0.095566
0.705152
0.0693733
0.858496
0.0473445
1.02079
0.0309504
1.21491
0.0197364
1.44943
0.0123008
1.7333
0.00704639
2.07629
0.00308364
2.48921
-0.000744111
2.98612
-0.00449147
2.98604
-0.0081615
2.48891
-0.0130992
2.07597
-0.0202448
1.73301
-0.0311581
1.44913
-0.0471973
1.21456
-0.0689297
1.0205
-0.0951943
0.858568
-0.107065
0.705457
0.470923
0.112857
0.358
0.135246
0.682763
0.120345
0.873397
0.0978117
1.04333
0.0745705
1.23815
0.0528384
1.47117
0.0344716
1.75167
0.0203296
2.09043
0.00910307
2.50043
-0.000864956
2.99609
-0.010935
2.99611
-0.0223403
2.50032
-0.0364859
2.09012
-0.0547615
1.75128
-0.0765909
1.47096
-0.100349
1.23831
-0.123542
1.04369
-0.137042
0.872067
-0.113577
0.681992
0.357346
0.0920343
0.265965
0.12495
0.649848
0.121065
0.877282
0.104737
1.05965
0.0860495
1.25684
0.0668732
1.49034
0.0478364
1.7707
0.0296511
2.10862
0.0129476
2.51714
-0.00294597
3.01198
-0.0185159
3.01168
-0.0343422
2.51615
-0.0518213
2.1076
-0.0702887
1.76975
-0.0886413
1.48931
-0.105813
1.25548
-0.119865
1.05774
-0.12527
0.877472
-0.0923764
0.649099
0.264969
0.0639396
0.202026
0.104714
0.609073
0.106468
0.875528
0.0950961
1.07102
0.0811815
1.27075
0.0664484
1.50508
0.0503411
1.78681
0.0332545
2.1257
0.0156588
2.53473
-0.00299781
3.03064
-0.0217652
3.03045
-0.03929
2.53367
-0.0557673
2.12408
-0.0708906
1.78488
-0.0846205
1.50304
-0.0982993
1.26916
-0.11007
1.06951
-0.107063
0.874465
-0.0649172
0.606953
0.200052
0.0374597
0.164566
0.0806593
0.565873
0.0908745
0.865313
0.0836214
1.07828
0.0709448
1.28343
0.059018
1.517
0.0459006
1.79993
0.0307746
2.14083
0.0136213
2.55189
-0.00557654
3.04984
-0.0240389
3.04891
-0.039712
2.54934
-0.0535592
2.13792
-0.0657163
1.79703
-0.0769979
1.51433
-0.088918
1.28108
-0.0952397
1.07583
-0.0833599
0.862585
-0.0384505
0.562043
0.161602
0.0194302
0.145136
0.0570874
0.528216
0.0724176
0.849983
0.0702754
1.08042
0.0614704
1.29224
0.0506266
1.52785
0.0395243
1.81103
0.0269914
2.15336
0.0119885
2.56689
-0.00577841
3.0676
-0.023405
3.06654
-0.037976
2.56391
-0.049477
2.14942
-0.059285
1.80684
-0.06905
1.52409
-0.0766546
1.28869
-0.0774176
1.0766
-0.0601882
0.845356
-0.0204412
0.522296
0.14116
0.0105798
0.134556
0.0422104
0.496586
0.058243
0.83395
0.0584331
1.08023
0.052144
1.29852
0.0425933
1.5374
0.0320072
1.82162
0.0204278
2.16494
0.00697378
2.58034
-0.00897951
3.08356
-0.0240484
3.0816
-0.035584
2.57545
-0.0453096
2.15915
-0.0542257
1.81576
-0.0621484
1.53201
-0.0666539
1.29319
-0.0646134
1.07456
-0.0461041
0.826846
-0.011767
0.487959
0.129393
0.00652087
0.128035
0.0327738
0.470333
0.048916
0.817808
0.050356
1.07879
0.0452644
1.30362
0.0369325
1.54573
0.0273553
1.83119
0.0165677
2.17573
0.00451162
2.5924
-0.00959897
3.09767
-0.0233521
3.09536
-0.0344103
2.58651
-0.0435423
2.16828
-0.0510756
1.82329
-0.0574591
1.5384
-0.0605581
1.29629
-0.0568103
1.07081
-0.037498
0.807534
-0.0079496
0.458411
0.121444
0.00465783
0.123377
0.0263744
0.448616
0.0420513
0.802131
0.0440329
1.07681
0.0392329
1.30842
0.0313832
1.55358
0.0219845
1.84059
0.0110701
2.18665
-0.000832198
2.6043
-0.0137123
3.11055
-0.0252881
3.10693
-0.034735
2.59595
-0.0429362
2.17648
-0.0498542
1.83021
-0.055209
1.54375
-0.0573266
1.29841
-0.0521324
1.06562
-0.0322765
0.787678
-0.00644888
0.432583
0.114995
0.003672
0.119705
0.0214385
0.43085
0.036391
0.787178
0.0389905
1.07421
0.0345389
1.31287
0.0271266
1.56099
0.018363
1.84936
0.00847823
2.19653
-0.00269411
2.61547
-0.0153042
3.12316
-0.0272532
3.11888
-0.036735
2.60544
-0.0439989
2.18375
-0.0497063
1.83592
-0.0542499
1.5483
-0.0553739
1.29953
-0.0488574
1.0591
-0.0286458
0.767466
-0.00586564
0.409803
0.109129
0.00298564
0.11672
0.0173121
0.416523
0.0310846
0.773406
0.0339369
1.07136
0.0296592
1.31715
0.0223496
1.5683
0.0134998
1.85821
0.00300628
2.20702
-0.00887582
2.62736
-0.020862
3.13514
-0.0311289
3.12915
-0.0390841
2.61339
-0.0456474
2.19031
-0.0509624
1.84123
-0.0546338
1.55197
-0.0545609
1.29946
-0.0464998
1.05104
-0.0260528
0.747019
-0.00564767
0.389398
0.103482
0.00226047
0.114459
0.0134656
0.405318
0.0257132
0.761158
0.0285102
1.06856
0.0242981
1.32136
0.0170318
1.57557
0.00841895
1.86682
-0.00109504
2.21654
-0.0114465
2.63771
-0.0234555
3.14715
-0.034631
3.14032
-0.0427523
2.62151
-0.0483471
2.1959
-0.0524907
1.84537
-0.0551248
1.5546
-0.0543788
1.29872
-0.0448779
1.04154
-0.0242232
0.726365
-0.0055296
0.370704
0.0979521
0.0016183
0.112841
0.0102579
0.396678
0.0208952
0.750521
0.0234159
1.06604
0.019174
1.3256
0.0119749
1.58277
0.00321275
1.87558
-0.00712611
2.22688
-0.019104
2.64968
-0.0314135
3.15946
-0.0409819
3.14989
-0.0474058
2.62794
-0.0521319
2.20063
-0.0555651
1.84881
-0.0570843
1.55612
-0.0552696
1.2969
-0.0442962
1.03056
-0.0231803
0.705249
-0.00551981
0.353044
0.0924323
0.000722307
0.112119
0.00670878
0.390692
0.0154424
0.741787
0.0172476
1.06423
0.0125753
1.33027
0.00489725
1.59044
-0.00428808
1.88477
-0.0143426
2.23693
-0.0248091
2.66015
-0.0360071
3.17066
-0.0458809
3.15977
-0.0523634
2.63442
-0.056155
2.20442
-0.0587865
1.85144
-0.059395
1.55673
-0.0564497
1.29396
-0.0440798
1.01819
-0.0225134
0.683682
-0.00549192
0.336022
0.0869403
1.98391e-05
0.112099
0.0037386
0.386973
0.0101894
0.735337
0.0110663
1.06336
0.00601687
1.33532
-0.00185125
1.59831
-0.0112383
1.89415
-0.0218889
2.24758
-0.0338989
2.67216
-0.0462619
3.18302
-0.0550987
3.1686
-0.060003
2.63932
-0.062828
2.20725
-0.0643926
1.853
-0.0639115
1.55625
-0.0593223
1.28937
-0.0450573
1.00393
-0.0225471
0.661172
-0.00560562
0.319081
0.0813347
-0.000897989
0.112997
0.000283617
0.385792
0.00466828
0.730952
0.00435955
1.06367
-0.00160379
1.34128
-0.0106168
1.60732
-0.0211443
1.90468
-0.0325195
2.25896
-0.0440177
2.68366
-0.054529
3.19353
-0.0624286
3.1765
-0.0670683
2.64396
-0.0692375
2.20942
-0.0703335
1.8541
-0.0690371
1.55495
-0.0627585
1.28309
-0.0465765
0.987747
-0.0229808
0.637577
-0.00577903
0.301879
0.0755557
-0.0019041
0.114901
-0.00317332
0.387061
-0.00198897
0.729768
-0.00394175
1.06562
-0.0107377
1.34808
-0.0202906
1.61688
-0.0312844
1.91567
-0.0432024
2.27087
-0.0555638
2.69602
-0.0679326
3.2059
-0.0761519
3.18472
-0.07928
2.64709
-0.0801083
2.21025
-0.079492
1.85348
-0.0764537
1.55191
-0.0681506
1.27478
-0.0494257
0.969022
-0.024079
0.61223
-0.00609763
0.283897
0.0694581
-0.00319224
0.118093
-0.00682493
0.390693
-0.00888974
0.731832
-0.0126656
1.06939
-0.0207141
1.35613
-0.0317419
1.62791
-0.0442913
1.92822
-0.0577339
2.28432
-0.0712064
2.70949
-0.0822053
3.2169
-0.0878223
3.19034
-0.0903045
2.64957
-0.0904408
2.21038
-0.0891766
1.85222
-0.0852571
1.54799
-0.0745551
1.26408
-0.0529669
0.947433
-0.0255922
0.584855
-0.00649736
0.264803
0.0629607
-0.00459169
0.122685
-0.0112916
0.397393
-0.0169091
0.73745
-0.0236742
1.07616
-0.0330146
1.36547
-0.0452173
1.64011
-0.0588358
1.94184
-0.073219
2.2987
-0.0870672
2.72334
-0.0986732
3.22851
-0.105654
3.19732
-0.107348
2.65127
-0.106328
2.20936
-0.102951
1.84884
-0.0965049
1.54155
-0.0830552
1.25063
-0.0579757
0.922354
-0.0276927
0.554572
-0.00698818
0.244098
0.0559725
-0.00603128
0.128716
-0.0161561
0.407518
-0.0257269
0.747021
-0.0354747
1.08591
-0.0472088
1.3772
-0.061582
1.65448
-0.0773283
1.95759
-0.0937626
2.31513
-0.109543
2.73912
-0.122033
3.241
-0.126675
3.20196
-0.126048
2.65064
-0.122765
2.20608
-0.118124
1.8442
-0.110306
1.53373
-0.093187
1.23351
-0.0636866
0.892853
-0.0300662
0.520952
-0.00749347
0.221525
0.048479
-0.00830824
0.137024
-0.023138
0.422348
-0.0382366
0.762119
-0.0512509
1.09892
-0.0647883
1.39074
-0.0812902
1.67098
-0.0991274
1.97543
-0.117255
2.33326
-0.133472
2.75534
-0.144897
3.25242
-0.148767
3.20583
-0.148086
2.64996
-0.144523
2.20252
-0.137996
1.83767
-0.126644
1.52238
-0.105468
1.21234
-0.0708444
0.85823
-0.0328123
0.48292
-0.00801003
0.196723
0.040469
-0.0108093
0.147834
-0.0304059
0.441944
-0.0514786
0.783192
-0.0697656
1.11721
-0.0872238
1.4082
-0.106818
1.69058
-0.127435
1.99604
-0.147599
2.35343
-0.164896
2.77264
-0.176412
3.26394
-0.179357
3.20878
-0.175183
2.64579
-0.167975
2.19531
-0.15918
1.82888
-0.145576
1.50877
-0.119061
1.18582
-0.077991
0.81716
-0.0352258
0.440155
-0.00833096
0.169828
0.032138
-0.0155806
0.163414
-0.0427264
0.46909
-0.0707372
0.811203
-0.0939647
1.14044
-0.115027
1.42926
-0.138356
1.71391
-0.161643
2.01933
-0.183281
2.37506
-0.200654
2.79001
-0.210734
3.27402
-0.210422
3.20847
-0.20505
2.64041
-0.197499
2.18776
-0.186544
1.81792
-0.167902
1.49013
-0.135046
1.15297
-0.0864165
0.76853
-0.0376212
0.391359
-0.00855771
0.140765
0.0235803
-0.0197075
0.183122
-0.0557788
0.505162
-0.0934535
0.848878
-0.124309
1.17129
-0.151534
1.45649
-0.17965
1.74202
-0.206107
2.04579
-0.228926
2.39788
-0.245421
2.8065
-0.252199
3.2808
-0.24887
3.20514
-0.240123
2.63167
-0.228333
2.17597
-0.214258
1.80385
-0.191841
1.46772
-0.150876
1.112
-0.0928871
0.710541
-0.0385269
0.336999
-0.00822131
0.110459
0.015359
-0.0332064
0.216328
-0.0830033
0.554959
-0.131551
0.897425
-0.169423
1.20916
-0.201981
1.48904
-0.233729
1.77377
-0.260689
2.07275
-0.282216
2.41941
-0.29568
2.81997
-0.298821
3.28394
-0.291725
3.19804
-0.279584
2.61953
-0.266574
2.16296
-0.249023
1.7863
-0.218643
1.43734
-0.167769
1.06113
-0.0997062
0.642478
-0.0391107
0.276404
-0.00780807
0.0791565
0.00755096
-0.0475318
0.26386
-0.122004
0.629431
-0.18638
0.961801
-0.232339
1.25512
-0.270928
1.52763
-0.304018
1.80686
-0.329321
2.09805
-0.347398
2.43749
-0.356314
2.82888
-0.353069
3.28069
-0.339208
3.18418
-0.323003
2.60332
-0.304806
2.14476
-0.281839
1.76333
-0.244403
1.3999
-0.181142
0.997867
-0.100401
0.561738
-0.0367676
0.21277
-0.00735318
0.0497421
0.000197776
-0.0346011
0.298461
-0.0991646
0.693995
-0.158057
1.02069
-0.206901
1.30397
-0.252022
1.57275
-0.292381
1.84722
-0.330611
2.13628
-0.366073
2.47295
-0.394734
2.85754
-0.413637
3.2996
-0.419955
3.1905
-0.414641
2.59801
-0.403091
2.13321
-0.377707
1.73795
-0.320495
1.34269
-0.224656
0.902028
-0.114133
0.451215
-0.0405538
0.139191
-0.00853561
0.0177239
-0.00833783
-0.0126854
0.311146
-0.0484003
0.729709
-0.0914386
1.06373
-0.131873
1.3444
-0.171941
1.61282
-0.208539
1.88382
-0.243507
2.17125
-0.274521
2.50396
-0.298532
2.88156
-0.311458
3.31252
-0.308693
3.18773
-0.298068
2.58738
-0.280337
2.11548
-0.248929
1.70654
-0.198943
1.2927
-0.127618
0.830703
-0.0579077
0.381505
-0.0216573
0.10294
-0.00485983
0.000926408
-0.0131977
-0.000560627
0.311707
-0.0237701
0.752919
-0.0537293
1.09369
-0.0855763
1.37625
-0.119127
1.64637
-0.151482
1.91617
-0.181496
2.20126
-0.207374
2.52984
-0.225991
2.90017
-0.23269
3.31922
-0.225472
3.18051
-0.21033
2.57224
-0.190108
2.09526
-0.163463
1.67989
-0.120157
1.2494
-0.0655895
0.776135
-0.0263666
0.342282
-0.0114502
0.0880241
-0.00323394
-0.00728989
-0.0164316
0.00137995
0.310327
-0.0142205
0.768519
-0.0357124
1.11518
-0.0600296
1.40057
-0.0862302
1.67257
-0.113256
1.9432
-0.139104
2.22711
-0.161129
2.55187
-0.175783
2.91483
-0.178556
3.32199
-0.168185
3.17014
-0.150885
2.55494
-0.128281
2.07265
-0.0961038
1.64772
-0.0597051
1.213
-0.0265021
0.742932
-0.00944156
0.325221
-0.00540909
0.0839916
-0.00226463
-0.0104343
-0.0186962
0.00535839
0.304969
-0.00220121
0.776079
-0.0209702
1.13395
-0.0430974
1.42269
-0.0661697
1.69565
-0.0890522
1.96608
-0.11066
2.24872
-0.128666
2.56987
-0.139765
2.92593
-0.139443
3.32167
-0.126045
3.15675
-0.104631
2.53352
-0.0785127
2.04653
-0.0529256
1.62213
-0.0233706
1.18344
0.000410914
0.71915
0.00461993
0.321012
0.00145554
0.087156
-0.000340102
-0.00863871
-0.0190363
0.00509977
0.299869
-0.000931917
0.782111
-0.0164955
1.14952
-0.0345194
1.44072
-0.0537287
1.71485
-0.0733362
1.98569
-0.0920659
2.26745
-0.107749
2.58555
-0.116841
2.93502
-0.113961
3.31879
-0.0986662
3.14145
-0.0777541
2.51261
-0.0526644
2.02144
-0.0222216
1.59169
0.00294061
1.15828
0.0155141
0.706577
0.0143179
0.322209
0.00677674
0.0946972
0.00144459
-0.00330656
-0.0175917
0.00542132
0.294447
0.00198155
0.78555
-0.0108878
1.16238
-0.0278168
1.45765
-0.0457087
1.73275
-0.063454
2.00343
-0.080216
2.28421
-0.0939284
2.59927
-0.101198
2.94229
-0.097542
3.31514
-0.0820798
3.12599
-0.0586034
2.48914
-0.0317145
1.99455
-0.00977199
1.56974
0.0100689
1.13844
0.0214484
0.695197
0.0173428
0.326314
0.00873926
0.103301
0.00218739
0.00324532
-0.0154044
0.00280119
0.291646
-0.000229383
0.788581
-0.0114898
1.17365
-0.0258937
1.47205
-0.0416933
1.74855
-0.0578283
2.01957
-0.0731841
2.29957
-0.0859609
2.61204
-0.092791
2.94912
-0.0888506
3.3112
-0.0728992
3.11004
-0.051909
2.46815
-0.029527
1.97217
-0.00268289
1.5429
0.0161686
1.11959
0.0223521
0.689014
0.0182076
0.330459
0.00943119
0.112077
0.00253528
0.0101412
-0.0128691
0.00227207
0.289374
0.000135045
0.790718
-0.0102496
1.18403
-0.02385
1.48565
-0.0390411
1.76374
-0.0542732
2.0348
-0.0689361
2.31423
-0.0811602
2.62427
-0.0877746
2.95573
-0.0848964
3.30832
-0.0704086
3.09555
-0.0479607
2.4457
-0.0231108
1.94732
-0.00447672
1.52427
0.0121091
1.103
0.0211008
0.680022
0.0168561
0.334703
0.00905033
0.119883
0.00256289
0.0166287
-0.0103062
-0.000398466
0.289773
-0.00392963
0.794249
-0.0128807
1.19298
-0.0247315
1.4975
-0.038547
1.77755
-0.0529624
2.04922
-0.067023
2.32829
-0.0792652
2.63651
-0.0868422
2.96331
-0.0847356
3.30621
-0.069847
3.08066
-0.0501623
2.42601
-0.0305269
1.92769
-0.00684452
1.50058
0.0101418
1.08602
0.0158774
0.674287
0.0139486
0.336632
0.00769728
0.126134
0.00229665
0.0220293
-0.00800954
-0.000667412
0.29044
-0.0043043
0.797886
-0.0131241
1.2018
-0.0246723
1.50905
-0.0380886
1.79097
-0.0519768
2.0631
-0.0660173
2.34233
-0.0787233
2.64922
-0.0869679
2.97155
-0.0865899
3.30583
-0.0743281
3.0684
-0.0538747
2.40556
-0.0308189
1.90463
-0.013732
1.4835
0.00171605
1.07057
0.0112546
0.664748
0.0102077
0.337679
0.00605255
0.130289
0.00191752
0.0261643
-0.00609202
-0.00209108
0.292531
-0.00744468
0.80324
-0.0157514
1.21011
-0.0262782
1.51958
-0.0387564
1.80345
-0.0522693
2.07662
-0.0661976
2.35626
-0.0791572
2.66218
-0.0885237
2.98092
-0.0898577
3.30717
-0.0777304
3.05627
-0.0600892
2.38792
-0.0420097
1.88655
-0.0194334
1.46092
-0.00270252
1.05384
0.00452329
0.657522
0.00662532
0.335577
0.00427568
0.132639
0.00149282
0.0289472
-0.00459919
-0.00321132
0.295742
-0.0077168
0.807745
-0.0159752
1.21837
-0.0265859
1.53019
-0.0389412
1.8158
-0.0521199
2.0898
-0.0660805
2.37022
-0.0796232
2.67572
-0.0903269
2.99162
-0.094347
3.31119
-0.085718
3.04764
-0.0681976
2.3704
-0.044648
1.863
-0.0269179
1.44319
-0.0111318
1.03805
0.000381886
0.646009
0.00328344
0.332675
0.00283788
0.133085
0.00111002
0.0306751
-0.00348918
-0.00395609
0.299699
-0.00983008
0.813619
-0.0179613
1.2265
-0.0278691
1.54009
-0.0395621
1.8275
-0.0524893
2.10272
-0.0664527
2.38418
-0.0804166
2.68968
-0.092488
3.00369
-0.0983761
3.31708
-0.0912134
3.04048
-0.075085
2.35427
-0.0563636
1.84428
-0.0318386
1.41867
-0.0130296
1.01924
-0.00321407
0.636193
0.0014308
0.32803
0.00179928
0.132716
0.00088148
0.0315929
-0.0026077
-0.00397102
0.30367
-0.00964276
0.819291
-0.0178149
1.23467
-0.0278302
1.55011
-0.0394972
1.83916
-0.0521719
2.1154
-0.0661684
2.39818
-0.0807737
2.70429
-0.0943065
3.01723
-0.103123
3.32589
-0.100233
3.03759
-0.0847695
2.33881
-0.0593739
1.81889
-0.0372345
1.39653
-0.0174565
0.999463
-0.00393848
0.622675
0.000391185
0.323701
0.00100357
0.132104
-8.3971e-05
0.0326804
-0.00269167
-0.00415956
0.307829
-0.0108754
0.826007
-0.0190106
1.2428
-0.0284465
1.55955
-0.0395452
1.85026
-0.0520217
2.12787
-0.0661074
2.41226
-0.0811397
2.71932
-0.0958216
3.03191
-0.106463
3.33653
-0.105253
3.03638
-0.0917255
2.32528
-0.0713423
1.7985
-0.0408004
1.36598
-0.0147044
0.973367
-0.00113361
0.609104
0.0058897
0.316677
0.00594929
0.132044
0.0028936
0.0357361
0.000201933
-0.00405646
0.311886
-0.0103696
0.83232
-0.0183739
1.25081
-0.0278791
1.56905
-0.0389734
1.86136
-0.0512705
2.14017
-0.065336
2.42633
-0.0808273
2.73481
-0.0967829
3.04786
-0.110277
3.35003
-0.113775
3.03988
-0.10195
2.31345
-0.0750468
1.7716
-0.0453944
1.33633
-0.0143078
0.94228
0.00866974
0.586127
0.0152013
0.310146
0.00777797
0.139468
-0.00167068
0.0451847
-0.00146875
-0.00420558
0.316091
-0.0110649
0.839179
-0.0189153
1.25866
-0.0278819
1.57802
-0.038432
1.87191
-0.0505062
2.15225
-0.0645997
2.44042
-0.080411
2.75062
-0.0972495
3.0647
-0.112239
3.36502
-0.117819
3.04546
-0.10879
2.30442
-0.0882537
1.75106
-0.0499223
1.298
-0.00786761
0.900226
0.0241915
0.554068
0.04637
0.287967
0.0504361
0.135401
0.0297886
0.0658323
0.0283198
-0.00406272
0.320154
-0.0103771
0.845494
-0.0179586
1.26624
-0.0269028
1.58696
-0.0373968
1.8824
-0.0492784
2.16413
-0.0632376
2.45438
-0.0792928
2.76668
-0.0970908
3.0825
-0.114574
3.3825
-0.124778
3.05566
-0.11925
2.2989
-0.0938762
1.72569
-0.0571095
1.26123
-0.00768535
0.850802
0.0385783
0.507804
0.0709111
0.255635
0.0571457
0.149167
0.0246208
0.0983572
0.0529407
-0.00404045
0.324194
-0.0106929
0.852146
-0.0180754
1.27362
-0.0264641
1.59535
-0.0364196
1.89236
-0.0480025
2.17571
-0.0618923
2.46827
-0.078142
2.78293
-0.0965607
3.10092
-0.115236
3.40118
-0.126579
3.06701
-0.125362
2.29768
-0.109446
1.70977
-0.0677576
1.21955
-0.0104162
0.79346
0.0591358
0.438252
0.153088
0.161683
0.212115
0.0901396
0.188063
0.122408
0.241004
-0.00388488
0.328079
-0.0100769
0.858338
-0.0173596
1.28091
-0.0259856
1.60398
-0.0363622
1.90273
-0.0484483
2.1878
-0.0631728
2.483
-0.0809509
2.80071
-0.102044
3.12201
-0.125449
3.42458
-0.143674
3.08523
-0.14854
2.30255
-0.129447
1.69068
-0.0906186
1.18072
-0.022859
0.725701
0.0374085
0.377985
-0.035599
0.23469
-0.350851
0.405391
-0.946528
0.718086
0.902972
-1.6085
-0.00379864
0.331878
-0.0102807
0.86482
-0.0174732
1.2881
-0.0257571
1.61226
-0.0358224
1.9128
-0.0479631
2.19994
-0.0631876
2.49822
-0.0820073
2.81953
-0.104931
3.14494
-0.131392
3.45104
-0.153519
3.10736
-0.163586
2.31261
-0.162774
1.68987
-0.128866
1.14681
-0.0890655
0.6859
-0.19558
0.4845
-0.693979
0.733089
-1.45843
1.16984
-2.06204
1.3217
1.21518
-2.37424
-0.0035691
0.335447
-0.00947048
0.870722
-0.0163825
1.29501
-0.024697
1.62057
-0.0348961
1.923
-0.0472256
2.21227
-0.0628283
2.51382
-0.082527
2.83922
-0.107406
3.16982
-0.138139
3.48177
-0.168038
3.13726
-0.187138
2.33171
-0.186005
1.68873
-0.161133
1.12194
-0.247486
0.772253
-0.752853
0.989867
-1.56477
1.545
-2.11942
1.7245
-2.35602
1.5583
1.32842
-2.46926
-0.00348021
0.338927
-0.00944619
0.876688
-0.016198
1.30176
-0.0241363
1.62851
-0.0339666
1.93283
-0.0462649
2.22456
-0.062254
2.52981
-0.0828973
2.85987
-0.109583
3.1965
-0.143681
3.51587
-0.178598
3.17217
-0.205167
2.35828
-0.223619
1.70719
-0.293365
1.19168
-0.67015
1.14904
-1.45021
1.76993
-2.03373
2.12852
-2.27167
1.96243
-2.38376
1.67039
1.39142
-2.44676
-0.003169
0.342096
-0.00847944
0.881998
-0.0148456
1.30813
-0.0227199
1.63639
-0.0326742
1.94278
-0.0451147
2.23701
-0.0613728
2.54607
-0.0827266
2.88122
-0.111233
3.22501
-0.149697
3.55434
-0.193537
3.21602
-0.232727
2.39747
-0.26563
1.74009
-0.449139
1.37519
-1.09894
1.79884
-1.79676
2.46775
-2.11146
2.44322
-2.25808
2.10905
-2.33973
1.75203
1.45765
-2.40595
-0.00318152
0.345278
-0.00876214
0.887579
-0.015213
1.31458
-0.0229684
1.64414
-0.0329203
1.95273
-0.0455659
2.24965
-0.0623911
2.5629
-0.084838
2.90367
-0.115232
3.2554
-0.157133
3.59624
-0.20657
3.26545
-0.249057
2.43996
-0.332688
1.82372
-0.734707
1.77721
-1.49531
2.55945
-1.96327
2.9357
-2.16273
2.64268
-2.26844
2.21476
-2.34571
1.82931
1.52066
-2.40873
-0.00323489
0.348513
-0.00866471
0.893008
-0.0153465
1.32126
-0.0237247
1.65252
-0.0344654
1.96347
-0.0479224
2.26311
-0.0656348
2.58061
-0.0892857
2.92732
-0.121831
3.28795
-0.168353
3.64276
-0.22455
3.32165
-0.28321
2.49862
-0.468213
2.00872
-1.04503
2.35403
-1.68145
3.19587
-1.95215
3.20641
-2.09823
2.78875
-2.21208
2.32861
-2.30582
1.92305
1.58216
-2.36732
-0.00337918
0.351892
-0.00962381
0.899253
-0.0168719
1.32851
-0.0254952
1.66114
-0.0364247
1.9744
-0.0503559
2.27704
-0.0689716
2.59922
-0.0940981
2.95245
-0.128775
3.32263
-0.178833
3.69282
-0.239526
3.38234
-0.322321
2.58141
-0.606382
2.29278
-1.26389
3.01153
-1.74963
3.68161
-1.95668
3.41346
-2.09565
2.92772
-2.21966
2.45263
-2.32973
2.03312
1.64086
-2.38843
-0.00330942
0.355201
-0.00923932
0.905183
-0.0167536
1.33602
-0.0261951
1.67059
-0.0381166
1.98632
-0.0530133
2.29194
-0.0726252
2.61884
-0.0989918
2.97881
-0.135774
3.35941
-0.189849
3.74689
-0.257195
3.44969
-0.379988
2.70421
-0.769259
2.68206
-1.4096
3.65187
-1.75873
4.03075
-1.93104
3.58577
-2.03258
3.02925
-2.12131
2.54136
-2.18779
2.0996
1.63343
-2.18036
-0.00333997
0.358541
-0.010304
0.912147
-0.0185392
1.34426
-0.0282012
1.68025
-0.0402515
1.99837
-0.0555744
2.30726
-0.0760875
2.63935
-0.103994
3.00672
-0.14289
3.3983
-0.199103
3.8031
-0.275521
3.52611
-0.444772
2.87346
-0.902122
3.1394
-1.4592
4.20895
-1.71926
4.2908
-1.87035
3.73686
-1.9641
3.123
-1.96462
2.54188
-1.89445
2.02943
1.59515
-1.85617
-0.00311521
0.361656
-0.00943273
0.918465
-0.0178022
1.35263
-0.0283526
1.6908
-0.0414695
2.01149
-0.0576703
2.32346
-0.0787991
2.66048
-0.107081
3.035
-0.146561
3.43778
-0.203149
3.85969
-0.288118
3.61107
-0.491489
3.07683
-0.985257
3.63317
-1.42536
4.64906
-1.58955
4.45499
-1.65611
3.80342
-1.66048
3.12737
-1.51294
2.39434
-1.01397
1.53045
0.581185
-0.00273311
0.364389
-0.0104238
0.926155
-0.0197039
1.36191
-0.030516
1.70161
-0.0439397
2.02492
-0.0609987
2.34052
-0.0838494
2.68333
-0.115046
3.0662
-0.158671
3.48141
-0.221245
3.92227
-0.32342
3.71325
-0.577503
3.33091
-1.12033
4.176
-1.47695
5.00568
-1.57569
4.55373
-1.57382
3.80156
-1.47044
3.02398
-1.23195
2.15585
-0.629493
0.927997
-0.0483078
-0.00244045
0.36683
-0.00868779
0.932403
-0.0178717
1.37109
-0.0299458
1.71368
-0.0451611
2.04013
-0.0641328
2.35949
-0.0891315
2.70833
-0.122906
3.09997
-0.170854
3.52936
-0.24058
3.99199
-0.362923
3.83559
-0.676945
3.64493
-1.23808
4.73713
-1.49654
5.26414
-1.55557
4.61275
-1.5334
3.77939
-1.33194
2.82253
-0.780124
1.60403
-0.108267
0.25614
-0.156575
-0.00148176
0.368312
-0.00933554
0.940256
-0.0195296
1.38129
-0.0316972
1.72585
-0.0468738
2.05531
-0.0664258
2.37904
-0.0930126
2.73491
-0.129845
3.1368
-0.181746
3.58126
-0.258818
4.06906
-0.407047
3.98382
-0.779522
4.01741
-1.31505
5.27266
-1.49086
5.43996
-1.52155
4.64344
-1.43379
3.69163
-1.09835
2.48709
-0.31218
0.817867
0.024732
-0.0807715
-0.131843
-0.000946822
0.369258
-0.0060924
0.945402
-0.0156414
1.39083
-0.0291403
1.73935
-0.046296
2.07246
-0.0679739
2.40072
-0.0968731
2.76381
-0.136071
3.176
-0.191058
3.63624
-0.277447
4.15545
-0.451669
4.15804
-0.889406
4.45514
-1.35978
5.74303
-1.47481
5.55499
-1.47808
4.6467
-1.25484
3.46839
-0.684695
1.91694
-0.0630495
0.196221
0.0300023
-0.173823
-0.10184
0.000104138
0.369154
-0.00588904
0.951395
-0.0162738
1.40122
-0.0296246
1.7527
-0.046067
2.08891
-0.0679067
2.42256
-0.0979055
2.79381
-0.139616
3.21771
-0.197783
3.69441
-0.292853
4.25052
-0.493664
4.35885
-0.980893
4.94237
-1.35362
6.11576
-1.41945
5.62082
-1.37328
4.60053
-1.08556
3.18066
-0.323216
1.1546
0.00335444
-0.130349
0.0141149
-0.184584
-0.0877256
0.00332854
0.365826
0.00106749
0.953656
-0.00888694
1.41117
-0.0234978
1.76731
-0.0418438
2.10725
-0.0659816
2.4467
-0.0981809
2.82601
-0.14164
3.26117
-0.202653
3.75542
-0.306414
4.35428
-0.532149
4.58459
-1.04323
5.45346
-1.31886
6.39138
-1.35782
5.65978
-1.2196
4.46231
-0.770554
2.73162
-0.0701026
0.454153
0.043538
-0.24399
0.0237111
-0.164757
-0.0640145
0.00428937
0.361536
0.00234922
0.955596
-0.00753824
1.42106
-0.0210101
1.78078
-0.0377197
2.12396
-0.0613453
2.47032
-0.0936275
2.85829
-0.138724
3.30627
-0.202246
3.81895
-0.313392
4.46543
-0.570146
4.84134
-1.06422
5.94753
-1.25304
6.58021
-1.26406
5.6708
-1.04626
4.24451
-0.46027
2.14563
-0.018465
0.0123483
-0.00674589
-0.255709
0.00478311
-0.176286
-0.0592314
0.00871619
0.35282
0.0107258
0.953587
0.00477885
1.42701
-0.00839149
1.79395
-0.0274093
2.14298
-0.0529078
2.49582
-0.0868
2.89219
-0.132385
3.35185
-0.197586
3.88415
-0.315438
4.58328
-0.591737
5.11764
-1.04115
6.39695
-1.16642
6.70547
-1.14971
5.65408
-0.891111
3.98592
-0.265652
1.52017
-0.0709818
-0.182322
-0.0390828
-0.287608
-0.0145422
-0.200826
-0.0737736
0.0113227
0.341497
0.015961
0.948948
0.0108855
1.43208
0.000780904
1.80406
-0.0168052
2.16057
-0.0400248
2.51904
-0.0722339
2.92439
-0.117795
3.39741
-0.183537
3.94989
-0.304564
4.70431
-0.590353
5.40343
-0.977411
6.784
-1.04007
6.76814
-0.973922
5.58793
-0.676622
3.68862
-0.0728558
0.916405
0.0133314
-0.268509
-0.0012698
-0.273007
-0.00232284
-0.199773
-0.0760965
0.0185209
0.322977
0.0308964
0.936573
0.0310459
1.43193
0.0207679
1.81434
0.00337266
2.17796
-0.0199543
2.54237
-0.0526004
2.95704
-0.0969701
3.44178
-0.161102
4.01402
-0.282342
4.82555
-0.558677
5.67977
-0.864172
7.0895
-0.901563
6.80553
-0.796564
5.48293
-0.440364
3.33242
0.0685891
0.407451
0.0800004
-0.279921
0.0597668
-0.252773
0.0221518
-0.162158
-0.0539447
0.024276
0.298701
0.0424686
0.91838
0.0455289
1.42887
0.0391337
1.82073
0.0273503
2.18974
0.00704206
2.56268
-0.0216395
2.98572
-0.0628946
3.48304
-0.124092
4.07522
-0.238681
4.94014
-0.486169
5.92726
-0.707534
7.31086
-0.732505
6.8305
-0.635467
5.3859
-0.299876
2.99683
0.0126598
0.0949156
0.0266983
-0.293959
0.0366306
-0.262705
0.0172824
-0.14281
-0.0366623
0.0351907
0.26351
0.0661908
0.88738
0.0789245
1.41614
0.0767311
1.82293
0.0661161
2.20036
0.0465501
2.58224
0.0188694
3.0134
-0.0194345
3.52134
-0.0742065
4.12999
-0.173838
5.03977
-0.373286
6.1267
-0.527065
7.46464
-0.551862
6.8553
-0.457046
5.29108
-0.190368
2.73015
-0.0739975
-0.0214547
-0.0507809
-0.317176
-0.017499
-0.295987
0.000715132
-0.161024
-0.0359471
0.0447113
0.218799
0.0875314
0.84456
0.107902
1.39577
0.112798
1.81803
0.109308
2.20385
0.096364
2.59519
0.0764746
3.03329
0.0451501
3.55267
-0.00612771
4.18127
-0.0799148
5.11356
-0.217276
6.26407
-0.306304
7.55367
-0.317069
6.86606
-0.26385
5.23786
-0.111917
2.57822
-0.116251
-0.0171205
-0.0955204
-0.337907
-0.0591238
-0.332384
-0.0158781
-0.20427
-0.0518253
0.0579853
0.160813
0.121683
0.780862
0.160529
1.35692
0.174687
1.80387
0.175381
2.20316
0.16492
2.60565
0.148946
3.04927
0.125773
3.57584
0.090904
4.21614
0.0414245
5.16303
-0.0112089
6.3167
-0.0413451
7.58381
-0.0395696
6.86428
-0.00505335
5.20334
0.0252464
2.54792
-0.139154
0.14728
-0.139868
-0.337193
-0.088607
-0.383644
-0.0161345
-0.276742
-0.0679598
0.059612
0.101201
0.151301
0.689174
0.20888
1.29934
0.236599
1.77615
0.248841
2.19091
0.249351
2.60514
0.243862
3.05476
0.232156
3.58755
0.212767
4.23553
0.190922
5.18488
0.2321
6.27552
0.288856
7.52705
0.325092
6.82805
0.298712
5.22972
0.146186
2.70044
-0.128401
0.421867
-0.201233
-0.264361
-0.138711
-0.446167
-0.0343537
-0.3811
-0.102313
0.0487383
0.052463
0.184794
0.553118
0.283374
1.20077
0.332588
1.72694
0.353868
2.16963
0.361173
2.59783
0.359262
3.05667
0.360013
3.5868
0.361755
4.23378
0.373493
5.17314
0.523274
6.12574
0.664026
7.3863
0.673509
6.81857
0.46589
5.43734
-0.0231589
3.18949
-0.379734
0.778442
-0.437174
-0.20692
-0.344965
-0.538376
-0.172303
-0.553763
-0.274616
0.0340348
0.0184283
0.21878
0.368372
0.348583
1.07096
0.427543
1.64798
0.469754
2.12742
0.495532
2.57205
0.504913
3.04729
0.518415
3.57329
0.540734
4.21146
0.59285
5.12103
0.80786
5.91073
1.12312
7.07104
1.24865
6.69304
1.23959
5.4464
0.738469
3.69061
0.0122484
1.50466
-0.403439
0.208768
-0.490507
-0.451307
-0.273994
-0.770276
-0.54861
0.030244
-0.0118157
0.232352
0.166264
0.452092
0.851223
0.573664
1.5264
0.628672
2.07241
0.66021
2.54052
0.680102
3.02739
0.703582
3.54981
0.749611
4.16544
0.845513
5.02512
1.16589
5.59036
1.72781
6.50911
2.05873
6.36213
2.30285
5.20228
2.20004
3.79342
1.42823
2.27647
0.699616
0.937382
0.188689
0.0596194
-0.0308373
-0.550749
-0.579447
0.0225079
-0.0343236
0.153682
0.0350904
0.493682
0.511223
0.695167
1.32492
0.802496
1.96509
0.85764
2.48537
0.89484
2.99019
0.919217
3.52544
0.980661
4.10399
1.10419
4.90159
1.47135
5.2232
2.23129
5.74917
2.61145
5.98196
2.79037
5.02336
2.64957
3.93422
2.14821
2.77783
1.49254
1.59305
0.914217
0.637945
0.342343
0.0211239
-0.237104
0.00151144
-0.0358351
0.0752207
-0.0386189
0.407017
0.179426
0.723149
1.00879
0.87083
1.8174
0.911277
2.44493
0.919331
2.98214
0.903106
3.54166
0.899834
4.10726
0.933401
4.86802
1.0947
5.0619
1.53773
5.30614
1.71482
5.80487
1.76104
4.97714
1.67333
4.02193
1.41263
3.03853
1.00104
2.00464
0.584851
1.05414
0.249641
0.356334
0.0125371
0.00443513
-0.0402702
0.0421182
-0.076302
0.200818
0.0207257
0.54933
0.660276
0.73599
1.63074
0.803063
2.37785
0.81731
2.96789
0.811825
3.54715
0.795441
4.12365
0.813914
4.84955
0.896923
4.97889
1.20897
4.99409
1.38952
5.62433
1.40737
4.95929
1.35097
4.07832
1.18563
3.20387
0.895099
2.29518
0.565548
1.38369
0.234327
0.687556
0.246864
-0.0010096
-0.0392606
0.00781075
-0.0851223
0.0740465
-0.0455101
0.374332
0.359991
0.594701
1.41038
0.697712
2.27484
0.720724
2.94488
0.717533
3.55034
0.689357
4.15182
0.685464
4.85344
0.71639
4.94796
0.907152
4.80333
1.07856
5.45293
1.08011
4.95773
1.02701
4.13142
0.903356
3.32753
0.693182
2.50535
0.430573
1.64629
0.175787
0.942342
0.422651
-0.00575811
-0.0335025
-0.00517146
-0.085709
0.0288455
-0.079527
0.239104
0.149732
0.471934
1.17754
0.575937
2.17084
0.607323
2.9135
0.611757
3.5459
0.582068
4.18151
0.555906
4.87961
0.559031
4.94484
0.667379
4.69498
0.807464
5.31284
0.797495
4.9677
0.740683
4.18823
0.644588
3.42362
0.495948
2.65399
0.304782
1.83746
0.117434
1.12969
0.540084
0.000864279
-0.0343668
0.0118739
-0.0967186
0.0422397
-0.109893
0.150899
0.0410728
0.362119
0.966325
0.476666
2.05629
0.503014
2.88715
0.498701
3.55022
0.473779
4.20643
0.446318
4.90707
0.430057
4.9611
0.489759
4.63528
0.584725
5.21788
0.574051
4.97838
0.516104