/*--------------------------------*- C++ -*----------------------------------*\
  =========                 |
  \\      /  F ield         | OpenFOAM: The Open Source CFD Toolbox
   \\    /   O peration     | Website:  https://openfoam.org
    \\  /    A nd           | Version:  10
     \\/     M anipulation  |
\*---------------------------------------------------------------------------*/
FoamFile
{
    format      ascii;
    class       volVectorField;
    location    "73";
    object      U;
}
// * * * * * * * * * * * * * * * * * * * * * * * * * * * * * * * * * * * * * //

dimensions      [0 1 -1 0 0 0 0];

internalField   nonuniform List<vector> 
2200
(
(0.878837 -0.0304117 0)
(1.00578 -0.0512776 0)
(1.00327 -0.0353981 0)
(1.00022 -0.0244285 0)
(0.999835 -0.0166454 0)
(1.00003 -0.01071 0)
(1.00002 -0.00682161 0)
(0.999937 -0.00414933 0)
(0.999794 -0.00212718 0)
(1.00018 -0.000619349 0)
(0.999981 0.00125151 0)
(1.00026 0.0027463 0)
(1.00039 0.0045333 0)
(1.00025 0.00714635 0)
(1.00004 0.0108585 0)
(0.999961 0.0166799 0)
(1.0003 0.0243879 0)
(1.00346 0.0348732 0)
(1.00598 0.0513834 0)
(0.87904 0.0302971 0)
(0.712035 -0.0327601 0)
(0.996649 -0.0630028 0)
(1.03335 -0.0561287 0)
(1.02498 -0.0464087 0)
(1.01594 -0.0361053 0)
(1.00965 -0.0263713 0)
(1.00595 -0.0181246 0)
(1.0039 -0.0114659 0)
(1.00286 -0.00610973 0)
(1.00232 -0.00168479 0)
(1.00228 0.00245314 0)
(1.00223 0.00691798 0)
(1.0032 0.0124128 0)
(1.00551 0.0189294 0)
(1.00944 0.0272289 0)
(1.01554 0.0369682 0)
(1.02462 0.0474646 0)
(1.03315 0.0579953 0)
(0.996695 0.0631481 0)
(0.711781 0.0330364 0)
(0.535579 -0.02389 0)
(0.969939 -0.0569173 0)
(1.05643 -0.0547223 0)
(1.05219 -0.0487133 0)
(1.03621 -0.0403681 0)
(1.02448 -0.0321761 0)
(1.01588 -0.0238913 0)
(1.01023 -0.0159497 0)
(1.00681 -0.00860764 0)
(1.00535 -0.00184655 0)
(1.00521 0.00435647 0)
(1.00716 0.0108734 0)
(1.01051 0.0177443 0)
(1.01576 0.0254829 0)
(1.02403 0.0334739 0)
(1.03608 0.0414596 0)
(1.05217 0.0494536 0)
(1.05628 0.0533011 0)
(0.969174 0.0576693 0)
(0.534327 0.0239429 0)
(0.392444 -0.013635 0)
(0.911945 -0.0463621 0)
(1.05756 -0.0468088 0)
(1.0697 -0.0442637 0)
(1.05497 -0.0381118 0)
(1.03937 -0.0314483 0)
(1.02764 -0.0246367 0)
(1.01931 -0.0174558 0)
(1.01414 -0.00999972 0)
(1.01158 -0.0025273 0)
(1.01132 0.00509423 0)
(1.0131 0.012609 0)
(1.01799 0.0200197 0)
(1.02652 0.0267737 0)
(1.03849 0.0331611 0)
(1.05396 0.039585 0)
(1.06817 0.0456562 0)
(1.05544 0.0483157 0)
(0.909863 0.0469984 0)
(0.389852 0.0137824 0)
(0.307867 -0.00451018 0)
(0.846839 -0.0323583 0)
(1.0494 -0.0398897 0)
(1.07943 -0.038115 0)
(1.06822 -0.033428 0)
(1.05176 -0.0277828 0)
(1.03833 -0.0223692 0)
(1.02794 -0.0162378 0)
(1.02063 -0.00924104 0)
(1.01657 -0.00150144 0)
(1.0166 0.00624488 0)
(1.0206 0.013461 0)
(1.02758 0.019741 0)
(1.03732 0.025491 0)
(1.05016 0.0304504 0)
(1.06661 0.035782 0)
(1.07767 0.0401115 0)
(1.0472 0.0418032 0)
(0.842847 0.0329987 0)
(0.30361 0.00474489 0)
(0.264535 0.000105449 0)
(0.789349 -0.0200419 0)
(1.03371 -0.0314005 0)
(1.08382 -0.0319437 0)
(1.07747 -0.0286532 0)
(1.06094 -0.0237814 0)
(1.04735 -0.0192938 0)
(1.03661 -0.0142539 0)
(1.02901 -0.00824104 0)
(1.02468 -0.00126808 0)
(1.02404 0.00619976 0)
(1.02723 0.0130818 0)
(1.03427 0.0188762 0)
(1.04492 0.0233247 0)
(1.0586 0.0272488 0)
(1.07484 0.0316242 0)
(1.08026 0.0343499 0)
(1.02907 0.0334201 0)
(0.782388 0.0207792 0)
(0.258544 0.00012929 0)
(0.240612 0.00107344 0)
(0.738689 -0.0122469 0)
(1.01385 -0.0249133 0)
(1.08411 -0.0266519 0)
(1.0831 -0.0243135 0)
(1.06791 -0.0200969 0)
(1.05435 -0.0160355 0)
(1.04337 -0.0113991 0)
(1.03493 -0.00592063 0)
(1.02969 0.000549469 0)
(1.02948 0.00717429 0)
(1.03395 0.0128911 0)
(1.0416 0.0174394 0)
(1.05173 0.0214381 0)
(1.06462 0.0248102 0)
(1.07932 0.0282683 0)
(1.07979 0.0298149 0)
(1.00732 0.027321 0)
(0.728536 0.0131831 0)
(0.232816 -0.000828245 0)
(0.226426 0.000967175 0)
(0.696146 -0.00799245 0)
(0.993631 -0.0206317 0)
(1.08265 -0.0229579 0)
(1.08717 -0.0210968 0)
(1.07361 -0.0175557 0)
(1.06009 -0.0137484 0)
(1.0495 -0.00951448 0)
(1.04168 -0.00458304 0)
(1.03692 0.00108699 0)
(1.03587 0.00717534 0)
(1.03888 0.0125699 0)
(1.04563 0.0170114 0)
(1.05568 0.020313 0)
(1.06914 0.0232814 0)
(1.08183 0.0259653 0)
(1.07546 0.0269382 0)
(0.982969 0.023552 0)
(0.681303 0.00917157 0)
(0.216295 -0.000704899 0)
(0.216878 0.00063004 0)
(0.660739 -0.00562542 0)
(0.973007 -0.0175136 0)
(1.07973 -0.0200486 0)
(1.09043 -0.0184151 0)
(1.07843 -0.0151808 0)
(1.06507 -0.0114488 0)
(1.05456 -0.00710235 0)
(1.04648 -0.00213254 0)
(1.04107 0.00329671 0)
(1.04029 0.00851038 0)
(1.04404 0.0130825 0)
(1.05074 0.0166838 0)
(1.06002 0.02 0)
(1.07236 0.0226627 0)
(1.08319 0.0248147 0)
(1.07062 0.0251982 0)
(0.958742 0.0211507 0)
(0.641007 0.0071325 0)
(0.204096 -0.000325688 0)
(0.209881 0.00030796 0)
(0.6326 -0.00414593 0)
(0.954587 -0.0148534 0)
(1.07707 -0.017696 0)
(1.09385 -0.0163165 0)
(1.08327 -0.0133666 0)
(1.06976 -0.00973559 0)
(1.05921 -0.00571369 0)
(1.05137 -0.00115877 0)
(1.04641 0.00387394 0)
(1.04487 0.00925426 0)
(1.04707 0.0137989 0)
(1.05298 0.0175241 0)
(1.06235 0.020141 0)
(1.07536 0.0224917 0)
(1.08416 0.0241367 0)
(1.06351 0.0240925 0)
(0.933798 0.0193081 0)
(0.605827 0.00600248 0)
(0.193521 5.22026e-05 0)
(0.204089 9.31182e-05 0)
(0.609351 -0.00310127 0)
(0.93661 -0.0124227 0)
(1.07382 -0.0154116 0)
(1.09712 -0.0142088 0)
(1.08803 -0.0113632 0)
(1.07454 -0.00775157 0)
(1.06384 -0.00353238 0)
(1.05575 0.00142232 0)
(1.05024 0.00669567 0)
(1.04861 0.0112053 0)
(1.05119 0.0151495 0)
(1.05703 0.0181761 0)
(1.06579 0.0209136 0)
(1.07763 0.0229355 0)
(1.08432 0.0241428 0)
(1.05652 0.0233541 0)
(0.909628 0.0178264 0)
(0.575185 0.00537328 0)
(0.183727 0.000337355 0)
(0.19975 2.87667e-05 0)
(0.591656 -0.00219092 0)
(0.921696 -0.0100189 0)
(1.07126 -0.0130424 0)
(1.10069 -0.0118951 0)
(1.09296 -0.00910838 0)
(1.07929 -0.00543441 0)
(1.06826 -0.00150487 0)
(1.05978 0.00286924 0)
(1.05387 0.0074835 0)
(1.05152 0.0126058 0)
(1.05309 0.0167122 0)
(1.05841 0.0197753 0)
(1.06749 0.0217078 0)
(1.07994 0.0234507 0)
(1.08398 0.0242775 0)
(1.04727 0.0228952 0)
(0.884771 0.0166806 0)
(0.54718 0.00501805 0)
(0.174089 0.000507636 0)
(0.196263 3.83436e-05 0)
(0.577096 -0.00149933 0)
(0.907364 -0.00793216 0)
(1.06856 -0.0108434 0)
(1.10436 -0.00969295 0)
(1.09819 -0.00688826 0)
(1.0845 -0.00328201 0)
(1.07307 0.000852639 0)
(1.06418 0.00572562 0)
(1.05812 0.011242 0)
(1.0554 0.0157214 0)
(1.05676 0.0191115 0)
(1.06193 0.0214498 0)
(1.07039 0.0233799 0)
(1.0812 0.02455 0)
(1.0831 0.0248978 0)
(1.03775 0.0229129 0)
(0.860113 0.0159252 0)
(0.521386 0.00489152 0)
(0.164636 0.000601392 0)
(0.194363 6.92965e-05 0)
(0.56703 -0.000675483 0)
(0.896394 -0.00569343 0)
(1.06656 -0.00825929 0)
(1.10818 -0.0069012 0)
(1.10334 -0.00393228 0)
(1.08952 -3.58784e-05 0)
(1.07781 0.00408753 0)
(1.06845 0.00864143 0)
(1.06106 0.0130893 0)
(1.05733 0.0177809 0)
(1.05797 0.0212807 0)
(1.06263 0.0236308 0)
(1.07139 0.0248364 0)
(1.08234 0.0257991 0)
(1.08093 0.0256338 0)
(1.02559 0.0230829 0)
(0.834347 0.01545 0)
(0.496458 0.00483868 0)
(0.155115 0.000631611 0)
(0.193713 0.000108777 0)
(0.559914 -0.000128522 0)
(0.886766 -0.00356791 0)
(1.06527 -0.00566703 0)
(1.11239 -0.00410669 0)
(1.10907 -0.000968913 0)
(1.09533 0.00288619 0)
(1.08303 0.00715079 0)
(1.07283 0.0120352 0)
(1.06538 0.017595 0)
(1.06131 0.0220464 0)
(1.06131 0.0250319 0)
(1.06565 0.0266077 0)
(1.07366 0.0276363 0)
(1.08196 0.0278767 0)
(1.07801 0.0272529 0)
(1.01291 0.0239297 0)
(0.8082 0.0154234 0)
(0.472257 0.00494232 0)
(0.145604 0.000657519 0)
(0.194433 7.18892e-05 0)
(0.556103 0.000931181 0)
(0.880608 -0.00143671 0)
(1.06485 -0.00292255 0)
(1.11705 -0.000911791 0)
(1.11491 0.00255049 0)
(1.10095 0.00697317 0)
(1.08839 0.0116311 0)
(1.07794 0.0166998 0)
(1.06904 0.0214777 0)
(1.06307 0.0253413 0)
(1.06211 0.0280851 0)
(1.06541 0.0296284 0)
(1.07332 0.0301997 0)
(1.08197 0.0303603 0)
(1.07323 0.0291745 0)
(0.997131 0.0249438 0)
(0.780374 0.0157148 0)
(0.447681 0.00511894 0)
(0.135763 0.000674419 0)
(0.196791 0.000330667 0)
(0.556684 0.00161517 0)
(0.876683 0.00106567 0)
(1.06616 0.000498713 0)
(1.12243 0.00286259 0)
(1.12147 0.00665545 0)
(1.10744 0.0111981 0)
(1.09407 0.0161547 0)
(1.08218 0.0213953 0)
(1.0722 0.0267219 0)
(1.06643 0.0315536 0)
(1.06475 0.0338311 0)
(1.06772 0.0344579 0)
(1.07485 0.0347098 0)
(1.07967 0.0338812 0)
(1.06736 0.0319472 0)
(0.980395 0.0267882 0)
(0.751375 0.0164167 0)
(0.42259 0.00543688 0)
(0.125578 0.000700101 0)
(0.201207 0.000689418 0)
(0.5598 0.00247374 0)
(0.877563 0.0036663 0)
(1.06899 0.00380063 0)
(1.12873 0.00695909 0)
(1.12872 0.0112064 0)
(1.11426 0.0165291 0)
(1.10034 0.0220782 0)
(1.08821 0.0280169 0)
(1.07759 0.0335888 0)
(1.06877 0.0369477 0)
(1.065 0.0385057 0)
(1.06617 0.0392774 0)
(1.07276 0.0387889 0)
(1.07833 0.0380544 0)
(1.05939 0.0353885 0)
(0.959632 0.0288365 0)
(0.719556 0.0174826 0)
(0.395884 0.0058437 0)
(0.114684 0.000721313 0)
(0.208119 0.000913552 0)
(0.567577 0.00367284 0)
(0.882095 0.00620639 0)
(1.07435 0.00827276 0)
(1.13602 0.0119099 0)
(1.13695 0.0167994 0)
(1.12209 0.0225139 0)
(1.10716 0.0286727 0)
(1.09312 0.0347838 0)
(1.07987 0.0403591 0)
(1.07036 0.0443792 0)
(1.06666 0.0463532 0)
(1.06796 0.0462479 0)
(1.07322 0.0455081 0)
(1.07352 0.04346 0)
(1.04952 0.0395717 0)
(0.937278 0.0318941 0)
(0.685579 0.0189501 0)
(0.367541 0.00634635 0)
(0.103115 0.000740408 0)
(0.216773 0.00109539 0)
(0.578953 0.00495479 0)
(0.890773 0.00927044 0)
(1.08235 0.0127147 0)
(1.14475 0.017657 0)
(1.14618 0.0233523 0)
(1.13044 0.0301087 0)
(1.11438 0.0370214 0)
(1.09936 0.0441502 0)
(1.08518 0.0503769 0)
(1.07356 0.0543881 0)
(1.06648 0.0547673 0)
(1.06498 0.0540499 0)
(1.06892 0.05203 0)
(1.07017 0.0498832 0)
(1.037 0.0450223 0)
(0.909391 0.0351908 0)
(0.646942 0.0207361 0)
(0.336282 0.00687318 0)
(0.0905499 0.000749444 0)
(0.229643 0.00142066 0)
(0.598049 0.00689265 0)
(0.906354 0.0137449 0)
(1.09393 0.0191024 0)
(1.15548 0.0246633 0)
(1.15709 0.0314431 0)
(1.14042 0.0390494 0)
(1.12289 0.0468717 0)
(1.10553 0.054438 0)
(1.08821 0.0606624 0)
(1.07329 0.0638331 0)
(1.06625 0.0643822 0)
(1.06526 0.0635713 0)
(1.06795 0.0613828 0)
(1.06198 0.0577842 0)
(1.02116 0.0510899 0)
(0.878546 0.0396432 0)
(0.604874 0.0228505 0)
(0.302549 0.00741453 0)
(0.0772326 0.000750248 0)
(0.245703 0.00201743 0)
(0.622357 0.00870616 0)
(0.928362 0.0183515 0)
(1.11002 0.026052 0)
(1.16855 0.0336618 0)
(1.16961 0.0417177 0)
(1.15097 0.0507082 0)
(1.13125 0.0595134 0)
(1.11158 0.0678423 0)
(1.09209 0.0742925 0)
(1.07569 0.0775469 0)
(1.06561 0.077178 0)
(1.06093 0.0745281 0)
(1.0611 0.0707757 0)
(1.05522 0.0665029 0)
(1.00197 0.0585299 0)
(0.840195 0.0440431 0)
(0.555899 0.0249408 0)
(0.265019 0.00778564 0)
(0.0629777 0.000719273 0)
(0.268128 0.00286838 0)
(0.655647 0.0125763 0)
(0.957321 0.0252079 0)
(1.13032 0.035821 0)
(1.18451 0.0445792 0)
(1.18445 0.0546573 0)
(1.16371 0.0648386 0)
(1.14147 0.0746782 0)
(1.11861 0.0833744 0)
(1.09537 0.0896661 0)
(1.07509 0.0919552 0)
(1.06288 0.0900727 0)
(1.05904 0.087451 0)
(1.05827 0.083538 0)
(1.04258 0.0774015 0)
(0.977101 0.0667615 0)
(0.79676 0.0496963 0)
(0.502298 0.0272047 0)
(0.225083 0.00802508 0)
(0.0484352 0.000699292 0)
(0.300038 0.00379251 0)
(0.70219 0.0156638 0)
(0.997903 0.0334302 0)
(1.15778 0.0473344 0)
(1.20425 0.0590382 0)
(1.20149 0.0714098 0)
(1.1767 0.0835033 0)
(1.15066 0.0942979 0)
(1.12425 0.103244 0)
(1.0977 0.108604 0)
(1.07466 0.109211 0)
(1.06096 0.106584 0)
(1.05286 0.102058 0)
(1.04816 0.0958637 0)
(1.03036 0.0887077 0)
(0.947669 0.0759547 0)
(0.742969 0.0545446 0)
(0.438984 0.0285987 0)
(0.181457 0.00778601 0)
(0.0334737 0.000594023 0)
(0.33705 0.0071812 0)
(0.760559 0.0252308 0)
(1.04659 0.0471682 0)
(1.19046 0.0657811 0)
(1.22769 0.0791885 0)
(1.22043 0.0943387 0)
(1.19122 0.107147 0)
(1.16128 0.117968 0)
(1.1305 0.125884 0)
(1.0994 0.129896 0)
(1.07288 0.129469 0)
(1.05578 0.124722 0)
(1.04838 0.118645 0)
(1.0426 0.112171 0)
(1.01065 0.10236 0)
(0.908708 0.0854013 0)
(0.681311 0.0601055 0)
(0.372341 0.0298636 0)
(0.138125 0.00734908 0)
(0.0201439 0.000564932 0)
(0.418203 0.0109716 0)
(0.849475 0.0358565 0)
(1.1155 0.0683537 0)
(1.2322 0.0912124 0)
(1.25575 0.107463 6.09301e-34)
(1.24161 0.124894 -2.75672e-34)
(1.20566 0.138028 0)
(1.1703 0.147856 0)
(1.13484 0.154274 0)
(1.09995 0.155826 0)
(1.07009 0.151599 0)
(1.05167 0.144253 0)
(1.04009 0.136928 0)
(1.02755 0.127434 0)
(0.989393 0.115323 0)
(0.863303 0.0948805 0)
(0.605838 0.0632664 0)
(0.291927 0.0284635 0)
(0.0899583 0.00661668 0)
(0.0060467 0.000703974 0)
(0.490248 0.0261038 4.40678e-20)
(0.951946 0.0610323 -3.34209e-20)
(1.18455 0.102747 0)
(1.27367 0.130282 2.618e-20)
(1.28477 0.146779 -2.12291e-20)
(1.26087 0.165809 2.90863e-34)
(1.21825 0.176735 0)
(1.1781 0.184359 1.55903e-20)
(1.13743 0.18788 -5.124e-20)
(1.09705 0.186066 1.0487e-20)
(1.06356 0.179632 0)
(1.04225 0.170872 -2.67559e-20)
(1.03071 0.160647 -3.22844e-20)
(1.01551 0.150461 5.65956e-20)
(0.950887 0.134253 -4.46998e-20)
(0.787123 0.10464 0)
(0.496009 0.0646501 -1.60459e-20)
(0.198214 0.025686 0)
(0.0422927 0.0061798 -8.8821e-20)
(-0.00881441 0.000234943 1.04678e-19)
(0.527231 0.0544455 -5.84705e-21)
(1.02062 0.103591 9.75683e-20)
(1.23919 0.154642 -4.77859e-21)
(1.30913 0.17907 -6.2888e-20)
(1.31081 0.196473 -4.47103e-20)
(1.27817 0.213633 7.27286e-20)
(1.22906 0.222159 0)
(1.18299 0.227249 0)
(1.13697 0.228223 8.12284e-20)
(1.09269 0.224015 0)
(1.05595 0.214558 9.60422e-20)
(1.03139 0.201741 2.87098e-20)
(1.01376 0.190474 6.42979e-22)
(0.983515 0.175981 -6.11433e-20)
(0.905212 0.152961 0)
(0.711256 0.116593 0)
(0.404907 0.0651188 -2.60506e-19)
(0.135907 0.0224417 6.55119e-19)
(0.00914505 0.00391053 -3.87213e-19)
(-0.019838 -0.00153418 -4.56024e-19)
(0.534185 0.0789228 -5.07086e-20)
(1.05223 0.160124 2.00149e-20)
(1.27284 0.214 1.14598e-20)
(1.3361 0.237765 1.09026e-19)
(1.33092 0.25479 1.47131e-20)
(1.29062 0.267619 -1.88738e-19)
(1.23601 0.271696 6.46364e-20)
(1.18508 0.272991 0)
(1.13386 0.270364 -1.71136e-19)
(1.08366 0.262019 1.52698e-19)
(1.04154 0.248472 -2.59024e-19)
(1.01435 0.233879 1.21454e-19)
(0.995976 0.220157 -7.88121e-20)
(0.965462 0.203682 1.77869e-19)
(0.866628 0.176725 0)
(0.655202 0.127554 -6.45876e-20)
(0.349457 0.065973 0)
(0.107708 0.0207062 3.55911e-19)
(-0.00672352 0.00123048 -8.42806e-19)
(-0.0258602 -0.00359124 5.27474e-19)
(0.532549 0.108744 1.26104e-19)
(1.08067 0.22061 -5.68104e-20)
(1.29908 0.282155 -1.26547e-20)
(1.35459 0.30393 0)
(1.34405 0.317471 -8.08555e-20)
(1.29895 0.324764 9.99542e-20)
(1.23976 0.324225 -6.88248e-20)
(1.18363 0.321512 0)
(1.1276 0.314791 1.21457e-19)
(1.07388 0.302342 -1.07175e-19)
(1.02919 0.285247 2.23356e-19)
(0.999761 0.26811 0)
(0.976297 0.251706 -1.67119e-19)
(0.933637 0.230472 9.43013e-20)
(0.831979 0.194517 2.36615e-19)
(0.615278 0.138607 -2.08094e-19)
(0.321553 0.0704613 3.27631e-19)
(0.0989581 0.0216151 -7.25853e-19)
(-0.014683 -0.00129159 4.58751e-19)
(-0.0304838 -0.00591578 -5.73531e-19)
(0.515764 0.133162 -3.37432e-20)
(1.07976 0.271223 2.36517e-20)
(1.30711 0.345144 -4.22773e-20)
(1.36402 0.368822 8.88617e-20)
(1.35057 0.381398 -8.6517e-20)
(1.3015 0.383725 3.09361e-20)
(1.23852 0.378216 3.87892e-21)
(1.17885 0.370823 -1.35474e-19)
(1.11892 0.35935 -1.26601e-19)
(1.06035 0.342131 -2.29167e-19)
(1.01109 0.320876 -4.79875e-19)
(0.978245 0.300003 -1.48083e-19)
(0.954558 0.280186 2.25831e-21)
(0.915856 0.256665 -3.2142e-19)
(0.805211 0.21862 -4.71562e-21)
(0.589753 0.151077 3.01919e-19)
(0.314056 0.0767888 -8.99815e-20)
(0.0988192 0.0238915 -5.23992e-20)
(-0.0148144 -0.00379291 0)
(-0.03234 -0.00787499 1.21483e-18)
(0.501997 0.155578 0)
(1.08148 0.325151 1.5605e-21)
(1.31226 0.411633 -4.87815e-21)
(1.36663 0.434442 -1.30624e-20)
(1.35046 0.444627 8.1876e-20)
(1.29939 0.442168 -7.31228e-20)
(1.23399 0.432199 7.46379e-20)
(1.17104 0.420415 2.22687e-19)
(1.10767 0.40469 -7.03925e-20)
(1.04622 0.383087 1.13097e-19)
(0.994866 0.357385 2.57744e-19)
(0.960393 0.333651 3.22806e-19)
(0.932411 0.311313 -1.94299e-19)
(0.88392 0.283424 3.47794e-19)
(0.778655 0.236271 -2.75517e-19)
(0.570876 0.167338 0)
(0.309906 0.0858613 -6.83653e-19)
(0.105359 0.0277268 9.22286e-19)
(-0.00854817 -0.00395169 6.8778e-20)
(-0.0306251 -0.00921349 -1.28415e-18)
(0.482442 0.174031 -5.2352e-21)
(1.06599 0.369316 -3.19609e-20)
(1.30652 0.469792 3.46342e-20)
(1.36394 0.495525 -5.93798e-20)
(1.34638 0.505546 6.97502e-20)
(1.29333 0.499136 -6.9748e-20)
(1.22562 0.485096 1.46516e-19)
(1.1604 0.46918 -6.58679e-20)
(1.09424 0.448858 -2.83526e-19)
(1.02895 0.422404 -1.87665e-23)
(0.974246 0.392824 -2.79955e-19)
(0.936569 0.365471 -3.47301e-19)
(0.90704 0.338923 2.14869e-19)
(0.864952 0.309659 -1.2493e-19)
(0.75504 0.262952 2.99887e-19)
(0.554953 0.183585 0)
(0.309543 0.0986263 -4.25909e-19)
(0.114138 0.0339666 6.29057e-19)
(0.00022419 -0.00187436 1.18917e-18)
(-0.0270452 -0.00959998 -1.3988e-18)
(0.470456 0.193278 -1.19105e-19)
(1.05859 0.417663 5.44987e-20)
(1.30106 0.530189 -1.51885e-20)
(1.35731 0.556054 6.03929e-20)
(1.33788 0.564427 1.22984e-20)
(1.2838 0.554287 -1.35239e-19)
(1.21475 0.536652 -8.56267e-20)
(1.14746 0.516712 -8.54408e-20)
(1.07889 0.492631 -1.6052e-19)
(1.01171 0.462187 2.58648e-19)
(0.955061 0.428509 2.82351e-19)
(0.915549 0.397566 5.50967e-19)
(0.883826 0.370149 0)
(0.832601 0.336996 6.27686e-21)
(0.730394 0.281052 -8.24765e-19)
(0.54076 0.201838 1.94124e-19)
(0.3093 0.11127 9.25459e-19)
(0.122788 0.0416152 -2.73098e-19)
(0.00977367 0.00146668 5.66001e-19)
(-0.0226951 -0.00920673 -4.71592e-20)
(0.455838 0.208671 5.92304e-21)
(1.04028 0.456427 7.16109e-20)
(1.28924 0.582656 2.0332e-21)
(1.3478 0.61162 5.04345e-20)
(1.32748 0.62012 -1.22445e-19)
(1.27227 0.606776 1.32937e-19)
(1.20175 0.585876 8.84604e-20)
(1.13303 0.562655 2.54068e-19)
(1.06255 0.534567 3.21181e-19)
(0.99234 0.499927 -3.00275e-19)
(0.93205 0.462543 0)
(0.889552 0.428302 -2.09173e-19)
(0.857195 0.395636 2.40155e-19)
(0.81365 0.361691 3.03368e-19)
(0.708861 0.308077 -1.75727e-19)
(0.527448 0.218493 -4.25569e-19)
(0.309363 0.124995 -1.26571e-19)
(0.130633 0.0501126 -2.07277e-21)
(0.0188501 0.00572153 0)
(-0.0181806 -0.00827765 0)
(0.448072 0.226145 -9.66729e-20)
(1.03029 0.499294 0)
(1.27887 0.636774 1.80359e-20)
(1.33611 0.66643 -2.04388e-20)
(1.3144 0.673466 1.42444e-19)
(1.25856 0.657146 -3.5503e-20)
(1.18726 0.633401 8.98376e-20)
(1.11722 0.606695 -1.71345e-19)
(1.04472 0.575534 2.43644e-19)
(0.972248 0.537587 -1.00192e-19)
(0.910272 0.496069 1.62325e-19)
(0.867306 0.457652 6.64823e-19)
(0.833835 0.424946 1.41895e-20)
(0.781823 0.38741 -3.17228e-19)
(0.685794 0.323966 5.86353e-19)
(0.512947 0.23693 2.98982e-21)
(0.306581 0.137679 1.35414e-19)
(0.136132 0.0588629 -6.45359e-19)
(0.0263937 0.0102445 6.64864e-19)
(-0.0140469 -0.00706147 -7.83251e-19)
(0.439579 0.240953 3.33653e-23)
(1.01415 0.534045 0)
(1.26454 0.683349 0)
(1.32295 0.71635 6.12786e-21)
(1.3007 0.723514 -3.98907e-20)
(1.24418 0.704553 6.06751e-20)
(1.17191 0.678115 -1.64813e-19)
(1.1007 0.648917 0)
(1.02635 0.614655 -3.59834e-19)
(0.95162 0.573182 4.36053e-19)
(0.887355 0.528411 4.65473e-19)
(0.841158 0.486972 -2.44181e-19)
(0.806171 0.448783 -2.96327e-19)
(0.763199 0.408934 6.9523e-19)
(0.66423 0.34965 -2.08812e-19)
(0.498221 0.251886 -2.48223e-19)
(0.303034 0.150418 -1.48236e-19)
(0.139358 0.0670807 -6.98152e-19)
(0.0320894 0.0145249 1.02323e-19)
(-0.0105603 -0.00579977 8.48965e-19)
(0.433742 0.257289 -4.57911e-20)
(1.00397 0.572064 -6.23737e-20)
(1.2521 0.731254 2.39844e-20)
(1.30877 0.765391 -2.0028e-22)
(1.28553 0.771179 -4.8357e-20)
(1.22853 0.749833 9.3114e-20)
(1.15566 0.721209 0)
(1.08343 0.689149 1.04529e-19)
(1.00781 0.652433 -8.24214e-20)
(0.931765 0.608395 7.29128e-19)
(0.865142 0.559542 -1.04377e-19)
(0.818169 0.513823 1.21099e-19)
(0.783323 0.476 0)
(0.731494 0.432401 -3.76663e-19)
(0.640766 0.361809 4.56221e-19)
(0.481988 0.268242 0)
(0.296262 0.160588 -3.19035e-19)
(0.139869 0.0742325 9.3934e-19)
(0.0357478 0.0181695 1.11669e-19)
(-0.00783677 -0.00465939 -1.04742e-18)
(0.428776 0.274541 -1.12514e-19)
(0.990104 0.603453 1.41688e-19)
(1.23703 0.772083 0)
(1.294 0.809585 3.34155e-20)
(1.27042 0.815645 0)
(1.21295 0.792259 -1.25501e-19)
(1.13948 0.761419 0)
(1.0666 0.727443 0)
(0.989693 0.688455 -1.10675e-19)
(0.911211 0.641703 -6.93457e-19)
(0.841392 0.590053 -8.61756e-19)
(0.79186 0.541975 1.42286e-19)
(0.754761 0.497348 5.14571e-19)
(0.712353 0.449812 4.15437e-19)
(0.618313 0.384391 -1.46506e-18)
(0.465553 0.278673 -5.83806e-19)
(0.288565 0.170097 3.42588e-19)
(0.138703 0.0799623 0)
(0.0378105 0.0211478 9.60658e-19)
(-0.00578378 -0.00371159 -1.13032e-18)
(0.426294 0.290203 1.31831e-19)
(0.981513 0.637852 -1.62559e-19)
(1.224 0.814482 0)
(1.279 0.852975 -1.1539e-20)
(1.25465 0.857814 -7.84853e-21)
(1.19686 0.832562 0)
(1.12311 0.800083 5.13194e-20)
(1.04958 0.763866 7.36213e-20)
(0.971537 0.723012 -2.07219e-19)
(0.891353 0.674257 9.15964e-20)
(0.8193 0.619098 0)
(0.768506 0.566393 5.90604e-19)
(0.731735 0.521513 6.63539e-21)
(0.680001 0.470182 2.2437e-19)
(0.594624 0.390551 2.65624e-19)
(0.448837 0.290558 0)
(0.279559 0.176165 -5.57183e-19)
(0.135975 0.084354 1.09435e-18)
(0.0386284 0.0232361 -1.16328e-18)
(-0.00435602 -0.00298948 2.43673e-18)
(0.424073 0.305005 0)
(0.969574 0.665922 0)
(1.20922 0.85021 -8.0763e-20)
(1.26403 0.891705 0)
(1.23941 0.896985 0)
(1.18133 0.870242 -9.83661e-20)
(1.10732 0.835994 5.24709e-20)
(1.03335 0.798313 1.798e-20)
(0.95394 0.755856 -4.7028e-20)
(0.871223 0.705182 0)
(0.795922 0.647995 -1.32164e-19)
(0.74191 0.593362 -4.81811e-19)
(0.701519 0.54019 -5.81031e-19)
(0.66 0.482238 -2.33816e-19)
(0.571832 0.408469 2.87773e-19)
(0.431559 0.295068 -6.77438e-19)
(0.270473 0.181474 1.19605e-18)
(0.1324 0.0867558 1.42943e-21)
(0.0387015 0.0255158 -1.11208e-18)
(-0.00306457 -0.00172299 -1.64411e-19)
(0.422724 0.318823 0)
(0.961831 0.696842 -1.3044e-19)
(1.1966 0.887625 9.7332e-20)
(1.24931 0.929875 0)
(1.22403 0.934057 0)
(1.16576 0.905833 1.94507e-19)
(1.09161 0.870395 0)
(1.01703 0.831046 0)
(0.936486 0.787217 -4.56427e-19)
(0.852244 0.735174 1.28291e-19)
(0.77457 0.675127 -1.17321e-18)
(0.718023 0.616013 0)
(0.677809 0.561973 -6.34235e-19)
(0.625821 0.499194 9.57119e-21)
(0.547134 0.406769 -9.28489e-19)
(0.415599 0.299512 3.6408e-19)
(0.263361 0.180213 1.17632e-21)
(0.131652 0.0858935 -1.25831e-18)
(0.0394567 0.023032 5.97142e-19)
(-0.00496803 -0.00466843 1.75898e-19)
(0.421112 0.332393 0)
(0.951301 0.722111 -1.74538e-19)
(1.18278 0.918714 1.0212e-19)
(1.23494 0.963616 1.47407e-19)
(1.20941 0.968362 -3.20363e-21)
(1.15092 0.93909 1.91235e-20)
(1.07662 0.902288 -2.87422e-20)
(1.00168 0.861826 4.28157e-19)
(0.919964 0.816945 4.88247e-19)
(0.83327 0.763747 9.76263e-19)
(0.751902 0.702727 9.74779e-19)
(0.691223 0.642116 1.71992e-19)
(0.645376 0.578904 9.11816e-19)
(0.603424 0.506038 5.6368e-19)
(0.522142 0.418373 6.66031e-19)
(0.399578 0.293682 -3.98134e-19)
(0.258199 0.174234 -4.54789e-19)
(0.138293 0.0864801 5.42895e-19)
(0.0506904 0.0354436 -3.21115e-19)
(0.0043368 0.0069601 5.70774e-19)
(0.419989 0.345446 2.42432e-19)
(0.944506 0.750202 2.73754e-19)
(1.17109 0.951799 5.8029e-20)
(1.22102 0.997142 1.52559e-20)
(1.19489 1.00082 -2.4335e-20)
(1.13627 0.970326 -5.33802e-20)
(1.06192 0.932684 2.7306e-20)
(0.986506 0.891091 -1.85051e-20)
(0.903812 0.845299 -5.70203e-19)
(0.815695 0.791345 -1.06017e-18)
(0.73187 0.728401 6.7707e-20)
(0.667275 0.663539 0)
(0.620473 0.599613 0)
(0.56503 0.521301 -2.94641e-19)
(0.492416 0.40685 -1.09433e-18)
(0.38157 0.28505 8.57798e-19)
(0.260353 0.157416 5.00552e-19)
(0.154703 0.0621119 0)
(0.0697305 0.00200816 1.02794e-18)
(-0.00235148 -0.0215503 -6.07812e-19)
(0.418583 0.358183 -1.28716e-19)
(0.935325 0.772921 1.13184e-19)
(1.15836 0.978859 -1.38109e-19)
(1.20758 1.02646 -1.18235e-19)
(1.18121 1.03074 -2.43284e-20)
(1.12242 0.999531 -1.69653e-20)
(1.04804 0.96089 0)
(0.97246 0.918509 -5.39207e-19)
(0.888816 0.872093 6.83546e-20)
(0.798361 0.817598 0)
(0.710611 0.754847 0)
(0.640904 0.689753 1.10676e-19)
(0.585433 0.616447 1.48583e-19)
(0.537807 0.524771 -3.19193e-19)
(0.46057 0.41445 7.85028e-19)
(0.357098 0.263258 -9.35492e-19)
(0.249503 0.131555 -1.07659e-18)
(0.183363 0.0551263 9.54293e-19)
(0.145391 0.0613403 -3.65215e-19)
(0.107879 0.0724331 2.1246e-19)
(0.417607 0.370081 1.58573e-19)
(0.929386 0.798256 0)
(1.14761 1.00821 0)
(1.19464 1.05592 -3.34727e-20)
(1.16775 1.0591 2.7096e-20)
(1.10893 1.02682 -1.93954e-20)
(1.03465 0.987608 1.27555e-19)
(0.958766 0.944569 5.5184e-19)
(0.874269 0.897645 1.03638e-18)
(0.782461 0.842876 -8.05355e-20)
(0.692327 0.779294 1.67177e-19)
(0.617816 0.710842 -9.93718e-19)
(0.559949 0.637936 -9.93683e-19)
(0.492936 0.542343 -1.72019e-19)
(0.415366 0.395245 0)
(0.325095 0.248526 -3.56892e-21)
(0.236025 0.0555029 5.9537e-19)
(0.235898 -0.0515464 -9.97965e-19)
(0.204558 -0.118628 7.57986e-19)
(0.088797 -0.102347 6.27074e-19)
(0.416165 0.381755 -3.49162e-19)
(0.92108 0.818357 -1.56545e-19)
(1.13576 1.03176 6.84896e-21)
(1.1821 1.08151 6.39981e-20)
(1.15503 1.08541 0)
(1.09608 1.05276 -3.78158e-20)
(1.02184 1.01294 -1.86236e-19)
(0.945847 0.969459 -2.21452e-21)
(0.860506 0.922353 -5.43058e-19)
(0.766454 0.867602 -7.92061e-20)
(0.672366 0.805384 7.35716e-20)
(0.592144 0.738981 8.73309e-19)
(0.521448 0.657882 9.68935e-19)
(0.458546 0.545606 1.68396e-19)
(0.373802 0.409967 8.56557e-19)
(0.265807 0.211346 0)
(0.140449 0.0308915 0)
(-0.017762 0.163541 6.79384e-19)
(-0.0785686 0.628875 -2.62123e-20)
(0.0105723 1.54803 -8.46473e-19)
(0.415268 0.392638 1.92267e-19)
(0.91578 0.841331 4.43464e-19)
(1.12577 1.05824 -6.16068e-19)
(1.16998 1.108 3.16388e-19)
(1.14236 1.11095 -1.26365e-20)
(1.08337 1.07755 1.28343e-20)
(1.00923 1.03757 0)
(0.932921 0.994078 -4.59556e-19)
(0.846701 0.947144 0)
(0.751325 0.892952 1.11256e-18)
(0.654652 0.831189 -9.06201e-20)
(0.56881 0.762784 1.01616e-19)
(0.495258 0.685239 1.12084e-18)
(0.403011 0.577166 -3.65864e-19)
(0.285812 0.390333 -4.34219e-19)
(0.176936 0.258231 0)
(0.0703652 0.443279 0)
(0.0235993 1.37227 0)
(0.0708963 2.47755 -3.85247e-19)
(0.0962378 2.91762 -2.38404e-19)
(0.413586 0.40308 0)
(0.908092 0.859 0)
(1.11467 1.07884 2.23939e-19)
(1.15828 1.13067 -2.57839e-19)
(1.13048 1.13466 1.22338e-19)
(1.07134 1.10135 -2.92737e-21)
(0.997201 1.06128 2.47286e-20)
(0.920749 1.01782 -1.92527e-20)
(0.833801 0.971373 7.75735e-20)
(0.736301 0.918103 -1.27698e-18)
(0.635495 0.858946 1.6398e-19)
(0.543866 0.795856 8.82796e-19)
(0.452612 0.713637 -1.11604e-18)
(0.363355 0.582351 -1.23514e-18)
(0.260957 0.445584 4.14223e-19)
(0.175999 0.600781 0)
(0.110046 1.60059 5.58538e-19)
(0.115893 2.70428 5.98368e-19)
(0.123248 3.09157 -6.68176e-19)
(0.11621 3.22392 7.08906e-19)
(0.412491 0.41326 0)
(0.903355 0.879696 3.85668e-19)
(1.1055 1.10277 -5.60704e-20)
(1.14707 1.15456 3.53692e-19)
(1.11872 1.15773 -1.28414e-19)
(1.05954 1.12392 0)
(0.985504 1.084 0)
(0.908795 1.04108 0)
(0.821104 0.995476 4.33131e-19)
(0.722569 0.943666 5.86051e-20)
(0.619498 0.88632 0)
(0.52217 0.822393 -8.77133e-19)
(0.433055 0.746545 0)
(0.305664 0.625855 8.83426e-19)
(0.196553 0.671975 -6.00697e-19)
(0.140665 1.46947 -4.79755e-19)
(0.145995 2.69055 -1.09483e-18)
(0.169918 3.12587 -5.74165e-19)
(0.160565 3.26454 -7.67556e-19)
(0.147996 3.3047 5.48784e-19)
(0.410765 0.42241 -1.33876e-19)
(0.896154 0.894937 1.45436e-20)
(1.09515 1.12057 -6.20148e-20)
(1.13632 1.17453 -2.7461e-19)
(1.10777 1.17902 0)
(1.04845 1.1457 0)
(0.974391 1.1061 0)
(0.897572 1.06359 3.27134e-20)
(0.809386 1.019 -5.47978e-19)
(0.709047 0.968928 0)
(0.602178 0.915135 0)
(0.501272 0.859069 0)
(0.387459 0.776222 0)
(0.308556 0.718964 6.51744e-19)
(0.262266 1.12928 1.59382e-18)
(0.234291 2.40758 4.65478e-19)
(0.252901 3.08085 9.27907e-19)
(0.247395 3.27687 -7.10365e-19)
(0.199597 3.34211 2.58572e-19)
(0.168276 3.3555 0)
(0.409542 0.431435 1.37387e-19)
(0.891813 0.914101 -8.5171e-19)
(1.08658 1.14294 -2.3017e-19)
(1.1258 1.19674 -5.1245e-20)
(1.09669 1.20047 2.97309e-20)
(1.03735 1.16676 -1.23044e-19)
(0.963449 1.12752 4.16962e-23)
(0.886525 1.08596 -3.55907e-19)
(0.797812 1.04274 0)
(0.696904 0.994898 -7.56707e-20)
(0.588901 0.944165 6.884e-20)
(0.483127 0.886903 0)
(0.384799 0.819065 0)
(0.320251 0.914334 -8.17029e-19)
(0.262928 1.85124 1.0401e-19)
(0.259766 2.94542 -3.50773e-19)
(0.285669 3.27943 7.33517e-19)
(0.256654 3.37759 5.2201e-19)
(0.1928 3.40231 -7.03994e-19)
(0.168577 3.41274 3.46383e-19)
(0.407378 0.440717 2.68609e-19)
(0.883993 0.928567 8.27399e-19)
(1.07574 1.15992 2.77167e-19)
(1.11484 1.21617 0)
(1.08565 1.22153 0)
(1.02626 1.18851 9.52368e-20)
(0.952432 1.14977 4.88829e-20)
(0.87557 1.10869 3.1669e-19)
(0.786733 1.06668 2.1134e-20)
(0.684567 1.02108 9.6289e-19)
(0.57377 0.974269 -1.15298e-18)
(0.460912 0.921227 0)
(0.379997 0.895471 0)
(0.332467 1.29626 -5.58568e-19)
(0.325714 2.49891 -6.69114e-19)
(0.371698 3.19231 0)
(0.397125 3.35912 -7.412e-19)
(0.326079 3.42222 5.17019e-20)
(0.258336 3.46823 3.37514e-19)
(0.236422 3.49381 -1.08948e-19)
(0.405529 0.450318 -5.10123e-19)
(0.87908 0.949785 -3.96607e-19)
(1.06613 1.18471 0)
(1.1031 1.24029 0)
(1.07339 1.24443 0)
(1.01416 1.2107 0)
(0.940766 1.17209 -5.97499e-20)
(0.864168 1.13203 2.75487e-19)
(0.775191 1.09154 0)
(0.673278 1.04848 -8.76202e-19)
(0.563231 1.00522 2.07069e-18)
(0.452777 0.960384 8.51185e-20)
(0.397318 1.0206 1.15247e-19)
(0.383652 1.73726 9.10089e-19)
(0.393757 2.90145 -4.89411e-19)
(0.434818 3.31056 0)
(0.417639 3.43143 2.08813e-19)
(0.33173 3.52093 9.09269e-20)
(0.258758 3.58561 1.48595e-19)
(0.183199 3.56504 -1.69818e-20)
(0.402468 0.460466 2.42245e-19)
(0.869248 0.965118 -4.02463e-19)
(1.0532 1.2026 0)
(1.09044 1.26094 -7.49214e-20)
(1.06082 1.26701 2.59119e-19)
(1.00174 1.23402 0)
(0.928682 1.19589 0)
(0.85244 1.15608 -4.77685e-19)
(0.763883 1.11663 -5.57516e-20)
(0.661619 1.07585 8.60958e-19)
(0.547615 1.03579 -9.83855e-19)
(0.451998 1.01049 5.81436e-19)
(0.41112 1.20708 0)
(0.419058 2.18494 -4.82965e-19)
(0.460748 3.14061 3.16345e-19)
(0.526574 3.41161 1.9889e-19)
(0.517207 3.50691 0)
(0.454874 3.59002 -3.65876e-20)
(0.386491 3.62915 -4.08503e-19)
(0.306224 3.60161 -9.65421e-20)
(0.399694 0.470795 -4.8027e-19)