/*--------------------------------*- C++ -*----------------------------------*\
  =========                 |
  \\      /  F ield         | OpenFOAM: The Open Source CFD Toolbox
   \\    /   O peration     | Website:  https://openfoam.org
    \\  /    A nd           | Version:  10
     \\/     M anipulation  |
\*---------------------------------------------------------------------------*/
FoamFile
{
    format      ascii;
    class       volScalarField;
    location    "69";
    object      p;
}
// * * * * * * * * * * * * * * * * * * * * * * * * * * * * * * * * * * * * * //

dimensions      [0 2 -2 0 0 0 0];

internalField   nonuniform List<scalar> 
8800
(
0.888377
0.840592
0.801905
0.772914
0.752057
0.737236
0.726654
0.719195
0.714405
0.712389
0.713702
0.717929
0.724602
0.733939
0.746733
0.764477
0.789261
0.823206
0.86576
0.924462
0.71962
0.727299
0.734779
0.738091
0.736592
0.731522
0.725048
0.718989
0.714292
0.711485
0.711251
0.713801
0.718324
0.724294
0.731081
0.737373
0.741021
0.740289
0.734876
0.72619
0.698014
0.704174
0.708304
0.711254
0.713311
0.713926
0.712835
0.710754
0.708771
0.707909
0.708921
0.711344
0.714175
0.716378
0.717002
0.715814
0.713481
0.710094
0.705538
0.701778
0.692187
0.694839
0.697595
0.700003
0.701646
0.70282
0.703579
0.703722
0.703463
0.703464
0.704272
0.705488
0.706362
0.706453
0.705862
0.704784
0.702978
0.700415
0.698016
0.696513
0.686785
0.68821
0.689993
0.692032
0.693825
0.69518
0.696189
0.697016
0.697672
0.698294
0.699008
0.699556
0.699696
0.699438
0.698763
0.69753
0.695847
0.694008
0.692705
0.691873
0.68168
0.682601
0.683847
0.685421
0.687064
0.688604
0.689912
0.691012
0.692025
0.692985
0.693747
0.694136
0.694141
0.693737
0.692883
0.691702
0.69039
0.689141
0.688323
0.687771
0.676738
0.677408
0.678375
0.679686
0.681107
0.682583
0.684048
0.685409
0.686663
0.687847
0.688754
0.689194
0.689166
0.6887
0.687925
0.687002
0.686009
0.685098
0.684518
0.684112
0.671911
0.672428
0.673216
0.674356
0.675647
0.677041
0.678517
0.680033
0.681524
0.68295
0.684057
0.684614
0.684656
0.684322
0.683759
0.683063
0.682313
0.681645
0.681217
0.680899
0.667127
0.667537
0.668198
0.669215
0.670437
0.671787
0.673265
0.674871
0.676566
0.678267
0.679631
0.680391
0.680636
0.680529
0.680194
0.679714
0.679173
0.6787
0.678383
0.678124
0.662297
0.662631
0.663204
0.664142
0.665317
0.666656
0.668175
0.669885
0.671776
0.673778
0.675474
0.676542
0.677075
0.67723
0.677132
0.676883
0.67654
0.676229
0.675997
0.675779
0.657332
0.657609
0.658121
0.659015
0.660174
0.661541
0.663138
0.664995
0.667125
0.669476
0.671591
0.673054
0.673932
0.674387
0.674551
0.674534
0.674391
0.674223
0.67406
0.673871
0.652141
0.652374
0.652847
0.653727
0.65491
0.656348
0.658067
0.660126
0.662561
0.665346
0.667972
0.66991
0.671192
0.671994
0.67245
0.672674
0.672735
0.6727
0.672592
0.672423
0.646631
0.646828
0.647282
0.648177
0.649427
0.650981
0.652877
0.655206
0.658028
0.661354
0.6646
0.667103
0.66886
0.670057
0.670843
0.671329
0.671608
0.671699
0.671639
0.671483
0.640697
0.640866
0.641318
0.642257
0.643614
0.645335
0.647476
0.650154
0.653467
0.657461
0.661458
0.664636
0.666953
0.668607
0.66977
0.670569
0.671068
0.671281
0.671262
0.671114
0.634218
0.634363
0.634828
0.635841
0.637352
0.6393
0.641762
0.644886
0.648814
0.653628
0.658532
0.662517
0.665499
0.667691
0.669286
0.670431
0.671179
0.671519
0.671537
0.671393
0.627053
0.627172
0.627665
0.628783
0.6305
0.632744
0.635617
0.639307
0.643999
0.649813
0.655812
0.660759
0.664526
0.667354
0.66946
0.670998
0.672031
0.672503
0.672555
0.672409
0.619009
0.619116
0.61965
0.620907
0.622888
0.625508
0.628905
0.633304
0.638939
0.645974
0.653289
0.659383
0.664076
0.667652
0.67037
0.672375
0.673721
0.674331
0.674414
0.674264
0.609866
0.609965
0.610557
0.611977
0.614288
0.617399
0.62146
0.626747
0.633549
0.64207
0.650964
0.658416
0.664203
0.668657
0.672099
0.674646
0.676349
0.677105
0.677217
0.677058
0.599301
0.59938
0.600061
0.601706
0.604455
0.60819
0.613086
0.619486
0.627733
0.638062
0.648843
0.657893
0.664965
0.670454
0.67472
0.677917
0.680018
0.680924
0.681059
0.680889
0.58693
0.586996
0.587777
0.589733
0.59304
0.597575
0.60354
0.611349
0.621393
0.63392
0.646941
0.657861
0.666419
0.673112
0.678343
0.68228
0.684813
0.685869
0.686021
0.685834
0.572188
0.572243
0.573168
0.575541
0.579589
0.585176
0.592532
0.602144
0.614433
0.629627
0.645287
0.658369
0.668624
0.676693
0.68304
0.687805
0.690793
0.691986
0.692143
0.691938
0.554298
0.554342
0.55548
0.55844
0.563502
0.570513
0.579722
0.591678
0.606787
0.625202
0.643937
0.659478
0.67165
0.681265
0.688835
0.694524
0.697962
0.699263
0.69941
0.699184
0.532082
0.532123
0.533612
0.537458
0.543981
0.552995
0.564745
0.579792
0.59845
0.620722
0.642984
0.661262
0.675542
0.686862
0.695763
0.70241
0.70625
0.707606
0.707723
0.707477
0.503767
0.50383
0.505914
0.511191
0.519992
0.531948
0.54728
0.566435
0.589524
0.616345
0.642567
0.663816
0.680346
0.693473
0.703795
0.711354
0.715485
0.716816
0.716881
0.716617
0.466282
0.466449
0.469757
0.477673
0.490315
0.506778
0.527217
0.551765
0.580274
0.612328
0.642873
0.667241
0.686101
0.701072
0.712823
0.721144
0.725376
0.726578
0.72657
0.726296
0.413731
0.414734
0.421319
0.43467
0.453992
0.477432
0.50492
0.536284
0.571173
0.609025
0.644109
0.671639
0.69282
0.70958
0.722633
0.731444
0.735517
0.736487
0.736402
0.736127
0.33708
0.34449
0.359732
0.383278
0.412549
0.445331
0.481431
0.520637
0.562591
0.606706
0.64662
0.677497
0.701147
0.719816
0.73406
0.743119
0.746869
0.747598
0.747464
0.747224
0.254739
0.272247
0.29694
0.3313
0.370921
0.413175
0.457928
0.505135
0.554502
0.605491
0.651046
0.685956
0.71251
0.733345
0.748858
0.757673
0.760691
0.761131
0.761025
0.760862
0.186078
0.206704
0.239195
0.282742
0.331486
0.382652
0.435797
0.490845
0.547471
0.605114
0.656001
0.694629
0.723761
0.746316
0.762242
0.770442
0.772945
0.773326
0.773279
0.773156
0.129843
0.152139
0.190195
0.240232
0.296184
0.354855
0.415425
0.477668
0.541114
0.605089
0.661024
0.703116
0.734557
0.758444
0.774787
0.78275
0.785028
0.785377
0.785366
0.785274
0.0830616
0.10654
0.14841
0.203596
0.265341
0.33021
0.397154
0.465799
0.535499
0.605414
0.666156
0.711544
0.745203
0.770514
0.787409
0.795243
0.797506
0.797858
0.797876
0.797808
0.0434582
0.0675868
0.112345
0.171598
0.238215
0.308364
0.380855
0.455202
0.530617
0.606096
0.671437
0.720042
0.755909
0.782628
0.800161
0.808335
0.810621
0.810947
0.810972
0.810925
0.00898511
0.0335261
0.0805516
0.143169
0.213907
0.288653
0.36607
0.445578
0.526279
0.60701
0.676771
0.728515
0.766562
0.794721
0.813135
0.821674
0.824071
0.824409
0.82444
0.824409
-0.0218737
0.00302086
0.0518924
0.117376
0.191678
0.270462
0.35231
0.436547
0.522178
0.607904
0.681945
0.736772
0.777003
0.806599
0.825857
0.834861
0.837453
0.837801
0.83783
0.837811
-0.0501081
-0.0249031
0.0255423
0.0935104
0.170942
0.253317
0.339161
0.427743
0.518006
0.60853
0.686754
0.744613
0.786954
0.817997
0.838057
0.847494
0.850302
0.850713
0.850724
0.850711
-0.0765394
-0.0509822
0.00087544
0.0710181
0.15125
0.236834
0.326298
0.418895
0.513532
0.608689
0.691029
0.751877
0.796288
0.828691
0.849507
0.859361
0.862334
0.862777
0.862768
0.862742
-0.101559
-0.0756521
-0.0224735
0.0495266
0.132268
0.220738
0.313496
0.409806
0.50857
0.608217
0.694644
0.758478
0.804913
0.838595
0.860064
0.870192
0.873291
0.873739
0.8737
0.87366
-0.125623
-0.0992973
-0.0451017
0.028795
0.113767
0.204833
0.300589
0.400323
0.502976
0.606989
0.697518
0.764388
0.812831
0.847681
0.869638
0.879955
0.883087
0.883521
0.883445
0.883391
-0.148873
-0.12206
-0.0669254
0.00863715
0.095598
0.188996
0.287467
0.390355
0.496666
0.604917
0.699588
0.769594
0.820086
0.856011
0.878314
0.888646
0.891737
0.892151
0.892041
0.891971
-0.171463
-0.144237
-0.0880634
-0.0110636
0.0776836
0.173164
0.27408
0.379849
0.489576
0.601922
0.700787
0.774112
0.826776
0.863759
0.886236
0.8964
0.899376
0.899732
0.899598
0.899512
-0.193526
-0.165808
-0.108652
-0.0303567
0.0599774
0.157316
0.260419
0.368796
0.481678
0.597947
0.701057
0.77794
0.833022
0.871093
0.893577
0.903383
0.906113
0.906375
0.906221
0.906122
-0.215131
-0.186812
-0.12877
-0.0492559
0.042491
0.141458
0.246507
0.357213
0.472975
0.592947
0.700327
0.781059
0.838917
0.878243
0.900577
0.909745
0.912052
0.912179
0.912001
0.911897
-0.23613
-0.207244
-0.148348
-0.0677535
0.025238
0.12564
0.232384
0.345157
0.463504
0.58692
0.698516
0.783409
0.844508
0.885443
0.907587
0.915756
0.917331
0.917228
0.917039
0.916943
-0.256512
-0.227081
-0.167383
-0.0858127
0.00826123
0.109905
0.218127
0.332688
0.453325
0.579873
0.69556
0.784873
0.849766
0.892891
0.915097
0.921975
0.922277
0.921648
0.921453
0.921418
-0.276348
-0.2463
-0.185869
-0.103414
-0.00838596
0.0943271
0.203811
0.319897
0.442513
0.571852
0.691389
0.785294
0.854547
0.900624
0.923616
0.929367
0.927751
0.92585
0.925466
0.92577
-0.295483
-0.264888
-0.203754
-0.12051
-0.024653
0.0789808
0.189522
0.306886
0.431173
0.562933
0.685968
0.784474
0.858588
0.908388
0.933331
0.93913
0.935835
0.931567
0.929668
0.929709
-0.31401
-0.28284
-0.221061
-0.137136
-0.0405755
0.0638225
0.175207
0.2936
0.419241
0.553047
0.679164
0.782135
0.861602
0.91575
0.943819
0.951816
0.948907
0.941666
0.934246
0.92083
-0.331863
-0.300145
-0.237905
-0.153491
-0.0564311
0.0485326
0.160465
0.279579
0.40621
0.541598
0.670377
0.777566
0.863137
0.922181
0.953683
0.965636
0.963651
0.949934
0.929074
0.918894
-0.348876
-0.316961
-0.254102
-0.169385
-0.0718665
0.0334477
0.145512
0.265134
0.392366
0.52881
0.659613
0.770203
0.862219
0.926441
0.958891
0.970921
0.970508
0.945148
0.87801
0.848118
-0.364395
-0.334561
-0.269352
-0.184344
-0.0860795
0.0190688
0.130669
0.250494
0.377923
0.514795
0.646765
0.759656
0.857232
0.92769
0.954023
0.961003
0.945673
0.889061
0.819649
0.777167
-0.418975
-0.350067
-0.283126
-0.1995
-0.100741
0.00389912
0.11586
0.235364
0.362491
0.499062
0.631169
0.745143
0.84406
0.921528
0.922188
0.92064
0.865454
0.791956
0.714179
0.670916
-0.380675
-0.364759
-0.303672
-0.218939
-0.12244
-0.0178322
0.0931035
0.211996
0.338214
0.47354
0.604032
0.716874
0.808935
0.892281
0.874
0.754336
0.645243
0.569393
0.494537
0.523247
-0.41086
-0.38187
-0.319913
-0.23603
-0.139578
-0.0350895
0.0761315
0.194403
0.319582
0.453172
0.580984
0.689673
0.771913
0.816086
0.763671
0.608916
0.477381
0.3835
0.283485
0.331822
-0.434095
-0.402192
-0.339127
-0.255124
-0.158557
-0.0541792
0.0569603
0.174401
0.298192
0.429403
0.553517
0.655915
0.729017
0.738152
0.626894
0.450019
0.29424
0.173109
0.0406333
0.0725333
-0.456773
-0.423396
-0.359218
-0.274321
-0.177687
-0.0734742
0.0371281
0.153598
0.275791
0.404211
0.523606
0.617906
0.675231
0.652511
0.489336
0.28972
0.0971056
-0.0724841
-0.261884
-0.281589
-0.47885
-0.445063
-0.380041
-0.294398
-0.19765
-0.09368
0.0162507
0.131615
0.251933
0.377129
0.491026
0.577031
0.614383
0.554387
0.358241
0.14489
-0.0741833
-0.264634
-0.507126
-0.80308
-0.501217
-0.467447
-0.401927
-0.315835
-0.218933
-0.11516
-0.00583716
0.108374
0.226689
0.348357
0.456376
0.533764
0.549148
0.437414
0.244007
0.0314479
-0.17466
-0.348168
-0.418638
-0.497049
-0.524816
-0.491009
-0.425222
-0.338945
-0.242026
-0.13855
-0.0299351
0.0829388
0.198914
0.316493
0.418173
0.484198
0.47404
0.328485
0.14231
-0.0512114
-0.216072
-0.310265
-0.334647
-0.350454
-0.54995
-0.516041
-0.450096
-0.363801
-0.267057
-0.164058
-0.0563997
0.054823
0.168022
0.280835
0.37567
0.427016
0.398865
0.227215
0.0500591
-0.118319
-0.246756
-0.286449
-0.299272
-0.300576
-0.576819
-0.542715
-0.476612
-0.390398
-0.293977
-0.191689
-0.085251
0.0239756
0.133947
0.241397
0.328432
0.365057
0.316436
0.133705
-0.0343377
-0.185193
-0.262755
-0.279781
-0.281118
-0.280922
-0.605481
-0.571096
-0.504799
-0.418737
-0.322804
-0.221435
-0.116494
-0.00961815
0.0967031
0.198258
0.276568
0.301131
0.215927
0.0483712
-0.111219
-0.23562
-0.272888
-0.271208
-0.27027
-0.269668
-0.635653
-0.60101
-0.534556
-0.448736
-0.353454
-0.253242
-0.150098
-0.0459311
0.0563294
0.151533
0.220989
0.228383
0.124752
-0.0307099
-0.171901
-0.249482
-0.259889
-0.262491
-0.263151
-0.262873
-0.666788
-0.632002
-0.56563
-0.480169
-0.385744
-0.286958
-0.185915
-0.0848308
0.013014
0.10158
0.162185
0.15428
0.043107
-0.0976192
-0.216367
-0.248062
-0.256904
-0.258424
-0.258195
-0.257897
-0.698427
-0.663537
-0.597567
-0.512649
-0.419335
-0.322267
-0.223667
-0.12603
-0.0329512
0.0491089
0.0992621
0.08414
-0.0317269
-0.15166
-0.24652
-0.264104
-0.255406
-0.254502
-0.254464
-0.254227
-0.729672
-0.694908
-0.629523
-0.545579
-0.453691
-0.358702
-0.262911
-0.169052
-0.0810876
-0.00522711
0.035042
0.0198239
-0.0970931
-0.191987
-0.248288
-0.257788
-0.254497
-0.25319
-0.252599
-0.252355
-0.758996
-0.724944
-0.660526
-0.578047
-0.488059
-0.395573
-0.303002
-0.213217
-0.130595
-0.0608189
-0.0239953
-0.0508276
-0.150002
-0.228065
-0.231311
-0.249986
-0.254235
-0.252648
-0.252066
-0.251662
-0.78479
-0.751802
-0.68946
-0.608898
-0.521415
-0.431961
-0.343088
-0.257684
-0.180353
-0.116768
-0.0799379
-0.118584
-0.196614
-0.247278
-0.265651
-0.261054
-0.259235
-0.25848
-0.258031
-0.257544
-0.804943
-0.773687
-0.714219
-0.636732
-0.55249
-0.466751
-0.382099
-0.301448
-0.229242
-0.171738
-0.13724
-0.173141
-0.23521
-0.294181
-0.312152
-0.28922
-0.275822
-0.272681
-0.270872
-0.269969
-0.817248
-0.788693
-0.733016
-0.659655
-0.579809
-0.498643
-0.418866
-0.343324
-0.276224
-0.224122
-0.191873
-0.217283
-0.256211
-0.320552
-0.303188
-0.286873
-0.280863
-0.277868
-0.276184
-0.275918
-0.819104
-0.794585
-0.743863
-0.675901
-0.601698
-0.526241
-0.45209
-0.382092
-0.320177
-0.272562
-0.236646
-0.248328
-0.242606
-0.272222
-0.26509
-0.262215
-0.262125
-0.262571
-0.26342
-0.263501
-0.808277
-0.788556
-0.744601
-0.683898
-0.61671
-0.548094
-0.480469
-0.416495
-0.359942
-0.316166
-0.273428
-0.260358
-0.208596
-0.168314
-0.193685
-0.231392
-0.251159
-0.259097
-0.261985
-0.262517
-0.782886
-0.768101
-0.73345
-0.682403
-0.623855
-0.563223
-0.502858
-0.445282
-0.394366
-0.354778
-0.307369
-0.285311
-0.224075
-0.136453
-0.184921
-0.249103
-0.278674
-0.289781
-0.293342
-0.294826
-0.745493
-0.735982
-0.711257
-0.671564
-0.623104
-0.571336
-0.518587
-0.467443
-0.42203
-0.387613
-0.359474
-0.352221
-0.388355
-0.460061
-0.490611
-0.42957
-0.384848
-0.364531
-0.358408
-0.357197
-0.702782
-0.697387
-0.68283
-0.654173
-0.61634
-0.573181
-0.527662
-0.482332
-0.441025
-0.411037
-0.389583
-0.422621
-0.516061
-0.673679
-0.658502
-0.50884
-0.408063
-0.361784
-0.348361
-0.345047
-0.664428
-0.661167
-0.654259
-0.635557
-0.606434
-0.570507
-0.531057
-0.489744
-0.450207
-0.41792
-0.397581
-0.373386
-0.302291
-0.198687
-0.0621229
-0.0373139
-0.119231
-0.198143
-0.220666
-0.222946
-0.636788
-0.634774
-0.631235
-0.619877
-0.597163
-0.566295
-0.530439
-0.490887
-0.449426
-0.410117
-0.387757
-0.327895
-0.245648
-0.171556
-0.22715
-0.392391
-0.536014
-0.540307
-0.459882
-0.442999
-0.6157
-0.61493
-0.613751
-0.608163
-0.591126
-0.563303
-0.528242
-0.487842
-0.443124
-0.397648
-0.363434
-0.338453
-0.315846
-0.374798
-0.470234
-0.572583
-0.69817
-0.732048
-0.681462
-0.646987
-0.6035
-0.60323
-0.602666
-0.600185
-0.588158
-0.561693
-0.525575
-0.482408
-0.433778
-0.377704
-0.332589
-0.29642
-0.285128
-0.334539
-0.469294
-0.611366
-0.626628
-0.53676
-0.423569
-0.365233
-0.594992
-0.594927
-0.594648
-0.594037
-0.586516
-0.561663
-0.52354
-0.476863
-0.421063
-0.353804
-0.285333
-0.203168
-0.107396
-0.0261511
0.0511849
0.128898
0.267215
0.451767
0.584932
0.641931
-0.588439
-0.58846
-0.588397
-0.588674
-0.583773
-0.562688
-0.523494
-0.472175
-0.408816
-0.33285
-0.235822
-0.13179
0.0683632
0.350982
0.670948
0.9878
1.27653
1.47991
1.5874
1.62195
-0.58348
-0.583283
-0.58257
-0.581023
-0.579322
-0.564951
-0.526009
-0.469809
-0.401053
-0.313482
-0.206475
-0.0992853
0.120508
0.461461
0.879018
1.27192
1.58647
1.77946
1.8632
1.88388
-0.582359
-0.58262
-0.583122
-0.583152
-0.583049
-0.573058
-0.531603
-0.472519
-0.399733
-0.307436
-0.199746
-0.0863054
0.0757231
0.4201
0.793662
1.13022
1.39059
1.5397
1.60067
1.61459
-0.582918
-0.584264
-0.588152
-0.596045
-0.603415
-0.585853
-0.539347
-0.481278
-0.406805
-0.312168
-0.208312
-0.102768
0.0191011
0.291205
0.591551
0.847339
1.03711
1.14032
1.18046
1.18866
-0.595942
-0.596797
-0.593993
-0.582294
-0.569431
-0.55975
-0.541124
-0.496548
-0.421397
-0.325862
-0.22621
-0.130226
-0.0388491
0.156756
0.376512
0.555866
0.686007
0.753251
0.778222
0.781906
-0.639386
-0.637844
-0.620184
-0.569977
-0.519209
-0.524391
-0.554472
-0.522208
-0.442069
-0.342068
-0.247168
-0.164302
-0.0930002
0.0452258
0.190967
0.305721
0.385778
0.425366
0.438863
0.440996
-0.71152
-0.710309
-0.718295
-0.726677
-0.720911
-0.701105
-0.671705
-0.575871
-0.467843
-0.358703
-0.267923
-0.194141
-0.133992
-0.0417391
0.0491948
0.114714
0.151761
0.168365
0.175284
0.176498
-0.856466
-0.878547
-0.933549
-0.990327
-1.00212
-0.958083
-0.826285
-0.646561
-0.492669
-0.3707
-0.28257
-0.221275
-0.173536
-0.106783
-0.0523803
-0.0194591
-0.005642
-0.00207446
0.00250295
0.00474522
-0.96078
-0.987133
-1.03533
-1.07591
-1.08404
-1.03327
-0.876237
-0.665948
-0.493311
-0.367547
-0.287112
-0.239224
-0.206933
-0.152997
-0.109122
-0.084417
-0.0726578
-0.0670181
-0.0619675
-0.0609783
-0.882435
-0.903958
-0.940254
-0.974273
-0.981766
-0.930127
-0.772661
-0.596141
-0.448273
-0.339837
-0.275043
-0.244885
-0.223669
-0.177717
-0.13618
-0.107123
-0.0883921
-0.0796776
-0.0749798
-0.0742116
-0.612995
-0.632191
-0.667428
-0.70591
-0.722061
-0.681571
-0.574735
-0.459984
-0.361816
-0.288324
-0.244681
-0.228769
-0.216626
-0.172672
-0.131056
-0.0992157
-0.0775754
-0.0643409
-0.0604161
-0.0610168
-0.255768
-0.26807
-0.293232
-0.326547
-0.354051
-0.35845
-0.336222
-0.298644
-0.259102
-0.222112
-0.197442
-0.188055
-0.178108
-0.14294
-0.110136
-0.0847454
-0.0659586
-0.0556762
-0.0528682
-0.0537299
0.031168
0.0251627
0.00821533
-0.0223071
-0.0632895
-0.103342
-0.13437
-0.153448
-0.158218
-0.151147
-0.140775
-0.13053
-0.11735
-0.09743
-0.0792635
-0.0649086
-0.0537533
-0.0475798
-0.0462466
-0.0473196
0.1799
0.176238
0.163989
0.137458
0.0944457
0.0407354
-0.0103307
-0.050542
-0.0761335
-0.0867561
-0.083561
-0.0719387
-0.0583492
-0.0525469
-0.0490983
-0.0449149
-0.0402612
-0.0376136
-0.0373908
-0.0386894
0.222569
0.220213
0.211207
0.190198
0.154298
0.107648
0.0581418
0.0138723
-0.018643
-0.0355257
-0.0352905
-0.0236192
-0.013273
-0.0184742
-0.0254803
-0.0295276
-0.0314414
-0.0327835
-0.0340509
-0.0352577
0.21257
0.21105
0.204841
0.189911
0.163795
0.128523
0.0884716
0.0504645
0.0197022
0.00168369
0.000106595
0.00867966
0.0135728
0.00259995
-0.0100035
-0.0204098
-0.0280113
-0.0337983
-0.0364148
-0.0371719
0.182979
0.182111
0.178127
0.168226
0.150461
0.125618
0.095793
0.066012
0.0407787
0.0256118
0.0244808
0.0304519
0.0305025
0.0172699
0.00147208
-0.0124033
-0.0238178
-0.0319773
-0.0348986
-0.0351935
0.148555
0.148161
0.145771
0.139513
0.127907
0.1111
0.0900722
0.0683006
0.0491582
0.0379004
0.0390484
0.0467066
0.0459679
0.0302356
0.0130867
-0.00138526
-0.0128605
-0.0201594
-0.0224554
-0.0226406
0.114884
0.114686
0.113357
0.109574
0.102284
0.0913456
0.0771844
0.0620718
0.0484191
0.040625
0.0438353
0.0539815
0.0562665
0.0386771
0.0218509
0.0102659
0.00223622
-0.00206797
-0.00343157
-0.00377476
0.0837531
0.083702
0.0830054
0.080863
0.0764674
0.0696167
0.060463
0.0503641
0.0409162
0.0350968
0.0364749
0.0439442
0.0465545
0.0332424
0.0224393
0.0167061
0.0137837
0.0127867
0.0121658
0.0116114
0.0551874
0.0552285
0.0549613
0.053916
0.0515823
0.0476651
0.0422238
0.0358822
0.0294285
0.0240591
0.0197337
0.0146826
0.0117232
0.0090629
0.0107339
0.0140085
0.0162712
0.0174326
0.0172087
0.0165124
0.029119
0.0291934
0.029159
0.0288662
0.0279083
0.0261686
0.0235095
0.0201855
0.0163216
0.0117264
0.00205611
-0.0174195
-0.0293781
-0.0191454
-0.00448557
0.00468549
0.00891803
0.0101738
0.0101404
0.00959191
0.00497602
0.00504419
0.00504692
0.00529535
0.00574868
0.00589401
0.00560296
0.0050455
0.00424477
0.0028544
-0.000414725
-0.00979644
-0.0187362
-0.0130266
-0.00595409
-0.00553142
-0.00558719
-0.00471078
-0.00297116
-0.00198775
-0.036657
0.128977
0.321982
0.490332
0.624284
0.729066
0.815305
0.888797
0.922513
0.899303
0.262146
0.381768
0.510312
0.62114
0.714242
0.791017
0.853132
0.897289
0.919396
0.931609
0.478319
0.560241
0.64805
0.725407
0.791821
0.847352
0.891538
0.923871
0.947333
0.965407
0.637365
0.696077
0.756794
0.813281
0.862303
0.903959
0.938216
0.965595
0.988232
1.00659
0.761565
0.804198
0.849729
0.893084
0.931413
0.964913
0.993622
1.01755
1.03784
1.05571
0.865111
0.897707
0.935531
0.970796
1.00319
1.03226
1.05768
1.07908
1.09687
1.11423
0.95718
0.985713
1.01949
1.05146
1.08127
1.10833
1.132
1.15166
1.16712
1.1842
1.04548
1.07459
1.10848
1.14042
1.16994
1.19646
1.21927
1.23772
1.25107
1.2681
1.14062
1.17377
1.21034
1.24387
1.27386
1.3
1.32192
1.33918
1.35102
1.36842
1.25552
1.29331
1.33191
1.36612
1.39543
1.42016
1.4405
1.45638
1.46783
1.4859
1.4004
1.43892
1.47503
1.5057
1.53136
1.55344
1.57248
1.588
1.60042
1.61841
1.57543
1.60705
1.63321
1.65564
1.67561
1.69432
1.71203
1.7285
1.74384
1.76191
1.76402
1.78122
1.79625
1.81247
1.82837
1.8429
1.8561
1.87002
1.88756
1.90771
1.94573
1.95527
1.9668
1.97761
1.98689
1.99647
2.00725
2.01861
2.02997
2.04533
2.15296
2.15662
2.14167
2.12686
2.12058
2.12625
2.14473
2.17504
2.20722
2.23387
2.45928
2.32441
2.24777
2.20538
2.18796
2.19192
2.21932
2.27573
2.37835
2.60272
0.778974
0.776847
0.772364
0.763742
0.751523
0.739401
0.729183
0.721303
0.715707
0.712483
0.712165
0.714937
0.720068
0.72731
0.736711
0.74826
0.760917
0.771956
0.77807
0.781125
0.703418
0.709265
0.7156
0.720097
0.722572
0.722255
0.719528
0.715735
0.712248
0.710019
0.70991
0.712144
0.715835
0.720144
0.723965
0.725858
0.724929
0.721453
0.716292
0.709672
0.694977
0.697273
0.700679
0.703679
0.70576
0.707265
0.708033
0.707734
0.706733
0.705885
0.706101
0.707568
0.709413
0.710741
0.710937
0.710058
0.708517
0.706187
0.702928
0.700009
0.689443
0.690529
0.692364
0.694747
0.696778
0.698215
0.69925
0.700021
0.700451
0.700712
0.70125
0.702101
0.702733
0.702825
0.70243
0.701595
0.700136
0.698059
0.695978
0.694597
0.684209
0.684871
0.685982
0.687692
0.689482
0.691125
0.692436
0.693475
0.69439
0.695225
0.696008
0.696611
0.696843
0.696706
0.696161
0.695122
0.693706
0.692172
0.69086
0.690082
0.679194
0.679654
0.680442
0.681746
0.683243
0.684773
0.686256
0.68758
0.688754
0.689861
0.690839
0.691466
0.691658
0.691419
0.690748
0.689779
0.688669
0.687548
0.68664
0.686124
0.674316
0.67466
0.675274
0.676349
0.677653
0.679042
0.680502
0.681978
0.683394
0.684734
0.685918
0.68668
0.686913
0.68668
0.686113
0.685362
0.684531
0.683679
0.683015
0.682638
0.669521
0.669788
0.670284
0.6712
0.672382
0.673696
0.675114
0.676637
0.678227
0.679817
0.681251
0.682205
0.682574
0.682506
0.682154
0.681626
0.681002
0.680381
0.6799
0.679613
0.664725
0.664937
0.66535
0.666157
0.66726
0.668528
0.669941
0.671516
0.673245
0.675081
0.676815
0.678044
0.678664
0.678847
0.678733
0.678432
0.67802
0.677595
0.677255
0.67703
0.659839
0.66001
0.660364
0.661098
0.662157
0.663407
0.664851
0.666516
0.66841
0.670512
0.672605
0.674206
0.675162
0.675644
0.675791
0.675728
0.675535
0.675287
0.675064
0.674886
0.654773
0.654911
0.655223
0.655914
0.656958
0.658235
0.659751
0.661548
0.663661
0.666087
0.668618
0.670682
0.672042
0.67287
0.673317
0.673509
0.673532
0.673458
0.673336
0.673192
0.649435
0.649545
0.64983
0.650503
0.651567
0.652917
0.654548
0.656532
0.658933
0.661769
0.664838
0.667458
0.669296
0.670527
0.671312
0.671783
0.672037
0.672137
0.672102
0.671985
0.643727
0.643814
0.644083
0.644761
0.645882
0.647346
0.649148
0.651389
0.654156
0.657509
0.661237
0.664525
0.66693
0.668627
0.669795
0.670594
0.671104
0.67137
0.671414
0.671318
0.637537
0.637603
0.637865
0.638572
0.639787
0.641414
0.643451
0.646026
0.649261
0.653255
0.657787
0.661879
0.664957
0.667205
0.668815
0.669981
0.670776
0.671223
0.671341
0.671262
0.630733
0.630779
0.631043
0.6318
0.63315
0.634996
0.63734
0.640343
0.644168
0.648954
0.654463
0.65952
0.663397
0.666296
0.668429
0.670008
0.67113
0.671773
0.671965
0.6719
0.623161
0.623185
0.623452
0.624283
0.625811
0.627941
0.630679
0.634226
0.638787
0.644547
0.651239
0.657451
0.662277
0.665941
0.668694
0.670768
0.672263
0.673117
0.673383
0.673326
0.614596
0.614609
0.614888
0.61582
0.617583
0.620058
0.623304
0.627538
0.633014
0.639969
0.648093
0.655684
0.661633
0.666199
0.669681
0.672351
0.67427
0.675355
0.675694
0.675644
0.604757
0.604741
0.605072
0.606147
0.608199
0.611134
0.615022
0.620117
0.626734
0.635155
0.645008
0.654237
0.66151
0.667139
0.671478
0.674839
0.67725
0.678589
0.679001
0.678953
0.59333
0.593289
0.593669
0.594937
0.597359
0.600887
0.605588
0.611773
0.619816
0.63004
0.641974
0.653138
0.661956
0.668829
0.674172
0.678328
0.681305
0.682913
0.683392
0.683343
0.579822
0.579754
0.580213
0.581736
0.584645
0.588942
0.594699
0.602282
0.612122
0.624565
0.638989
0.652423
0.663028
0.671326
0.677843
0.682914
0.686514
0.688397
0.688934
0.688876
0.563568
0.563472
0.564058
0.565936
0.569498
0.574824
0.581981
0.591386
0.603513
0.618691
0.63608
0.652141
0.664783
0.674701
0.682539
0.688644
0.692918
0.695065
0.695641
0.695568
0.543616
0.543492
0.544284
0.54668
0.551162
0.557919
0.566986
0.578819
0.593884
0.612427
0.63331
0.652365
0.667288
0.679008
0.688289
0.695544
0.700505
0.702877
0.703461
0.703365
0.51852
0.518381
0.519511
0.522712
0.528588
0.537441
0.549218
0.564354
0.583212
0.605864
0.630804
0.653197
0.670603
0.684276
0.695127
0.703584
0.709179
0.711694
0.712245
0.712119
0.485933
0.485818
0.487567
0.492166
0.500361
0.512486
0.52824
0.547909
0.571617
0.599203
0.628748
0.654767
0.6748
0.690519
0.702995
0.712647
0.718733
0.721262
0.721729
0.721568
0.441641
0.441695
0.444809
0.452323
0.464823
0.482286
0.503935
0.529715
0.559463
0.592796
0.627405
0.657226
0.679944
0.697727
0.711814
0.722526
0.72883
0.731193
0.731529
0.731336
0.377748
0.378986
0.386604
0.400629
0.421011
0.44697
0.476923
0.510489
0.547379
0.58711
0.627052
0.66071
0.686058
0.705819
0.721338
0.732773
0.738978
0.740934
0.741097
0.740886
0.302055
0.303875
0.318462
0.342559
0.373973
0.409955
0.448952
0.490788
0.535293
0.58201
0.628043
0.666325
0.694941
0.717098
0.7342
0.74625
0.75209
0.753699
0.753812
0.753683
0.224013
0.230317
0.251856
0.286302
0.328193
0.373913
0.421906
0.472051
0.524235
0.578021
0.63026
0.673245
0.705097
0.729612
0.74846
0.760522
0.765505
0.766599
0.766658
0.766602
0.160145
0.168806
0.19494
0.23647
0.286573
0.34058
0.396679
0.454597
0.514102
0.57468
0.632839
0.680211
0.715034
0.741517
0.761185
0.773112
0.777716
0.778712
0.778816
0.77882
0.108209
0.117471
0.147185
0.193991
0.250287
0.310973
0.373926
0.438705
0.504894
0.571833
0.635606
0.68713
0.724706
0.752996
0.773615
0.785664
0.790023
0.790935
0.791092
0.791145
0.064791
0.0743339
0.106511
0.157337
0.218717
0.284947
0.353714
0.4245
0.496711
0.569533
0.638613
0.69413
0.734385
0.764508
0.786151
0.798358
0.802669
0.803762
0.803949
0.804042
0.0275144
0.0371596
0.0711742
0.125216
0.190807
0.261771
0.335614
0.411728
0.489406
0.567695
0.641822
0.7012
0.744099
0.77602
0.798709
0.811474
0.816067
0.817201
0.817383
0.81749
-0.00531197
0.00435428
0.0397727
0.0965269
0.16565
0.2407
0.319041
0.399965
0.482682
0.566101
0.64505
0.708181
0.753678
0.787422
0.811316
0.824712
0.829577
0.830812
0.830991
0.831075
-0.0349913
-0.0253041
0.0112602
0.0703552
0.142506
0.221142
0.303497
0.388801
0.476182
0.564453
0.648057
0.714865
0.762923
0.798472
0.823457
0.837544
0.842771
0.844067
0.844227
0.844292
-0.0624305
-0.0527154
-0.0151686
0.0459873
0.120817
0.202634
0.288585
0.377882
0.46961
0.562509
0.650646
0.721066
0.771635
0.808907
0.835002
0.849675
0.855291
0.856645
0.856773
0.856809
-0.0882134
-0.0784476
-0.0399972
0.0229007
0.100149
0.184811
0.274008
0.366964
0.462752
0.560071
0.652646
0.726655
0.779694
0.818631
0.845727
0.860924
0.866814
0.868205
0.868296
0.868295
-0.112836
-0.102955
-0.0636162
0.000767672
0.0802115
0.167419
0.259557
0.355863
0.455441
0.556983
0.653929
0.731555
0.787065
0.827605
0.855612
0.871164
0.877196
0.878608
0.878678
0.878647
-0.136595
-0.126512
-0.0864533
-0.0205839
0.0608051
0.150284
0.245081
0.344453
0.447553
0.553138
0.654413
0.735718
0.793751
0.83584
0.864589
0.880371
0.886436
0.887804
0.887862
0.887802
-0.159605
-0.149335
-0.108599
-0.041308
0.0417956
0.133317
0.230497
0.332657
0.439024
0.54845
0.654011
0.739116
0.799788
0.84345
0.872816
0.888653
0.894607
0.895919
0.89593
0.895854
-0.182066
-0.171532
-0.130057
-0.0615171
0.0231175
0.116458
0.21577
0.32045
0.429815
0.542868
0.652652
0.741716
0.805244
0.850584
0.880459
0.896154
0.901872
0.903055
0.90302
0.902923
-0.203937
-0.193148
-0.15099
-0.0812699
0.00474938
0.0997006
0.20091
0.307839
0.419926
0.536358
0.650275
0.743468
0.810173
0.857398
0.887738
0.903065
0.908353
0.909331
0.909238
0.909122
-0.225287
-0.214222
-0.171341
-0.100566
-0.0133066
0.08306
0.185939
0.294866
0.409389
0.528923
0.646822
0.744303
0.81458
0.864058
0.894933
0.909626
0.914165
0.914809
0.914649
0.914529
-0.245982
-0.234704
-0.191105
-0.119371
-0.0310189
0.0665928
0.170909
0.281585
0.39826
0.520597
0.642253
0.744132
0.818416
0.870672
0.90239
0.916275
0.919631
0.919632
0.919352
0.919258
-0.266156
-0.254559
-0.210284
-0.137677
-0.0483665
0.050328
0.155902
0.268066
0.386612
0.511445
0.636557
0.742838
0.821548
0.877239
0.910438
0.923702
0.925435
0.924132
0.923473
0.923445
-0.285658
-0.273768
-0.22886
-0.155452
-0.0652782
0.0343431
0.140991
0.25442
0.374544
0.501517
0.629756
0.740298
0.823774
0.883583
0.919176
0.932701
0.932938
0.929533
0.927423
0.926843
-0.304555
-0.292384
-0.246783
-0.172654
-0.0817258
0.0187012
0.126253
0.24072
0.36216
0.490938
0.6219
0.736382
0.824835
0.889334
0.92821
0.943552
0.943865
0.938608
0.932382
0.924631
-0.322769
-0.310365
-0.264151
-0.189436
-0.0979145
0.00313886
0.111367
0.226587
0.349039
0.479242
0.612501
0.730596
0.824315
0.894278
0.93708
0.955871
0.958885
0.952972
0.941776
0.937365
-0.340255
-0.327635
-0.28095
-0.205775
-0.113857
-0.0123409
0.0963411
0.211997
0.335125
0.466297
0.601338
0.722513
0.821373
0.897616
0.943881
0.965775
0.970841
0.967384
0.929114
0.877565
-0.356738
-0.343414
-0.297031
-0.221602
-0.129658
-0.0279041
0.0811141
0.197058
0.320464
0.452143
0.588304
0.711822
0.814802
0.89864
0.94626