/*--------------------------------*- C++ -*----------------------------------*\
  =========                 |
  \\      /  F ield         | OpenFOAM: The Open Source CFD Toolbox
   \\    /   O peration     | Website:  https://openfoam.org
    \\  /    A nd           | Version:  10
     \\/     M anipulation  |
\*---------------------------------------------------------------------------*/
FoamFile
{
    format      ascii;
    class       volVectorField;
    location    "69";
    object      U;
}
// * * * * * * * * * * * * * * * * * * * * * * * * * * * * * * * * * * * * * //

dimensions      [0 1 -1 0 0 0 0];

internalField   nonuniform List<vector> 
8800
(
(0.980136 -0.0915202 0)
(1.00234 -0.0587302 0)
(0.999584 -0.0321285 0)
(0.999986 -0.016521 0)
(1.00009 -0.00884007 0)
(1.00011 -0.0050948 0)
(1.00007 -0.00299045 0)
(1.00002 -0.00167914 0)
(0.999999 -0.000777023 0)
(1.00007 -7.74468e-05 0)
(0.999977 0.000632193 0)
(0.999987 0.00139039 0)
(1.00003 0.00241291 0)
(1.00005 0.00400997 0)
(1.00004 0.00675281 0)
(1 0.0120529 0)
(0.999807 0.0230951 0)
(0.999034 0.0431552 0)
(1.00724 0.0790247 0)
(0.775026 0.0478395 0)
(0.358999 -0.0147479 0)
(1.04651 -0.0724768 0)
(1.08848 -0.0660127 0)
(1.04945 -0.0509039 0)
(1.02556 -0.0376802 0)
(1.01277 -0.0258717 0)
(1.0066 -0.0166719 0)
(1.00365 -0.0101778 0)
(1.00219 -0.00554245 0)
(1.00151 -0.00194403 0)
(1.00137 0.00127051 0)
(1.00171 0.00458267 0)
(1.0027 0.00847076 0)
(1.00476 0.0137725 0)
(1.00898 0.0214416 0)
(1.01794 0.0319274 0)
(1.03579 0.0446947 0)
(1.06742 0.0581325 0)
(1.09468 0.0699496 0)
(0.845607 0.0555091 0)
(0.217821 -0.00137954 0)
(1.0757 -0.0506304 0)
(1.09943 -0.0489084 0)
(1.06441 -0.0399864 0)
(1.03994 -0.0325207 0)
(1.02386 -0.0252987 0)
(1.01406 -0.0180691 0)
(1.00853 -0.0114375 0)
(1.00566 -0.00567137 0)
(1.00447 -0.000373405 0)
(1.00477 0.00474111 0)
(1.00661 0.0100297 0)
(1.01057 0.0159863 0)
(1.01789 0.0227237 0)
(1.03048 0.029816 0)
(1.05046 0.0368933 0)
(1.08002 0.0446604 0)
(1.10563 0.0519738 0)
(0.943208 0.0410261 0)
(0.217144 0.00140699 0)
(0.1767 -0.000627584 0)
(1.01948 -0.0354349 0)
(1.10576 -0.0413657 0)
(1.07803 -0.0363396 0)
(1.05252 -0.0302837 0)
(1.0353 -0.0243938 0)
(1.02342 -0.0185832 0)
(1.01559 -0.0125697 0)
(1.01096 -0.00645935 0)
(1.0089 -0.000210688 0)
(1.00941 0.00595106 0)
(1.01247 0.0118653 0)
(1.01845 0.0176147 0)
(1.02805 0.0231631 0)
(1.04222 0.0286962 0)
(1.06303 0.0344619 0)
(1.09382 0.0403328 0)
(1.09436 0.0418388 0)
(0.830042 0.0228021 0)
(0.175544 0.000649639 0)
(0.15482 -0.000461267 0)
(0.958344 -0.0256544 0)
(1.10449 -0.0350535 0)
(1.08817 -0.0325893 0)
(1.06137 -0.0280678 0)
(1.04333 -0.0230876 0)
(1.03092 -0.0177655 0)
(1.02229 -0.0122029 0)
(1.01671 -0.00627264 0)
(1.01402 0.000195832 0)
(1.01463 0.0066599 0)
(1.01839 0.0125295 0)
(1.0252 0.0178205 0)
(1.03533 0.0227929 0)
(1.05003 0.0275968 0)
(1.07195 0.0320168 0)
(1.10092 0.0358741 0)
(1.06954 0.0340542 0)
(0.742248 0.014486 0)
(0.153086 0.000486009 0)
(0.140171 -0.000332992 0)
(0.901444 -0.0192821 0)
(1.09697 -0.0301425 0)
(1.09634 -0.0292434 0)
(1.06911 -0.0254422 0)
(1.05028 -0.0213349 0)
(1.03729 -0.0166104 0)
(1.02827 -0.0113352 0)
(1.02229 -0.00558786 0)
(1.01925 0.000786189 0)
(1.01982 0.00716383 0)
(1.02378 0.0128101 0)
(1.03083 0.0177616 0)
(1.04132 0.0221878 0)
(1.05664 0.0261093 0)
(1.07943 0.0295992 0)
(1.10317 0.0322879 0)
(1.03764 0.028241 0)
(0.675265 0.0103482 0)
(0.137726 0.000362391 0)
(0.129474 -0.000251339 0)
(0.851706 -0.0148776 0)
(1.0847 -0.0260257 0)
(1.10208 -0.0263432 0)
(1.07598 -0.0229996 0)
(1.05664 -0.019319 0)
(1.04322 -0.0150929 0)
(1.03382 -0.010199 0)
(1.02756 -0.0046699 0)
(1.02429 0.00152133 0)
(1.02472 0.00768276 0)
(1.02869 0.0130445 0)
(1.03588 0.0175695 0)
(1.04665 0.0213859 0)
(1.06234 0.0247056 0)
(1.08556 0.0277123 0)
(1.10233 0.0294933 0)
(1.00278 0.0237283 0)
(0.623013 0.00795543 0)
(0.12616 0.000287089 0)
(0.121335 -0.000192306 0)
(0.80937 -0.0116846 0)
(1.0695 -0.0224142 0)
(1.10566 -0.0236891 0)
(1.08228 -0.0207938 0)
(1.06248 -0.0173365 0)
(1.04878 -0.0133888 0)
(1.03912 -0.00881216 0)
(1.03258 -0.00355287 0)
(1.02906 0.00240855 0)
(1.02932 0.00830192 0)
(1.03322 0.0133082 0)
(1.04047 0.01737 0)
(1.05132 0.0207066 0)
(1.06725 0.0236285 0)
(1.09086 0.0263139 0)
(1.09859 0.0271801 0)
(0.967466 0.020188 0)
(0.580993 0.00639928 0)
(0.116964 0.00023572 0)
(0.11504 -0.000147443 0)
(0.77372 -0.00929253 0)
(1.05277 -0.019231 0)
(1.10807 -0.021232 0)
(1.0882 -0.0187142 0)
(1.06799 -0.015414 0)
(1.05403 -0.0116306 0)
(1.04418 -0.00725114 0)
(1.03739 -0.00222636 0)
(1.0336 0.00347823 0)
(1.03363 0.00906387 0)
(1.03739 0.0136911 0)
(1.04457 0.0173456 0)
(1.05543 0.0202984 0)
(1.07158 0.0228871 0)
(1.09487 0.0252196 0)
(1.092 0.0252735 0)
(0.933025 0.0174567 0)
(0.546191 0.00533568 0)
(0.109384 0.000200128 0)
(0.110141 -0.000111928 0)
(0.743832 -0.00743676 0)
(1.0356 -0.0164041 0)
(1.10954 -0.0189171 0)
(1.09382 -0.0167078 0)
(1.07331 -0.0135037 0)
(1.05907 -0.00981405 0)
(1.04902 -0.00555399 0)
(1.04202 -0.000694959 0)
(1.03793 0.004765 0)
(1.03766 0.0100297 0)
(1.04119 0.0142957 0)
(1.04822 0.0175854 0)
(1.05906 0.0201873 0)
(1.07542 0.0224841 0)
(1.09759 0.024438 0)
(1.08294 0.02372 0)
(0.900042 0.0153857 0)
(0.516535 0.00459654 0)
(0.102925 0.00017573 0)
(0.106349 -8.25359e-05 0)
(0.718887 -0.00594052 0)
(1.01881 -0.0138627 0)
(1.11019 -0.0166758 0)
(1.09934 -0.0147436 0)
(1.07856 -0.0115539 0)
(1.06402 -0.00789608 0)
(1.05374 -0.00369697 0)
(1.04647 0.00105452 0)
(1.04206 0.00631063 0)
(1.04141 0.0112761 0)
(1.04462 0.0152029 0)
(1.05147 0.0181454 0)
(1.06226 0.0204058 0)
(1.07881 0.0224381 0)
(1.09895 0.0239843 0)
(1.07178 0.0225165 0)
(0.868635 0.0138623 0)
(0.490546 0.00409023 0)
(0.0972354 0.000159984 0)
(0.103471 -5.70651e-05 0)
(0.698242 -0.00468546 0)
(1.00303 -0.0115402 0)
(1.11017 -0.0144713 0)
(1.10472 -0.0127372 0)
(1.08381 -0.00951367 0)
(1.06894 -0.0058283 0)
(1.05839 -0.00162676 0)
(1.05082 0.00306855 0)
(1.04599 0.00817211 0)
(1.04488 0.012872 0)
(1.04772 0.0164713 0)
(1.05434 0.0190714 0)
(1.06505 0.0209979 0)
(1.08174 0.0227712 0)
(1.09926 0.0239153 0)
(1.0588 0.0216789 0)
(0.83864 0.0127982 0)
(0.467121 0.00376013 0)
(0.0920525 0.000151055 0)
(0.101386 -3.35736e-05 0)
(0.681425 -0.00358318 0)
(0.988723 -0.00936668 0)
(1.10969 -0.0122179 0)
(1.10992 -0.0105977 0)
(1.08915 -0.00731836 0)
(1.07392 -0.00354555 0)
(1.06305 0.000722606 0)
(1.0551 0.00541766 0)
(1.04977 0.0104194 0)
(1.04811 0.0148835 0)
(1.05049 0.0181687 0)
(1.05683 0.0204244 0)
(1.06744 0.0220112 0)
(1.08418 0.0235138 0)
(1.09856 0.0242304 0)
(1.04415 0.0212158 0)
(0.809724 0.0121209 0)
(0.445391 0.00356742 0)
(0.0871707 0.000147424 0)
(0.100032 -1.03672e-05 0)
(0.668132 -0.00256439 0)
(0.976242 -0.00726812 0)
(1.10906 -0.00985728 0)
(1.11507 -0.00826795 0)
(1.09465 -0.00489805 0)
(1.07904 -0.000972656 0)
(1.06778 0.0034242 0)
(1.05936 0.00818545 0)
(1.05342 0.0131365 0)
(1.05109 0.01739 0)
(1.05293 0.0203674 0)
(1.05893 0.022272 0)
(1.0694 0.0235012 0)
(1.08616 0.024737 0)
(1.09661 0.0249927 0)
(1.02787 0.0211221 0)
(0.781448 0.0117783 0)
(0.424647 0.00348748 0)
(0.0824237 0.000148155 0)
(0.0993927 1.47117e-05 0)
(0.658205 -0.00157475 0)
(0.965908 -0.00517252 0)
(1.10863 -0.0073243 0)
(1.12032 -0.00567261 0)
(1.1004 -0.00216126 0)
(1.08436 0.0019838 0)
(1.07265 0.00657947 0)
(1.06366 0.0114768 0)
(1.05698 0.0164287 0)
(1.05385 0.0204931 0)
(1.05503 0.0231624 0)
(1.06063 0.0246977 0)
(1.07093 0.0255579 0)
(1.0876 0.0264865 0)
(1.09338 0.0262106 0)
(1.00992 0.0214313 0)
(0.753327 0.0117408 0)
(0.404293 0.00350483 0)
(0.0776751 0.000152661 0)
(0.0994849 3.55571e-05 0)
(0.651612 -0.000569221 0)
(0.958025 -0.00300928 0)
(1.10872 -0.00454795 0)
(1.12582 -0.0027255 0)
(1.1065 0.000988198 0)
(1.09 0.00542799 0)
(1.07774 0.0103022 0)
(1.06805 0.0154091 0)
(1.06048 0.0204174 0)
(1.05638 0.0243152 0)
(1.05678 0.0266672 0)
(1.0619 0.027823 0)
(1.07199 0.0282909 0)
(1.08828 0.0288472 0)
(1.08859 0.0279328 0)
(0.990126 0.0221801 0)
(0.72481 0.0119946 0)
(0.383786 0.0036111 0)
(0.0728013 0.000160543 0)
(0.100361 7.12854e-05 0)
(0.648437 0.000467064 0)
(0.95291 -0.000705099 0)
(1.10971 -0.00144626 0)
(1.13179 0.000670762 0)
(1.11306 0.00466557 0)
(1.09604 0.00949176 0)
(1.08314 0.014734 0)
(1.0726 0.0201276 0)
(1.06394 0.0252453 0)
(1.05868 0.0289904 0)
(1.05815 0.031008 0)
(1.0627 0.0317677 0)
(1.07253 0.0318171 0)
(1.08805 0.0319481 0)
(1.08199 0.0302591 0)
(0.96819 0.0233976 0)
(0.69529 0.0125289 0)
(0.362616 0.00379771 0)
(0.0676921 0.000171186 0)
(0.102214 0.00010462 0)
(0.64907 0.00163911 0)
(0.950928 0.00183827 0)
(1.11203 0.00209864 0)
(1.13842 0.00460306 0)
(1.12024 0.00903049 0)
(1.10263 0.0143439 0)
(1.08893 0.0200508 0)
(1.07736 0.0258142 0)
(1.06739 0.0310872 0)
(1.06074 0.0346786 0)
(1.05911 0.0363223 0)
(1.06298 0.0366678 0)
(1.07248 0.0362624 0)
(1.08665 0.035907 0)
(1.07328 0.0332731 0)
(0.943697 0.0251192 0)
(0.664119 0.0133375 0)
(0.340304 0.00405751 0)
(0.0622522 0.000183927 0)
(0.10511 0.000153265 0)
(0.653958 0.00310453 0)
(0.952556 0.0047683 0)
(1.11617 0.00618575 0)
(1.14595 0.00925117 0)
(1.12818 0.0142532 0)
(1.10988 0.0201728 0)
(1.09523 0.0264597 0)
(1.08239 0.0326818 0)
(1.07083 0.0381542 0)
(1.06253 0.0415738 0)
(1.05963 0.0427957 0)
(1.06268 0.0426913 0)
(1.07178 0.0417794 0)
(1.08392 0.0409093 0)
(1.0621 0.037088 0)
(0.916084 0.0273918 0)
(0.630585 0.0144153 0)
(0.316394 0.00438233 0)
(0.0564019 0.000198013 0)
(0.109331 0.00021644 0)
(0.663497 0.00479934 0)
(0.958245 0.0082226 0)
(1.12261 0.0109927 0)
(1.15465 0.0148134 0)
(1.13711 0.0205693 0)
(1.11798 0.0272436 0)
(1.10213 0.0342381 0)
(1.08774 0.0410003 0)
(1.07425 0.0466872 0)
(1.06402 0.0498824 0)
(1.05964 0.0506118 0)
(1.06173 0.0500185 0)
(1.07035 0.0485321 0)
(1.07996 0.047061 0)
(1.04791 0.0418143 0)
(0.884636 0.0302352 0)
(0.593931 0.0157385 0)
(0.290465 0.00475553 0)
(0.0500844 0.000211973 0)
(0.115216 0.000301057 0)
(0.678466 0.00690285 0)
(0.968632 0.0124018 0)
(1.13193 0.0167637 0)
(1.1649 0.0215625 0)
(1.14729 0.0283086 0)
(1.1271 0.0359096 0)
(1.10976 0.0437413 0)
(1.09343 0.0511023 0)
(1.07762 0.0569691 0)
(1.06512 0.0598419 0)
(1.05898 0.0599627 0)
(1.06004 0.0588278 0)
(1.06816 0.0567263 0)
(1.07447 0.0545548 0)
(1.03007 0.0475264 0)
(0.848473 0.0336436 0)
(0.553373 0.0172585 0)
(0.262179 0.00515072 0)
(0.043281 0.000224051 0)
(0.123271 0.000423509 0)
(0.699835 0.00966211 0)
(0.984593 0.0176196 0)
(1.1448 0.0238441 0)
(1.1772 0.0298885 0)
(1.15903 0.0379183 0)
(1.13745 0.0466369 0)
(1.11817 0.0554238 0)
(1.09944 0.0633898 0)
(1.08085 0.0693295 0)
(1.06573 0.0717133 0)
(1.05759 0.0710832 0)
(1.05753 0.0692739 0)
(1.06511 0.0664778 0)
(1.0671 0.0633927 0)
(1.00767 0.054281 0)
(0.806566 0.0375531 0)
(0.508176 0.0188847 0)
(0.231347 0.00552722 0)
(0.0360293 0.000231762 0)
(0.134226 0.000596806 0)
(0.728825 0.0134461 0)
(1.00729 0.0243485 0)
(1.16199 0.0327878 0)
(1.19212 0.0403965 0)
(1.17267 0.0500812 0)
(1.14918 0.0601082 0)
(1.12739 0.0698986 0)
(1.10565 0.0783537 0)
(1.08377 0.0841174 0)
(1.06568 0.0857403 0)
(1.05538 0.0841744 0)
(1.05411 0.0815935 0)
(1.06086 0.0779255 0)
(1.05712 0.0737585 0)
(0.979584 0.0620428 0)
(0.757775 0.0418138 0)
(0.457756 0.0204696 0)
(0.198021 0.00582874 0)
(0.0284414 0.000232253 0)
(0.149342 0.00087582 0)
(0.767479 0.0188679 0)
(1.0384 0.0333809 0)
(1.18446 0.0445456 0)
(1.21048 0.054275 0)
(1.18855 0.0658498 0)
(1.16235 0.0772876 0)
(1.13724 0.0879475 0)
(1.11181 0.0965575 0)
(1.0861 0.101696 0)
(1.06475 0.10215 0)
(1.05217 0.0993757 0)
(1.04966 0.0958878 0)
(1.0551 0.0914443 0)
(1.04368 0.0857212 0)
(0.944363 0.0706263 0)
(0.700977 0.046141 0)
(0.401889 0.0217979 0)
(0.162622 0.00598464 0)
(0.0207228 0.000222532 0)
(0.170839 0.00135864 0)
(0.819088 0.0270993 0)
(1.08053 0.0462981 0)
(1.21333 0.0609904 0)
(1.23282 0.0734927 0)
(1.20674 0.0868239 0)
(1.1767 0.0994714 0)
(1.14731 0.110492 0)
(1.11744 0.118588 0)
(1.08744 0.122397 0)
(1.06263 0.121107 0)
(1.0478 0.116785 0)
(1.04409 0.112208 0)
(1.04781 0.106914 0)
(1.02562 0.0991574 0)
(0.900201 0.0796323 0)
(0.635364 0.0500945 0)
(0.341079 0.0226051 0)
(0.126105 0.00592314 0)
(0.0131875 0.000199547 0)
(0.202155 0.00243143 0)
(0.889429 0.0408726 0)
(1.13729 0.0669715 0)
(1.24903 0.0856837 0)
(1.2589 0.100824 0)
(1.22664 0.115363 0)
(1.19141 0.128262 0)
(1.15677 0.138515 0)
(1.12186 0.144979 0)
(1.08727 0.14645 0)
(1.059 0.142675 0)
(1.04206 0.136405 0)
(1.03726 0.130539 0)
(1.03849 0.12421 0)
(1.00125 0.113665 0)
(0.845003 0.0883119 0)
(0.561104 0.0531054 0)
(0.277294 0.0227068 0)
(0.090313 0.0056356 0)
(0.00634753 0.000164114 0)
(0.244813 0.00874435 4.94204e-20)
(0.98261 0.0683698 4.31199e-20)
(1.20641 0.101623 -1.50443e-20)
(1.2885 0.12219 0)
(1.28592 0.139886 -3.81074e-34)
(1.2461 0.153816 5.56308e-21)
(1.20491 0.165182 -9.96612e-21)
(1.16451 0.17324 0)
(1.12422 0.176979 2.0367e-34)
(1.0848 0.175301 -1.22254e-20)
(1.05292 0.168564 0)
(1.03379 0.1602 -1.44844e-20)
(1.02821 0.153303 -4.27137e-20)
(1.02583 0.146676 -2.01719e-20)
(0.966304 0.131695 -6.068e-21)
(0.772316 0.0980161 -3.60444e-21)
(0.473008 0.0554314 0)
(0.209052 0.022469 2.51806e-21)
(0.055268 0.00538387 2.97255e-21)
(0.00016858 0.00012241 5.36357e-20)
(0.274702 0.0244054 3.64513e-20)
(1.05955 0.111357 5.46935e-22)
(1.26342 0.151012 4.02397e-21)
(1.32384 0.17179 0)
(1.30965 0.189254 -1.93589e-20)
(1.26282 0.201006 -2.1947e-20)
(1.21574 0.210043 -1.00615e-20)
(1.16953 0.215613 -3.56488e-20)
(1.12368 0.216578 0)
(1.07908 0.211819 5.19714e-20)
(1.04317 0.202231 5.14588e-20)
(1.02166 0.191828 1.52585e-20)
(1.01394 0.183265 5.56105e-20)
(1.00271 0.17452 7.81235e-20)
(0.910781 0.152545 0)
(0.673378 0.107753 1.09994e-19)
(0.36923 0.0570962 1.57619e-19)
(0.138106 0.0214646 1.74958e-19)
(0.0200137 0.00391362 -1.99964e-19)
(-0.00613804 -0.000510218 -3.76904e-21)
(0.275726 0.0404003 0)
(1.10819 0.167043 6.47981e-21)
(1.30185 0.211765 0)
(1.35132 0.231966 -2.53954e-20)
(1.32829 0.246307 0)
(1.27558 0.254167 -4.31407e-20)
(1.22299 0.259454 2.05407e-20)
(1.1713 0.261419 -7.17491e-20)
(1.12017 0.258728 -1.58788e-21)
(1.07066 0.250215 2.68539e-20)
(1.03097 0.237307 1.12853e-19)
(1.0072 0.224497 -2.05167e-22)
(0.997098 0.21405 -4.03216e-20)
(0.976839 0.202188 -7.33386e-20)
(0.860385 0.172159 8.67247e-20)
(0.6018 0.116171 -1.53455e-19)
(0.3077 0.0584888 -2.02212e-20)
(0.100586 0.0201467 0)
(0.00161884 0.00163475 -1.40159e-23)
(-0.00971459 -0.00137074 0)
(0.269166 0.0542194 8.58274e-20)
(1.13438 0.226003 -4.17094e-20)
(1.32553 0.276977 -3.18121e-20)
(1.36955 0.297298 1.20126e-20)
(1.34042 0.307659 -2.0163e-20)
(1.28331 0.310962 9.02872e-20)
(1.22619 0.311807 4.27995e-20)
(1.16978 0.3095 0)
(1.11394 0.302573 -1.3471e-19)
(1.05994 0.289804 0)
(1.01674 0.273169 -5.91361e-20)
(0.9908 0.257636 -7.28973e-20)
(0.978332 0.244888 -4.37919e-20)
(0.950233 0.229191 -5.31252e-20)
(0.819168 0.191194 0)
(0.55506 0.12557 0)
(0.274405 0.0615891 -1.31333e-19)
(0.0805065 0.0192356 2.59103e-20)
(-0.00977761 -0.000998565 -1.51771e-20)
(-0.0125052 -0.00244045 -1.77548e-20)
(0.261295 0.0663964 -3.48361e-20)
(1.14576 0.284756 0)
(1.33849 0.34306 6.50438e-20)
(1.37951 0.363995 3.37867e-20)
(1.34614 0.370464 4.65196e-20)
(1.28582 0.369176 0)
(1.22515 0.365449 4.18853e-20)
(1.16484 0.358661 7.92356e-20)
(1.10496 0.347257 6.89795e-20)
(1.04693 0.32996 1.26041e-19)
(1.00048 0.309311 0)
(0.972414 0.290793 -1.56923e-19)
(0.957618 0.275452 -9.43909e-20)
(0.923485 0.255777 -5.5779e-20)
(0.785759 0.210606 3.4059e-19)
(0.525773 0.136747 4.04015e-20)
(0.257758 0.0665087 1.89683e-19)
(0.0712333 0.0190856 -8.96954e-19)
(-0.0160956 -0.00354019 5.29893e-19)
(-0.0146009 -0.00360361 -6.38695e-19)
(0.253649 0.0773434 -1.73431e-20)
(1.14759 0.341418 6.33234e-21)
(1.34361 0.408088 -7.04695e-21)
(1.3828 0.430161 -3.43314e-20)
(1.34638 0.432978 -3.93343e-20)
(1.28368 0.427273 1.80173e-21)
(1.2202 0.419116 -4.53453e-20)
(1.15669 0.407906 8.18971e-20)
(1.09335 0.392022 -1.48318e-19)
(1.03175 0.370138 0)
(0.982266 0.345371 -7.11235e-20)
(0.952061 0.323712 -1.58693e-21)
(0.93499 0.305676 -1.03176e-19)
(0.896709 0.282081 0)
(0.758074 0.230641 -7.36742e-20)
(0.507468 0.149764 -1.74472e-19)
(0.251556 0.0734456 4.64026e-19)
(0.0701591 0.0203542 -4.57229e-19)
(-0.0176976 -0.00533626 6.48125e-19)
(-0.0157072 -0.00467071 -6.73483e-19)
(0.247101 0.0874076 -4.21594e-22)
(1.14342 0.395317 -2.29438e-21)
(1.34308 0.471061 -1.9512e-20)
(1.38084 0.494588 1.37622e-20)
(1.34223 0.494151 -1.97956e-20)
(1.27772 0.484311 0)
(1.21198 0.471975 -4.22721e-20)
(1.1458 0.456534 -8.57679e-20)
(1.07944 0.436313 -7.71141e-20)
(1.01462 0.409923 0)
(0.962304 0.381038 -7.37995e-20)
(0.929995 0.356202 -9.1243e-20)
(0.910793 0.335434 1.11861e-19)
(0.869716 0.308106 -6.77452e-20)
(0.733549 0.251429 -3.2152e-19)
(0.494794 0.164369 1.90358e-19)
(0.25102 0.0819616 5.63614e-20)
(0.0737396 0.0231486 0)
(-0.0155329 -0.00596717 -6.26786e-19)
(-0.015747 -0.00542224 -2.30034e-20)
(0.241777 0.096903 7.91371e-22)
(1.13559 0.44627 -3.48415e-22)
(1.33839 0.531513 9.08839e-21)
(1.37491 0.556555 4.92321e-20)
(1.33462 0.553315 -7.30297e-20)
(1.26874 0.539711 8.58245e-20)
(1.20118 0.523499 9.10611e-20)
(1.13271 0.504092 -1.37076e-19)
(1.0637 0.479756 4.74869e-20)
(0.995936 0.44902 -3.09765e-19)
(0.940945 0.416099 -8.33914e-20)
(0.90657 0.388129 0)
(0.885299 0.364683 1.21399e-19)
(0.842216 0.333958 1.45403e-19)
(0.710483 0.272387 1.73381e-19)
(0.48412 0.179953 -2.07062e-19)
(0.252021 0.0917609 -6.10932e-20)
(0.0794523 0.0274481 7.18848e-20)
(-0.0109463 -0.00530213 0)
(-0.0149192 -0.00581744 -4.99818e-20)
(0.237613 0.105997 -3.12991e-20)
(1.12578 0.494386 1.31004e-20)
(1.33082 0.589243 -8.05099e-21)
(1.36602 0.615759 2.97973e-20)
(1.32439 0.610081 -3.28813e-20)
(1.25746 0.593083 -4.10701e-21)
(1.18839 0.573348 -9.95639e-20)
(1.11797 0.550287 -4.96109e-20)
(1.04657 0.5221 -1.34036e-19)
(0.976077 0.487237 3.26675e-22)
(0.918531 0.450425 -2.61517e-19)
(0.882159 0.419408 2.2018e-19)
(0.858981 0.393365 -1.33503e-19)
(0.81446 0.359224 1.6031e-19)
(0.68757 0.293163 0)
(0.473144 0.195952 -1.12746e-19)
(0.25284 0.102125 2.92152e-22)
(0.0855904 0.032764 -3.14143e-19)
(-0.00525455 -0.00367668 -4.60899e-20)
(-0.0135531 -0.00590129 0)
(0.23449 0.114838 0)
(1.11498 0.539895 1.7427e-20)
(1.32127 0.644662 -5.68221e-21)
(1.35499 0.672052 -2.7116e-20)
(1.31221 0.664245 -4.18575e-20)
(1.24447 0.644214 0)
(1.17417 0.621303 -4.53279e-20)
(1.10204 0.594918 -1.04105e-21)
(1.02847 0.563187 2.87485e-19)
(0.955385 0.524445 -4.26315e-20)
(0.895382 0.483905 -1.88902e-19)
(0.857084 0.449911 1.14628e-19)
(0.832092 0.421281 -2.23906e-21)
(0.78632 0.38383 1.7086e-19)
(0.663889 0.313308 1.04632e-19)
(0.460487 0.211719 -2.43492e-19)
(0.251403 0.112565 2.88004e-19)
(0.0904437 0.0386346 8.53184e-20)
(0.000406323 -0.00132488 3.51484e-19)
(-0.0118828 -0.00569544 -9.38729e-19)
(0.232339 0.123582 -1.49579e-20)
(1.10391 0.582981 1.73105e-20)
(1.31037 0.697092 -9.21813e-21)
(1.34245 0.725412 2.08973e-20)
(1.29867 0.715713 0)
(1.2303 0.69298 -3.9644e-20)
(1.15896 0.667239 1.52547e-19)
(1.08532 0.637866 1.09076e-19)
(1.00973 0.60291 0)
(0.934173 0.560568 -6.14313e-19)
(0.871766 0.516458 5.11616e-19)
(0.8316 0.479526 0)
(0.804903 0.44831 1.56337e-19)
(0.757919 0.407461 -2.22812e-21)
(0.638986 0.33243 -3.36261e-19)
(0.446005 0.226309 1.31279e-19)
(0.247306 0.122416 0)
(0.0931264 0.044352 4.61068e-19)
(0.00504298 0.00118715 0)
(-0.0102399 -0.00533594 -4.44925e-19)
(0.231015 0.132294 1.92676e-20)
(1.09297 0.623902 2.63643e-20)
(1.29871 0.746604 -8.02404e-21)
(1.32887 0.775859 0)
(1.28424 0.764469 -3.56933e-20)
(1.21536 0.739344 0)
(1.14315 0.711089 -1.50866e-19)
(1.06815 0.679063 -5.08042e-20)
(0.990682 0.641217 5.08965e-20)
(0.912708 0.595568 -3.04087e-19)
(0.847884 0.548039 5.2909e-20)
(0.805875 0.508197 0)
(0.777553 0.474334 -3.34381e-19)
(0.729312 0.429923 2.14066e-21)
(0.612991 0.350136 0)
(0.429305 0.239357 1.01919e-21)
(0.24032 0.130987 4.22166e-19)
(0.0929629 0.0492446 -3.98319e-19)
(0.00798488 0.00335655 1.17575e-19)
(-0.00887038 -0.00496029 0)
(0.230197 0.140881 0)
(1.08245 0.662729 3.42205e-20)
(1.28648 0.793373 1.78213e-20)
(1.31469 0.82344 -2.54841e-21)
(1.26928 0.810543 -1.18573e-20)
(1.20001 0.783306 -8.9804e-20)
(1.12707 0.752841 5.66862e-20)
(1.05084 0.718481 -5.99929e-20)
(0.971582 0.678074 2.27282e-19)
(0.89121 0.629436 -4.87068e-19)
(0.823912 0.578657 -4.16889e-21)
(0.780049 0.535912 -1.46649e-19)
(0.75014 0.499224 5.43013e-19)
(0.700582 0.450897 -2.57688e-21)
(0.586287 0.365927 -2.61565e-19)
(0.410651 0.25032 -4.64012e-19)
(0.230823 0.137743 0)
(0.0904038 0.0527156 0)
(0.00923003 0.00477901 1.26909e-19)
(-0.00786767 -0.00469269 -7.44433e-20)
(0.230096 0.149471 2.98935e-20)
(1.07258 0.699375 -8.02827e-20)
(1.27395 0.837531 -1.91758e-20)
(1.30024 0.868223 0)
(1.25409 0.853992 -1.50495e-21)
(1.18453 0.824895 -8.26711e-20)
(1.11097 0.792504 1.37313e-19)
(1.03362 0.756117 2.36839e-19)
(0.95266 0.713484 2.9602e-19)
(0.869891 0.662188 -3.98638e-19)
(0.800014 0.608359 -4.41366e-19)
(0.754189 0.562682 3.92603e-19)
(0.722655 0.522877 0)
(0.671659 0.470094 -1.1922e-19)
(0.558902 0.379456 -2.82674e-19)
(0.390393 0.258791 -3.3381e-19)
(0.219074 0.142354 -3.93733e-19)
(0.0857642 0.0545519 1.16265e-19)
(0.00903237 0.00534454 -6.83408e-20)
(-0.00721496 -0.00456773 3.08746e-22)
(0.230134 0.157977 0)
(1.06342 0.734202 0)
(1.2614 0.87916 2.47075e-21)
(1.28574 0.91032 0)
(1.23891 0.894907 2.6862e-20)
(1.16913 0.864171 5.65345e-20)
(1.09506 0.830108 0)
(1.0167 0.791984 2.82458e-20)
(0.934115 0.747451 4.9523e-19)
(0.848936 0.693848 -9.17498e-19)
(0.776325 0.637215 0)
(0.728346 0.588542 -2.53147e-19)
(0.69504 0.545232 -3.02412e-21)
(0.642497 0.487303 -2.27977e-21)
(0.530948 0.390431 3.029e-19)
(0.368562 0.264485 -3.46123e-23)
(0.205606 0.144499 -8.48346e-19)
(0.0794481 0.0547398 2.50133e-19)
(0.00777938 0.00514083 7.39043e-20)
(-0.00680993 -0.00454607 0)
(0.230307 0.166358 -1.2672e-19)
(1.05474 0.767381 -5.84607e-20)
(1.24894 0.918354 -6.79839e-20)
(1.27135 0.949873 4.04231e-20)
(1.22393 0.933364 3.27792e-20)
(1.15401 0.901201 0)
(1.07951 0.865701 8.38473e-20)
(1.00023 0.826111 -6.30328e-20)
(0.916104 0.779998 3.92415e-21)
(0.828514 0.724457 6.76577e-20)
(0.752978 0.665304 5.73262e-19)
(0.702542 0.613585 -8.89171e-20)
(0.667202 0.566316 -3.35486e-19)
(0.61294 0.502345 -1.38957e-19)
(0.502496 0.398485 1.64201e-19)
(0.34593 0.267107 1.30348e-22)
(0.19096 0.144103 2.28459e-19)
(0.0720471 0.0533116 -5.38255e-19)
(0.00585573 0.00430922 6.36016e-19)
(-0.00655577 -0.00459106 9.27589e-20)
(0.230431 0.174484 4.91612e-20)
(1.04656 0.798993 -3.36217e-20)
(1.23668 0.955214 6.24645e-21)
(1.25722 0.987019 3.3143e-20)
(1.20928 0.969474 -2.70003e-22)
(1.13928 0.936057 -9.95434e-20)
(1.06445 0.899336 2.44585e-20)
(0.984355 0.858519 -2.63353e-19)
(0.898764 0.811126 -5.48226e-19)
(0.808766 0.754029 -5.48633e-19)
(0.730113 0.692704 0)
(0.676811 0.637956 -3.90907e-19)
(0.639016 0.586243 4.8394e-19)
(0.582742 0.515068 0)
(0.473509 0.403182 -3.51968e-19)
(0.323192 0.266189 2.0885e-19)
(0.176329 0.140972 -2.45667e-19)
(0.0647622 0.0505386 -2.89547e-19)
(0.00383162 0.00309747 -5.12276e-19)
(-0.0064173 -0.00469121 -3.9945e-19)
(0.230914 0.182487 -5.66227e-20)
(1.03871 0.829034 3.59998e-20)
(1.2247 0.989816 7.94719e-20)
(1.24343 1.02184 5.30281e-20)
(1.19506 1.00333 4.88775e-21)
(1.12505 0.96883 -5.4168e-20)
(1.04997 0.931063 8.17856e-20)
(0.969154 0.889254 -2.71418e-19)
(0.882189 0.840863 -3.25552e-19)
(0.789819 0.782587 5.75884e-19)
(0.707854 0.71949 1.26287e-18)
(0.651212 0.661849 0)
(0.610358 0.605197 0)
(0.551529 0.525437 -1.60014e-19)
(0.443675 0.404057 0)
(0.300629 0.2608 4.48685e-19)
(0.163277 0.134261 5.27917e-19)
(0.0596473 0.0463005 0)
(0.00294977 0.00180193 0)
(-0.00633166 -0.00479346 4.292e-19)
(0.231089 0.190071 6.55438e-20)
(1.03122 0.857502 5.2534e-20)
(1.21305 1.02229 5.82762e-20)
(1.23004 1.05447 -5.63452e-20)
(1.18135 1.03505 -1.85987e-21)
(1.11138 0.999598 5.57779e-20)
(1.03614 0.960947 -1.12747e-19)
(0.954701 0.918343 -6.57256e-22)
(0.866463 0.869215 -5.11017e-21)
(0.771773 0.810134 -4.43931e-21)
(0.686346 0.74572 6.51281e-19)
(0.625855 0.68545 0)
(0.581145 0.62344 4.91139e-19)
(0.518862 0.533617 3.42074e-19)
(0.41223 0.400859 8.21003e-19)
(0.277825 0.249532 2.41794e-19)
(0.153412 0.121118 -2.83929e-19)
(0.0613604 0.0371689 -1.66728e-19)
(0.00963888 -0.000709866 0)
(-0.00409738 -0.00413723 4.61153e-19)
(0.231599 0.197678 -1.5017e-19)
(1.02405 0.88449 0)
(1.20173 1.05268 7.13659e-20)
(1.2171 1.08498 -4.97453e-20)
(1.1682 1.06473 1.29509e-20)
(1.09831 1.02845 -5.94474e-20)
(1.02301 0.989044 2.2012e-19)
(0.941036 0.945822 -2.19133e-20)
(0.851636 0.896192 0)
(0.754711 0.836649 -6.38014e-19)
(0.665731 0.771425 -1.41925e-18)
(0.600886 0.708935 5.79789e-20)
(0.551407 0.641286 6.79236e-19)
(0.484406 0.540052 0)
(0.377912 0.393962 5.54467e-19)
(0.252429 0.231143 0)
(0.144471 0.0950322 0)
(0.0748871 0.00825018 -1.80162e-19)
(0.0459697 -0.0148594 0)
(0.0267045 0.0100638 1.23593e-19)
(0.231764 0.20471 -1.69836e-19)
(1.01715 0.910344 0)
(1.19073 1.0812 1.21235e-19)
(1.20456 1.11359 0)
(1.15556 1.09263 -1.12398e-20)
(1.0858 1.05566 0)
(1.01051 1.01567 1.09143e-20)
(0.928062 0.972027 3.76342e-20)
(0.837582 0.922153 4.1023e-20)
(0.738462 0.862512 -7.01192e-19)
(0.645814 0.797045 4.27098e-20)
(0.576056 0.732951 4.67081e-19)
(0.520686 0.659566 6.63353e-19)
(0.447214 0.545379 8.9239e-20)
(0.338641 0.384714 4.35009e-19)
(0.21919 0.206479 0)
(0.123988 0.0514221 5.97611e-19)
(0.0677081 -0.0343336 -3.4873e-19)
(0.0416088 0.0411702 4.0604e-19)
(-0.0690832 0.438238 -4.78736e-19)
(0.231934 0.21156 1.41838e-19)
(1.01027 0.934829 2.15159e-19)
(1.17995 1.10817 0)
(1.19228 1.14076 4.90532e-21)
(1.14325 1.11933 3.97829e-20)
(1.07357 1.08193 6.88015e-20)
(0.998333 1.04161 7.68109e-20)
(0.915362 0.997887 0)
(0.823761 0.948174 2.72772e-19)
(0.722347 0.889016 -3.67078e-20)
(0.625667 0.82406 0)
(0.550076 0.759161 0)
(0.486946 0.67973 5.95581e-19)
(0.404819 0.550112 -2.75941e-19)
(0.291101 0.374878 -4.41649e-19)
(0.17301 0.17889 0)
(0.0725684 0.0627106 3.01423e-19)
(0.0028733 0.436908 -3.4784e-19)
(0.0325847 1.89463 -1.90702e-19)
(0.0617475 2.81385 -2.43772e-19)
(0.23195 0.217608 -1.07935e-19)
(1.00361 0.95814 -2.78753e-19)
(1.16942 1.13356 7.35156e-20)
(1.18027 1.16636 5.5056e-20)
(1.13127 1.14459 0)
(1.06169 1.10695 3.69786e-20)
(0.986667 1.06655 1.05161e-19)
(0.903132 1.02298 -1.83397e-20)
(0.810448 0.973747 4.07955e-20)
(0.706754 0.915559 6.70552e-19)
(0.6059 0.851855 7.21616e-19)
(0.523865 0.787192 5.26277e-19)
(0.450995 0.701984 6.00647e-19)
(0.358703 0.553319 -6.50484e-19)
(0.240497 0.368204 -6.6849e-19)
(0.117213 0.224191 0)
(0.0415828 0.832525 0)
(0.0990248 2.55347 1.66728e-19)
(0.100348 3.20344 0)
(0.103735 3.38889 3.97459e-19)
(0.234502 0.223212 0)
(0.997765 0.98048 0)
(1.1589 1.15724 0)
(1.16831 1.19023 1.76267e-20)
(1.11929 1.16817 3.81751e-20)
(1.04995 1.13061 1.41039e-20)
(0.975408 1.0904 6.77856e-20)
(0.89133 1.04719 -1.79616e-20)
(0.797611 0.998737 3.42597e-19)
(0.691718 0.94201 -8.81876e-21)
(0.586676 0.88035 1.42982e-18)
(0.497731 0.816894 -6.08004e-20)
(0.413009 0.727528 7.29963e-20)
(0.311417 0.552704 9.43151e-20)
(0.177074 0.37975 -5.73515e-21)
(0.0962895 0.961047 1.84117e-21)
(0.137432 2.72556 -8.84424e-19)
(0.145328 3.29318 -3.31098e-19)
(0.134824 3.4255 1.71276e-19)
(0.12278 3.44769 -1.90989e-19)
(0.153376 0.180662 6.50346e-20)
(0.986549 1.00459 0)
(1.148 1.17939 -1.51521e-19)
(1.15691 1.21287 -1.55306e-19)
(1.1082 1.1909 1.06529e-19)
(1.0393 1.1536 -9.46922e-21)
(0.964497 1.11325 -7.01063e-20)
(0.880071 1.07066 2.01506e-19)
(0.785424 1.02332 -2.81535e-19)
(0.67754 0.968553 0)
(0.568424 0.909766 7.04729e-19)
(0.472242 0.848164 -4.3153e-19)
(0.374829 0.759166 0)
(0.256977 0.548758 8.84866e-20)
(0.139947 0.727681 2.10922e-19)
(0.15323 2.49969 -2.44177e-19)
(0.209536 3.32189 2.73659e-19)
(0.190135 3.43738 1.47301e-19)
(0.158415 3.45918 1.64883e-19)
(0.137002 3.46965 2.62782e-19)
(0.277225 0.260906 -1.17733e-19)
(0.971027 1.01413 0)
(1.12972 1.20464 1.68298e-19)
(1.14175 1.24326 1.7586e-19)
(1.09072 1.22389 -1.281e-19)
(1.02104 1.18695 -1.40754e-20)
(0.945319 1.14824 6.66645e-20)
(0.860368 1.10688 1.58135e-20)
(0.764381 1.06173 2.70465e-19)
(0.653683 1.01092 5.84741e-19)
(0.539135 0.958708 3.99202e-20)
(0.431683 0.901912 3.85738e-19)
(0.304381 0.794354 6.90082e-20)
(0.21107 0.907113 -8.7399e-20)
(0.227878 2.34724 -1.97355e-19)
(0.289582 3.32324 1.89165e-19)
(0.272456 3.46521 -2.08925e-19)
(0.237198 3.48758 -1.20274e-19)
(0.200317 3.51563 -1.02016e-19)
(0.148892 3.51018 -1.18769e-20)
(0.265031 0.257743 0)
(0.968517 1.03662 5.0991e-20)
(1.12127 1.22803 -3.54429e-20)
(1.13103 1.26686 -2.18241e-20)
(1.07981 1.24706 -9.30895e-20)
(1.01008 1.21035 1.92244e-20)
(0.934033 1.17177 -3.49301e-20)
(0.848869 1.13122 1.4261e-20)
(0.752332 1.08757 -2.82888e-19)
(0.640288 1.03966 -1.36088e-20)
(0.52281 0.992413 -1.28292e-18)
(0.409975 0.939988 5.51531e-20)
(0.285064 0.85896 -6.5248e-20)
(0.254097 1.47148 -8.10455e-20)
(0.33005 3.0984 1.81945e-20)
(0.349053 3.46206 1.35324e-22)
(0.308795 3.51877 3.05726e-19)
(0.271489 3.5462 1.49788e-19)
(0.222885 3.57011 -3.83377e-20)
(0.163931 3.56652 -5.65601e-20)
(0.24888 0.25625 1.31163e-19)
(0.964417 1.06178 3.50049e-19)
(1.11241 1.25352 -1.01793e-19)
(1.11972 1.29188 -8.21707e-20)
(1.06826 1.27157 0)
(0.998688 1.23492 5.90323e-20)
(0.922616 1.19658 -3.5624e-20)
(0.837519 1.15682 1.25903e-20)
(0.740754 1.11476 -3.15406e-20)
(0.627897 1.07004 -5.33639e-19)
(0.508338 1.02813 -5.94384e-19)
(0.391756 0.979354 -4.52508e-19)
(0.286511 0.987933 -4.96479e-19)
(0.324748 2.19673 5.11085e-19)
(0.418073 3.3711 4.27999e-19)
(0.394029 3.5193 0)
(0.348625 3.56526 0)
(0.31055 3.60688 -3.02655e-20)
(0.259725 3.66752 0)
(0.176703 3.64396 -3.34459e-20)
(0.238254 0.258144 -1.98575e-19)
(0.958393 1.08803 -2.99918e-19)
(1.10212 1.28018 0)
(1.10703 1.3176 5.88227e-21)
(1.05543 1.29667 -1.09448e-19)
(0.986154 1.25996 1.09776e-19)
(0.910402 1.22192 -1.41944e-20)
(0.825577 1.18286 7.48372e-21)
(0.728824 1.14234 -2.02577e-19)
(0.61557 1.10079 2.68609e-20)
(0.494873 1.06432 0)
(0.373063 1.02016 0)
(0.307957 1.24522 -4.54758e-19)
(0.409626 2.87761 1.84985e-19)
(0.490697 3.47837 2.3707e-19)
(0.441685 3.55184 0)