/*--------------------------------*- C++ -*----------------------------------*\
  =========                 |
  \\      /  F ield         | OpenFOAM: The Open Source CFD Toolbox
   \\    /   O peration     | Website:  https://openfoam.org
    \\  /    A nd           | Version:  10
     \\/     M anipulation  |
\*---------------------------------------------------------------------------*/
FoamFile
{
    format      ascii;
    class       volScalarField;
    location    "66";
    object      p;
}
// * * * * * * * * * * * * * * * * * * * * * * * * * * * * * * * * * * * * * //

dimensions      [0 2 -2 0 0 0 0];

internalField   nonuniform List<scalar> 
8800
(
0.788341
0.740555
0.701868
0.672876
0.652018
0.637195
0.626611
0.619148
0.614353
0.61233
0.613636
0.617857
0.624526
0.633859
0.64665
0.664393
0.689176
0.72312
0.765673
0.824375
0.619585
0.627264
0.634743
0.638054
0.636554
0.631483
0.625006
0.618944
0.614243
0.61143
0.611189
0.613731
0.618249
0.624215
0.630999
0.637289
0.640936
0.640203
0.634788
0.626102
0.597981
0.604141
0.608271
0.611219
0.613274
0.613887
0.612794
0.610708
0.60872
0.607851
0.608854
0.611271
0.614096
0.616296
0.616916
0.615727
0.613392
0.610004
0.605448
0.601688
0.592159
0.59481
0.597565
0.599972
0.601613
0.602784
0.60354
0.603678
0.603414
0.603406
0.604205
0.605413
0.606281
0.606368
0.605773
0.604693
0.602885
0.600321
0.597921
0.596417
0.586762
0.588187
0.589969
0.592006
0.593797
0.595149
0.596154
0.596975
0.597625
0.598237
0.59894
0.59948
0.599612
0.599349
0.59867
0.597434
0.595748
0.593907
0.592604
0.591772
0.581664
0.582585
0.583829
0.585401
0.587042
0.588579
0.589882
0.590976
0.59198
0.592928
0.593679
0.594057
0.594053
0.593643
0.592783
0.591599
0.590284
0.589032
0.588214
0.587662
0.576731
0.577401
0.578367
0.579675
0.581093
0.582564
0.584024
0.585377
0.586621
0.587793
0.588685
0.589112
0.589073
0.588599
0.587818
0.58689
0.585893
0.584979
0.584398
0.583992
0.571915
0.572432
0.573219
0.574356
0.575643
0.577032
0.578501
0.580008
0.581488
0.582898
0.583986
0.584528
0.584557
0.584213
0.583642
0.58294
0.582185
0.581514
0.581084
0.580766
0.567144
0.567555
0.568214
0.569228
0.570445
0.571789
0.57326
0.574855
0.576536
0.578217
0.57956
0.580301
0.58053
0.58041
0.580065
0.579578
0.57903
0.578553
0.578235
0.577976
0.562331
0.562665
0.563236
0.564171
0.565341
0.566672
0.568182
0.569879
0.571753
0.573732
0.575402
0.576447
0.57696
0.577099
0.576989
0.57673
0.576379
0.576063
0.57583
0.575612
0.557386
0.557663
0.558173
0.559062
0.560216
0.561574
0.56316
0.565003
0.567112
0.569436
0.571519
0.572953
0.573807
0.574243
0.574391
0.574361
0.574208
0.574035
0.573869
0.573681
0.552219
0.552452
0.552922
0.553798
0.554974
0.556403
0.558109
0.56015
0.562561
0.565312
0.5679
0.569803
0.571056
0.571833
0.57227
0.572479
0.572526
0.572484
0.572374
0.572206
0.546737
0.546935
0.547386
0.548276
0.549518
0.551061
0.552942
0.55525
0.558044
0.56133
0.56453
0.56699
0.568711
0.569878
0.570639
0.571104
0.571368
0.57145
0.571388
0.571233
0.540838
0.541007
0.541456
0.54239
0.543738
0.545447
0.547569
0.550224
0.553503
0.557451
0.561392
0.564518
0.566791
0.568407
0.569539
0.570313
0.570792
0.570994
0.570972
0.570826
0.534401
0.534546
0.535008
0.536014
0.537515
0.539449
0.541891
0.544988
0.548877
0.553635
0.558473
0.562395
0.565322
0.567467
0.569023
0.570134
0.570859
0.571188
0.571204
0.57106
0.527286
0.527406
0.527895
0.529006
0.530711
0.532941
0.535791
0.539449
0.544095
0.549844
0.555764
0.560636
0.564336
0.567106
0.569163
0.570661
0.571664
0.572121
0.572171
0.572027
0.519302
0.519405
0.519938
0.521189
0.523156
0.52576
0.529132
0.533495
0.539077
0.546036
0.553259
0.559262
0.563874
0.567379
0.570036
0.571991
0.5733
0.573894
0.573975
0.573827
0.510232
0.510332
0.51092
0.512331
0.51463
0.517721
0.521753
0.526999
0.53374
0.542172
0.550959
0.558304
0.563993
0.568361
0.571728
0.574212
0.575872
0.57661
0.576719
0.576563
0.499753
0.499834
0.500512
0.502148
0.504883
0.508596
0.513461
0.519814
0.527992
0.53822
0.548875
0.557798
0.564753
0.570138
0.574313
0.577433
0.579482
0.58037
0.580503
0.580336
0.487487
0.487554
0.488332
0.490279
0.493572
0.498084
0.504015
0.511771
0.521737
0.534148
0.547023
0.557795
0.566216
0.572783
0.577906
0.581748
0.584223
0.58526
0.585411
0.585228
0.472874
0.47293
0.473851
0.476215
0.480248
0.485811
0.493129
0.502683
0.514883
0.529945
0.545438
0.558349
0.568445
0.576365
0.582581
0.587237
0.590161
0.591337
0.591495
0.591294
0.455143
0.455188
0.456322
0.459272
0.464317
0.471301
0.480468
0.492358
0.507367
0.525633
0.544179
0.559525
0.571512
0.580956
0.588371
0.593938
0.597312
0.5986
0.598752
0.59853
0.433123
0.433165
0.434648
0.438482
0.444988
0.453971
0.465673
0.480646
0.499193
0.521298
0.543348
0.561407
0.575475
0.586601
0.595327
0.601837
0.605619
0.606972
0.607097
0.606855
0.405055
0.405118
0.407194
0.412455
0.421231
0.433153
0.448428
0.467498
0.490461
0.517098
0.543085
0.56409
0.580385
0.593286
0.603419
0.610841
0.614929
0.61627
0.616347
0.616086
0.367887
0.368052
0.371346
0.379238
0.391844
0.40826
0.42863
0.453077
0.481443
0.513293
0.543585
0.567685
0.586287
0.601019
0.612555
0.62075
0.624967
0.626197
0.626204
0.62593
0.315758
0.316752
0.323305
0.336609
0.355873
0.379243
0.406639
0.437883
0.472613
0.510247
0.545061
0.572304
0.593201
0.609694
0.622531
0.631248
0.635344
0.636359
0.636289
0.63601
0.239688
0.247041
0.262201
0.285651
0.314834
0.347521
0.383504
0.422571
0.464352
0.508242
0.547883
0.578462
0.601811
0.620197
0.634239
0.643248
0.647069
0.647857
0.647739
0.647495
0.157961
0.175345
0.199906
0.234128
0.273625
0.315756
0.360379
0.407442
0.456645
0.50743
0.552743
0.587393
0.613661
0.634245
0.649596
0.65846
0.66161
0.662118
0.66203
0.661868
0.0898296
0.110304
0.142626
0.186006
0.234601
0.285623
0.338624
0.393525
0.449997
0.507471
0.55817
0.596604
0.625526
0.647873
0.663796
0.672173
0.674848
0.6753
0.675279
0.675159
0.0340318
0.0561698
0.0940338
0.143881
0.199666
0.258179
0.318597
0.380699
0.444015
0.507864
0.563679
0.605651
0.636977
0.660799
0.677308
0.685591
0.688053
0.688464
0.68847
0.688382
-0.01239
0.0109256
0.0525906
0.107572
0.169139
0.233843
0.300633
0.369139
0.438719
0.508545
0.569236
0.614594
0.648235
0.673606
0.690807
0.699147
0.701675
0.702064
0.702095
0.702031
-0.0517099
-0.0277409
0.0168035
0.0758428
0.142272
0.212246
0.284574
0.358782
0.434096
0.509523
0.574864
0.6235
0.659418
0.686283
0.704327
0.713117
0.715724
0.716109
0.716143
0.716098
-0.0859663
-0.0615793
-0.0147709
0.0476215
0.118161
0.192724
0.269974
0.349346
0.429951
0.51064
0.580433
0.632251
0.670421
0.698815
0.717787
0.727034
0.729839
0.730246
0.730288
0.730263
-0.116669
-0.0919202
-0.0432689
0.0219852
0.0960772
0.17467
0.256341
0.340428
0.425953
0.511645
0.58573
0.640652
0.681002
0.710904
0.730743
0.740516
0.743566
0.744025
0.744075
0.744058
-0.144801
-0.119731
-0.0695054
-0.00177677
0.0754356
0.157604
0.243255
0.331676
0.42183
0.512311
0.590571
0.648512
0.690975
0.722295
0.74302
0.753252
0.756542
0.757091
0.757116
0.7571
-0.171177
-0.145741
-0.0940954
-0.0242098
0.0557904
0.141154
0.230414
0.322836
0.417342
0.512432
0.594787
0.655695
0.700205
0.732891
0.75438
0.765026
0.768501
0.769095
0.769095
0.769072
-0.196183
-0.170383
-0.11745
-0.0456712
0.0368221
0.125057
0.217592
0.313703
0.41231
0.511866
0.598283
0.662153
0.708662
0.742607
0.764698
0.775647
0.779249
0.779867
0.779841
0.7798
-0.220265
-0.194026
-0.140052
-0.0664051
0.0183042
0.109117
0.204629
0.304142
0.406613
0.5105
0.600986
0.667862
0.716356
0.751447
0.774043
0.785163
0.788773
0.789386
0.789328
0.789269
-0.243561
-0.216845
-0.161891
-0.0865948
9.29124e-05
0.0932195
0.191428
0.294072
0.400167
0.508252
0.602842
0.672837
0.723369
0.759554
0.782507
0.793595
0.797184
0.797755
0.797676
0.797599
-0.266216
-0.23906
-0.183073
-0.106345
-0.0178821
0.0773117
0.177944
0.283441
0.392917
0.505054
0.603799
0.677094
0.729809
0.767078
0.790229
0.801158
0.804604
0.805118
0.80501
0.804916
-0.288367
-0.2607
-0.203729
-0.1257
-0.0356627
0.061373
0.164173
0.272249
0.384845
0.500856
0.603801
0.680635
0.735787
0.774208
0.797418
0.807985
0.811166
0.81158
0.811437
0.811329
-0.31007
-0.281786
-0.223919
-0.144674
-0.0532342
0.0454162
0.150142
0.260522
0.375959
0.49562
0.60278
0.683438
0.741396
0.781155
0.804293
0.81424
0.816965
0.817217
0.817047
0.81693
-0.33117
-0.302306
-0.243577
-0.163253
-0.0705783
0.0294939
0.135897
0.248317
0.366301
0.48935
0.600662
0.685442
0.746666
0.788136
0.8112
0.820184
0.822145
0.822132
0.821938
0.821829
-0.351659
-0.322238
-0.2627
-0.181397
-0.0876485
0.0136543
0.121518
0.2357
0.355935
0.482058
0.597384
0.686528
0.751553
0.795326
0.818605
0.826373
0.82704
0.826442
0.826208
0.826162
-0.371606
-0.341555
-0.281275
-0.199087
-0.10439
-0.00202819
0.107081
0.222764
0.34494
0.473795
0.592885
0.686541
0.755905
0.802727
0.826973
0.833743
0.832514
0.83056
0.830066
0.830341
-0.39085
-0.360242
-0.29925
-0.216272
-0.12075
-0.017477
0.0926757
0.209613
0.333424
0.46464
0.587137
0.685291
0.759453
0.810057
0.836428
0.843413
0.840604
0.836259
0.834109
0.834028
-0.409487
-0.378293
-0.316647
-0.232986
-0.136764
-0.0327349
0.0782475
0.196193
0.321323
0.454526
0.580005
0.6825
0.76191
0.816859
0.846475
0.855841
0.853705
0.846617
0.839092
0.82547
-0.427448
-0.395696
-0.333581
-0.249428
-0.15271
-0.048123
0.0633945
0.182041
0.308125
0.442846
0.570885
0.677441
0.762792
0.822552
0.855618
0.869167
0.868216
0.85484
0.834309
0.823724
-0.444565
-0.412602
-0.349867
-0.265406
-0.168235
-0.0633044
0.0483355
0.167469
0.29412
0.429836
0.559793
0.669574
0.761167
0.825922
0.859803
0.8733
0.874251
0.849545
0.782262
0.752238
-0.46018
-0.430277
-0.365195
-0.280446
-0.18254
-0.0777794
0.0333883
0.152706
0.279522
0.415607
0.546633
0.658529
0.755466
0.82618
0.853725
0.862172
0.847951
0.792038
0.722794
0.680329
-0.51496
-0.445857
-0.379054
-0.295677
-0.197281
-0.0930335
0.0184807
0.137462
0.263947
0.399678
0.530752
0.643561
0.741621
0.819171
0.820781
0.820305
0.766524
0.693824
0.616361
0.573277
-0.476612
-0.460688
-0.399737
-0.315261
-0.219105
-0.114899
-0.00441659
0.11393
0.239467
0.37388
0.503231
0.614732
0.705608
0.788766
0.771655
0.653564
0.545443
0.47027
0.395795
0.424972
-0.506954
-0.477903
-0.416067
-0.332438
-0.236321
-0.132236
-0.0214803
0.0962323
0.220713
0.353358
0.47998
0.587302
0.668404
0.712486
0.661058
0.50779
0.377194
0.283949
0.184285
0.233061
-0.530311
-0.49834
-0.435367
-0.351612
-0.255379
-0.151405
-0.0407382
0.0761347
0.199212
0.329458
0.452353
0.553404
0.625413
0.634577
0.524546
0.348754
0.193795
0.0732708
-0.0588214
-0.0266734
-0.553123
-0.519661
-0.455554
-0.370896
-0.274595
-0.170786
-0.0606598
0.0552353
0.176704
0.304149
0.422319
0.515345
0.571711
0.549115
0.387221
0.188556
-0.00337864
-0.172457
-0.36158
-0.380971
-0.575336
-0.54145
-0.476483
-0.391068
-0.294649
-0.191081
-0.0816265
0.0331587
0.152747
0.276969
0.389657
0.474513
0.511007
0.451485
0.256425
0.0439572
-0.174504
-0.364518
-0.606762
-0.903193
-0.597838
-0.56396
-0.49848
-0.412605
-0.316023
-0.212648
-0.103801
0.00982955
0.127414
0.248123
0.354972
0.431257
0.44603
0.335014
0.142507
-0.0691766
-0.274645
-0.447685
-0.517742
-0.596284
-0.621574
-0.587647
-0.52189
-0.435815
-0.339209
-0.236125
-0.127983
-0.0156897
0.0995589
0.2162
0.316784
0.381777
0.371256
0.226451
0.041141
-0.151497
-0.315648
-0.409365
-0.433638
-0.449488
-0.646848
-0.612808
-0.54688
-0.460773
-0.364332
-0.261718
-0.154529
-0.0438851
0.0685959
0.180498
0.274319
0.324815
0.296438
0.125538
-0.0507904
-0.218318
-0.346075
-0.385551
-0.3984
-0.399715
-0.673857
-0.639613
-0.573513
-0.487472
-0.391342
-0.289432
-0.183457
-0.0748057
0.0344585
0.141033
0.22713
0.263072
0.214433
0.0323027
-0.134951
-0.285004
-0.361992
-0.379084
-0.380459
-0.380276
-0.702659
-0.668124
-0.601815
-0.515909
-0.420255
-0.319253
-0.214769
-0.108465
-0.00284211
0.0978793
0.175347
0.199319
0.114192
-0.0528857
-0.211719
-0.335429
-0.372469
-0.37082
-0.36994
-0.369352
-0.732966
-0.698162
-0.63168
-0.545998
-0.450981
-0.351127
-0.248435
-0.144835
-0.0432654
0.0511409
0.119835
0.126644
0.0229444
-0.131956
-0.272543
-0.349381
-0.359862
-0.362599
-0.363304
-0.363047
-0.764229
-0.729276
-0.662851
-0.57751
-0.483335
-0.384895
-0.284299
-0.183781
-0.0866253
0.00117325
0.0610806
0.0527228
-0.0589959
-0.199125
-0.316963
-0.348944
-0.357589
-0.359134
-0.358952
-0.358681
-0.79598
-0.760917
-0.694871
-0.610047
-0.51697
-0.420236
-0.322081
-0.225014
-0.132637
-0.0513089
-0.00182011
-0.0172887
-0.134157
-0.254341
-0.347855
-0.364846
-0.356713
-0.355944
-0.355961
-0.355745
-0.827316
-0.79236
-0.726879
-0.643009
-0.55134
-0.456673
-0.36133
-0.268054
-0.180821
-0.105679
-0.066067
-0.0812081
-0.199733
-0.298047
-0.351438
-0.360877
-0.357477
-0.355691
-0.354916
-0.354627
-0.856687
-0.822431
-0.75789
-0.675474
-0.585679
-0.493508
-0.401389
-0.312219
-0.23037
-0.161376
-0.125423
-0.151484
-0.251198
-0.337998
-0.344308
-0.357589
-0.358574
-0.355546
-0.35437
-0.353798
-0.88247
-0.849289
-0.786771
-0.706257
-0.618945
-0.529802
-0.441391
-0.356654
-0.280167
-0.217512
-0.18157
-0.218605
-0.292098
-0.354026
-0.38363
-0.369149
-0.361974
-0.359417
-0.35846
-0.357761
-0.90254
-0.871076
-0.811442
-0.733935
-0.64985
-0.564409
-0.480244
-0.400322
-0.329105
-0.272776
-0.239234
-0.273144
-0.31877
-0.361877
-0.402365
-0.382316
-0.373426
-0.37301
-0.372234
-0.371392
-0.914648
-0.885882
-0.830016
-0.756612
-0.676887
-0.595995
-0.516728
-0.441995
-0.376126
-0.32567
-0.294764
-0.320836
-0.332767
-0.334922
-0.342473
-0.370198
-0.38721
-0.392
-0.391558
-0.39185
-0.916155
-0.891432
-0.840509
-0.772471
-0.698345
-0.623126
-0.549477
-0.480364
-0.420011
-0.374986
-0.341979
-0.371665
-0.3865
-0.366164
-0.378373
-0.39677
-0.400432
-0.400429
-0.400986
-0.401611
-0.904851
-0.884947
-0.840735
-0.779901
-0.712732
-0.644294
-0.577109
-0.514016
-0.459332
-0.419189
-0.384953
-0.420283
-0.493381
-0.577765
-0.532939
-0.466399
-0.429439
-0.415698
-0.410915
-0.409268
-0.878737
-0.86378
-0.828876
-0.777635
-0.719026
-0.65846
-0.598374
-0.541502
-0.492244
-0.456498
-0.418386
-0.435215
-0.478705
-0.603973
-0.549301
-0.444658
-0.398134
-0.38476
-0.379043
-0.376364
-0.840347
-0.8307
-0.80572
-0.765814
-0.717196
-0.665333
-0.612558
-0.561643
-0.516859
-0.484361
-0.453062
-0.383455
-0.255277
-0.167038
-0.186574
-0.242141
-0.286889
-0.306833
-0.31235
-0.312524
-0.796381
-0.790892
-0.776113
-0.747242
-0.709191
-0.665738
-0.619878
-0.573929
-0.532036
-0.499086
-0.465406
-0.35501
-0.16213
0.0593287
0.0093512
-0.153487
-0.275639
-0.334851
-0.35151
-0.356773
-0.75667
-0.753333
-0.746288
-0.727405
-0.698042
-0.661699
-0.621517
-0.579358
-0.537829
-0.503782
-0.478817
-0.453783
-0.499852
-0.546418
-0.603779
-0.700976
-0.715221
-0.700329
-0.663549
-0.672687
-0.728049
-0.725942
-0.722337
-0.71081
-0.68774
-0.656363
-0.619686
-0.578973
-0.536466
-0.498184
-0.477162
-0.549572
-0.886185
-1.45168
-1.98925
-2.14415
-1.9801
-1.74482
-1.55039
-1.43796
-0.706441
-0.705679
-0.704514
-0.698733
-0.681078
-0.652502
-0.616447
-0.574645
-0.527929
-0.475607
-0.438084
-0.434677
-0.58428
-0.759165
-0.900793
-0.882497
-0.739545
-0.596063
-0.478148
-0.41473
-0.6936
-0.693338
-0.692776
-0.690078
-0.677454
-0.650359
-0.61284
-0.56839
-0.514776
-0.453053
-0.396271
-0.339508
-0.24836
-0.0349533
0.213591
0.472776
0.679652
0.79413
0.851691
0.875949
-0.684554
-0.684392
-0.683837
-0.682716
-0.674836
-0.649952
-0.611247
-0.561815
-0.502944
-0.431018
-0.343751
-0.253073
-0.0410799
0.364621
0.784833
1.19538
1.47841
1.60443
1.65082
1.66029
-0.678931
-0.678695
-0.677986
-0.677355
-0.672905
-0.652537
-0.611811
-0.557847
-0.492251
-0.407545
-0.306053
-0.198102
0.0429424
0.458659
0.896334
1.29299
1.56756
1.69327
1.72749
1.72984
-0.677589
-0.677351
-0.676622
-0.67522
-0.674496
-0.659248
-0.616414
-0.558064
-0.486014
-0.397315
-0.290253
-0.178917
0.0161601
0.372534
0.715546
1.01926
1.22474
1.31681
1.34731
1.35411
-0.679088
-0.679954
-0.682343
-0.686246
-0.688591
-0.671515
-0.62439
-0.563086
-0.487558
-0.394724
-0.291241
-0.189919
-0.0409202
0.24185
0.501179
0.701302
0.83208
0.89952
0.935145
0.948704
-0.680658
-0.681985
-0.684107
-0.687551
-0.68984
-0.67219
-0.632181
-0.574454
-0.496643
-0.401722
-0.304472
-0.213237
-0.0966431
0.121154
0.326509
0.483359
0.596357
0.662388
0.697134
0.709058
-0.704318
-0.703524
-0.690632
-0.65789
-0.626195
-0.635305
-0.639723
-0.592603
-0.510497
-0.412346
-0.322009
-0.244758
-0.156103
0.029107
0.202067
0.337902
0.44363
0.508002
0.53808
0.546169
-0.759259
-0.755393
-0.742334
-0.711493
-0.688927
-0.69335
-0.692435
-0.624257
-0.527694
-0.423811
-0.33613
-0.264532
-0.193101
-0.0500113
0.0950313
0.212122
0.304176
0.360244
0.384372
0.389543
-0.87133
-0.882486
-0.917531
-0.961472
-0.963812
-0.927404
-0.822345
-0.678676
-0.546413
-0.431248
-0.342592
-0.277606
-0.222306
-0.107464
0.011627
0.105024
0.178493
0.221134
0.238059
0.240241
-1.00544
-1.03187
-1.08329
-1.12365
-1.12541
-1.07163
-0.910392
-0.714644
-0.552838
-0.429133
-0.341031
-0.27944
-0.227514
-0.14436
-0.0537239
0.0182359
0.0739893
0.104951
0.117586
0.117738
-1.0026
-1.02287
-1.0603
-1.09151
-1.09272
-1.03367
-0.867175
-0.680174
-0.525913
-0.408112
-0.327113
-0.271739
-0.225802
-0.166391
-0.101054
-0.0466897
-0.00593568
0.0168141
0.0250682
0.0250016
-0.79398
-0.815072
-0.851461
-0.887483
-0.895038
-0.837637
-0.703855
-0.569731
-0.455465
-0.36584
-0.301579
-0.25704
-0.225392
-0.184829
-0.139078
-0.0996478
-0.0702609
-0.0541455
-0.0487376
-0.0500854
-0.449993
-0.464388
-0.492105
-0.52573
-0.546477
-0.532358
-0.481875
-0.419655
-0.36135
-0.308851
-0.266267
-0.235825
-0.215786
-0.194326
-0.164769
-0.140244
-0.12301
-0.115387
-0.113642
-0.115332
-0.132809
-0.140224
-0.158444
-0.188621
-0.224607
-0.252014
-0.269416
-0.273731
-0.265729
-0.247983
-0.228074
-0.211111
-0.202081
-0.192329
-0.182218
-0.174989
-0.172297
-0.173459
-0.174642
-0.175613
0.0543988
0.0503864
0.037462
0.01041
-0.032411
-0.0842894
-0.130067
-0.16484
-0.185942
-0.193834
-0.190705
-0.182528
-0.17694
-0.181
-0.188343
-0.197214
-0.206392
-0.214344
-0.217171
-0.217531
0.121736
0.119242
0.109557
0.0869747
0.0485756
-0.000558967
-0.0515139
-0.0966559
-0.130937
-0.152912
-0.161718
-0.15975
-0.156774
-0.170533
-0.188671
-0.205251
-0.220112
-0.229037
-0.231501
-0.231674
0.124614
0.122893
0.1159
0.0990962
0.0698177
0.0306296
-0.0135746
-0.0567757
-0.0949407
-0.125504
-0.145703
-0.154907
-0.159539
-0.174797
-0.190903
-0.205454
-0.21691
-0.222485
-0.22377
-0.224042
0.103322
0.102184
0.0974154
0.0857472
0.0649928
0.0360163
0.000835604
-0.0363903
-0.0731934
-0.108476
-0.14077
-0.170145
-0.187964
-0.192584
-0.19522
-0.200572
-0.20484
-0.206644
-0.207059
-0.207461
0.0774071
0.0766939
0.0735751
0.0657669
0.0514993
0.0307046
0.00394467
-0.0265211
-0.0596066
-0.095996
-0.137478
-0.185739
-0.21508
-0.205262
-0.196006
-0.190461
-0.189689
-0.189321
-0.189209
-0.189469
0.0541623
0.0537027
0.0517503
0.0466999
0.0371362
0.0225781
0.00295206
-0.0208156
-0.0485905
-0.0821708
-0.123448
-0.17389
-0.198502
-0.184717
-0.171905
-0.168314
-0.168085
-0.168364
-0.168442
-0.168604
0.0358973
0.0356205
0.0344102
0.0312149
0.0249411
0.0150146
0.00109495
-0.0165213
-0.0376897
-0.063207
-0.0947868
-0.127989
-0.139247
-0.13455
-0.132715
-0.136314
-0.140377
-0.142627
-0.143214
-0.143289
0.0221745
0.0220434
0.0213575
0.0194964
0.0156583
0.0092428
-7.18091e-05
-0.0122218
-0.0269219
-0.0440996
-0.0594346
-0.0695788
-0.0703361
-0.0743172
-0.0858088
-0.0980046
-0.106755
-0.110991
-0.112101
-0.112077
0.012358
0.0123119
0.0119703
0.0110293
0.00892458
0.00520793
-0.0004374
-0.00793273
-0.016694
-0.0251307
-0.0273077
-0.0174754
-0.00485214
-0.0222445
-0.0430625
-0.059155
-0.0688513
-0.0732657
-0.0746256
-0.0746088
0.00552834
0.00555141
0.00545381
0.00510349
0.00420107
0.0024612
-0.000337327
-0.00400414
-0.00805939
-0.0108086
-0.00669329
0.00734036
0.0207928
0.00340084
-0.0137307
-0.0260904
-0.0327415
-0.0354899
-0.0365576
-0.0367389
0.000413345
0.000468802
0.000466054
0.000640191
0.000920547
0.000965933
0.000687328
3.68535e-05
-0.000841702
-0.00144502
-0.00042072
0.00307029
0.00752955
0.00246689
-0.000235005
-0.00284152
-0.00267007
-0.00340266
-0.00486654
-0.00502074
-0.135553
0.0303532
0.223751
0.392493
0.526903
0.632231
0.719038
0.793017
0.826916
0.803688
0.164148
0.284009
0.412855
0.524014
0.617475
0.69462
0.757054
0.801432
0.823647
0.835829
0.380951
0.46308
0.551114
0.628717
0.695377
0.751126
0.795484
0.827931
0.851453
0.869508
0.540421
0.599261
0.660195
0.716831
0.766007
0.80779
0.842144
0.869588
0.89226
0.910604
0.66492
0.707666
0.753302
0.796765
0.835185
0.86876
0.897526
0.921498
0.941809
0.95967
0.768655
0.801317
0.839211
0.874542
0.906996
0.936109
0.961567
0.982985
1.00079
1.01815
0.86084
0.889411
0.923236
0.955247
0.985091
1.01218
1.03586
1.05554
1.07101
1.08809
0.94921
0.978338
1.01226
1.04423
1.07377
1.1003
1.12313
1.14159
1.15494
1.17197
1.04439
1.07755
1.11415
1.14768
1.17769
1.20384
1.22577
1.24303
1.25488
1.27228
1.15931
1.19711
1.23572
1.26994
1.29926
1.32399
1.34435
1.36022
1.37168
1.38975
1.3042
1.34273
1.37885
1.40952
1.43519
1.45727
1.47632
1.49184
1.50426
1.52225
1.47925
1.51087
1.53703
1.55947
1.57944
1.59815
1.61586
1.63234
1.64768
1.66575
1.66785
1.68505
1.70008
1.7163
1.7322
1.74673
1.75993
1.77385
1.79139
1.81154
1.84956
1.85909
1.87063
1.88144
1.89072
1.9003
1.91108
1.92244
1.9338
1.94916
2.05679
2.06045
2.0455
2.03069
2.02441
2.03008
2.04856
2.07887
2.11105
2.1377
2.36311
2.22824
2.1516
2.10921
2.09179
2.09575
2.12315
2.17957
2.28218
2.50655
0.678938
0.67681
0.672327
0.663705
0.651485
0.639361
0.629141
0.621258
0.615657
0.612427
0.612102
0.614868
0.619993
0.627231
0.63663
0.648176
0.660832
0.67187
0.677983
0.681039
0.603384
0.609231
0.615566
0.620061
0.622535
0.622216
0.619488
0.61569
0.612199
0.609964
0.609848
0.612074
0.615759
0.620064
0.623883
0.625773
0.624842
0.621365
0.616204
0.609583
0.594946
0.597242
0.600648
0.603647
0.605727
0.607229
0.607994
0.607691
0.606686
0.605831
0.606039
0.607497
0.609336
0.610659
0.610851
0.60997
0.608427
0.606096
0.602836
0.599917
0.589417
0.590503
0.592338
0.594719
0.596748
0.598183
0.599214
0.599982
0.600406
0.600659
0.601188
0.602029
0.602654
0.60274
0.602341
0.601503
0.600041
0.597963
0.595881
0.594499
0.584189
0.584851
0.585961
0.58767
0.589458
0.591098
0.592406
0.59344
0.594348
0.595174
0.595946
0.596537
0.596761
0.596617
0.596067
0.595024
0.593605
0.592069
0.590756
0.589977
0.579182
0.579642
0.58043
0.581732
0.583226
0.584753
0.586232
0.58755
0.588715
0.589812
0.590777
0.591391
0.591572
0.591325
0.590648
0.589673
0.58856
0.587436
0.586526
0.58601
0.574315
0.574659
0.575271
0.576344
0.577646
0.579031
0.580485
0.581954
0.583361
0.584688
0.585856
0.586602
0.586822
0.58658
0.586005
0.585247
0.584411
0.583556
0.58289
0.582513
0.569532
0.569799
0.570294
0.571208
0.572386
0.573695
0.575107
0.576622
0.578201
0.579775
0.581191
0.582125
0.582478
0.582398
0.582035
0.5815
0.58087
0.580245
0.57976
0.579473
0.564751
0.564963
0.565375
0.566179
0.567278
0.56854
0.569946
0.571511
0.573226
0.575044
0.576756
0.577961
0.578562
0.578729
0.578603
0.578292
0.577872
0.577441
0.577098
0.576873
0.559883
0.560054
0.560407
0.561138
0.562192
0.563435
0.564871
0.566524
0.568402
0.570482
0.572547
0.57412
0.575053
0.575515
0.575646
0.575571
0.575368
0.575113
0.574886
0.574708
0.554839
0.554976
0.555288
0.555975
0.557014
0.558283
0.559789
0.561572
0.563666
0.566066
0.568563
0.570593
0.571925
0.572729
0.573155
0.573331
0.573343
0.573259
0.573133
0.572989
0.549527
0.549637
0.549921
0.55059
0.551648
0.552989
0.554608
0.556576
0.558954
0.561759
0.564788
0.567367
0.569169
0.57037
0.571131
0.571582
0.571819
0.571908
0.571869
0.571752
0.54385
0.543937
0.544205
0.544879
0.545993
0.547447
0.549236
0.551457
0.554198
0.557514
0.561194
0.564433
0.566793
0.568454
0.569592
0.570365
0.570855
0.571107
0.571146
0.57105
0.537697
0.537764
0.538025
0.538728
0.539935
0.54155
0.543571
0.546125
0.549329
0.55328
0.557755
0.561787
0.564811
0.567013
0.568586
0.569721
0.570488
0.570919
0.571031
0.570952
0.530938
0.530985
0.531248
0.532001
0.533342
0.535174
0.537502
0.54048
0.544269
0.549005
0.554446
0.55943
0.563242
0.566086
0.56817
0.569709
0.570799
0.571423
0.571608
0.571543
0.523416
0.523445
0.523712
0.524539
0.526057
0.528172
0.53089
0.534409
0.538929
0.54463
0.551243
0.557369
0.562115
0.565713
0.568405
0.57043
0.571885
0.572715
0.572972
0.572917
0.514924
0.514938
0.515213
0.516139
0.517893
0.520354
0.523577
0.527779
0.533208
0.540094
0.548126
0.555615
0.561469
0.565953
0.569362
0.571968
0.573838
0.574897
0.575227
0.575178
0.505165
0.505149
0.50548
0.506548
0.508588
0.511508
0.51537
0.520429
0.526992
0.535335
0.54508
0.554189
0.561349
0.566878
0.571127
0.574411
0.576766
0.578072
0.578475
0.578428
0.493833
0.493793
0.49417
0.495433
0.497844
0.501354
0.506029
0.512174
0.520156
0.530291
0.542099
0.553124
0.561809
0.568561
0.573798
0.577858
0.580765
0.582338
0.582809
0.582762
0.480441
0.480374
0.480831
0.482347
0.485245
0.489524
0.495252
0.50279
0.512562
0.524903
0.539186
0.552456
0.562905
0.571063
0.577449
0.582407
0.585927
0.587772
0.588303
0.588248
0.46433
0.464235
0.464818
0.466689
0.47024
0.475546
0.482671
0.492026
0.504077
0.519138
0.536366
0.552242
0.564705
0.574458
0.582143
0.588116
0.5923
0.59441
0.594983
0.594914
0.444555
0.444432
0.44522
0.447608
0.452077
0.458812
0.467843
0.47962
0.4946
0.513014
0.533715
0.55256
0.567278
0.578808
0.587911
0.595021
0.599883
0.602224
0.602811
0.602721
0.419678
0.41954
0.420664
0.423855
0.429717
0.438545
0.450281
0.465352
0.484112
0.50662
0.531357
0.553517
0.570696
0.584152
0.5948
0.603092
0.608595
0.611093
0.611654
0.611534
0.387371
0.387256
0.388996
0.39358
0.401754
0.413846
0.429549
0.449142
0.472739
0.500165
0.529487
0.555248
0.575027
0.590509
0.602764
0.612237
0.618246
0.620779
0.621265
0.621111
0.343444
0.343495
0.346592
0.354079
0.366545
0.383957
0.405538
0.431225
0.460842
0.493998
0.528367
0.557911
0.580354
0.597877
0.611718
0.622257
0.628518
0.630911
0.631274
0.631087
0.280052
0.281276
0.288847
0.302814
0.32313
0.349009
0.378869
0.412318
0.449061
0.488599
0.528289
0.561655
0.586705
0.60618
0.621441
0.632723
0.638929
0.640944
0.641137
0.640929
0.204941
0.206737
0.221229
0.245217
0.276519
0.312397
0.351277
0.39298
0.437331
0.48386
0.529652
0.567661
0.595987
0.617846
0.634704
0.64665
0.652558
0.654252
0.654399
0.654279
0.127484
0.13374
0.155137
0.189428
0.231175
0.276758
0.324616
0.374621
0.426653
0.480267
0.532302
0.575062
0.606679
0.630964
0.64959
0.66168
0.666822
0.668014
0.668103
0.668057
0.0641099
0.0726989
0.0986762
0.14002
0.189957
0.243809
0.299757
0.357527
0.416888
0.477324
0.535334
0.582546
0.617208
0.643527
0.663127
0.675241
0.680085
0.681184
0.681302
0.681313
0.012574
0.0217616
0.0513033
0.0979064
0.154019
0.214537
0.277333
0.341966
0.408024
0.474848
0.538523
0.589972
0.627473
0.655728
0.676462
0.688845
0.693465
0.694517
0.69471
0.69477
-0.0305209
-0.0210532
0.0109435
0.061556
0.122742
0.188796
0.2574
0.328034
0.400117
0.472847
0.541885
0.597396
0.637662
0.667831
0.68969
0.702416
0.707163
0.708428
0.708647
0.708739
-0.0675453
-0.0579736
-0.0241411
0.029681
0.0950656
0.165841
0.239511
0.315472
0.393034
0.471253
0.545366
0.604786
0.647749
0.679801
0.702875
0.716273
0.721347
0.722711
0.722927
0.723021
-0.100184
-0.0905868
-0.0553507
0.001179
0.0700827
0.144936
0.223099
0.303867
0.386459
0.469804
0.548756
0.611959
0.657558
0.691493
0.715775
0.729907
0.735377
0.736847
0.737057
0.737132
-0.129734
-0.12011
-0.0837244
-0.024858
0.0470647
0.125493
0.207656
0.292786
0.380032
0.468231
0.55184
0.61872
0.666881
0.702601
0.728063
0.742904
0.748791
0.750354
0.750548
0.750599
-0.157092
-0.147434
-0.110057
-0.0491473
0.025451
0.107046
0.19279
0.281902
0.373487
0.466297
0.554421
0.624897
0.67555
0.71299
0.739541
0.755022
0.761332
0.762969
0.763144
0.763168
-0.182836
-0.173125
-0.134826
-0.0721931
0.00481948
0.0892462
0.178223
0.270978
0.366598
0.463801
0.55634
0.630382
0.683483
0.722574
0.750142
0.766107
0.77269
0.77439
0.77455
0.774541
-0.207465
-0.197625
-0.15845
-0.0942996
-0.0151129
0.0718442
0.163743
0.259825
0.35921
0.460612
0.557494
0.635122
0.690667
0.731328
0.759779
0.776106
0.782825
0.784543
0.784688
0.784648
-0.231257
-0.22121
-0.181312
-0.115661
-0.0345428
0.0546708
0.149208
0.248335
0.35122
0.45663
0.5578
0.639078
0.697126
0.739329
0.768525
0.78508
0.791793
0.793481
0.793605
0.79354
-0.254325
-0.244085
-0.203474
-0.136425
-0.0535981
0.0376427
0.134547
0.236441
0.342559
0.451772
0.557186
0.642236
0.702914
0.746705
0.776533
0.793137
0.799744
0.801356
0.801436
0.801346
-0.27686
-0.266343
-0.224992
-0.156689
-0.0723372
0.0207085
0.119726
0.224115
0.333201
0.446
0.55559
0.644567
0.7081
0.753599
0.783986
0.800471
0.806825
0.808294
0.808325
0.808214
-0.298817
-0.288043
-0.245997
-0.176509
-0.0907795
0.00386394
0.104761
0.211377
0.323153
0.439288
0.552956
0.646024
0.712734
0.760173
0.791102
0.807247
0.813163
0.814407
0.814366
0.814237
-0.320271
-0.30921
-0.266425
-0.195881
-0.108919
-0.0128715
0.0896795
0.198271
0.312451
0.431641
0.549233
0.646538
0.716818
0.766572
0.798143
0.813719
0.81887
0.819744
0.81962
0.819487
-0.341069
-0.329791
-0.286275
-0.214768
-0.126719
-0.0294366
0.0745375
0.184856
0.301156
0.423102
0.544386
0.646022
0.72029
0.772886
0.805441
0.820312
0.824281
0.824466
0.82419
0.824075
-0.361353
-0.349747
-0.305546
-0.233161
-0.144157
-0.0458002
0.059418
0.171203
0.289344
0.413738
0.538408
0.644365
0.723013
0.779093
0.813285
0.827681
0.83007
0.828907
0.828187
0.828115
-0.380967
-0.369061
-0.324215
-0.251026
-0.16116
-0.0618832
0.0443959
0.157428
0.277117
0.403604
0.531326
0.641448
0.724788
0.785001
0.821729
0.836564
0.837593
0.83428
0.832044
0.831332
-0.399975
-0.387782
-0.342232
-0.268316
-0.177698
-0.0776211
0.0295507
0.143604
0.264582
0.392829
0.523197
0.637151
0.725361
0.790233
0.830335
0.847169
0.848485
0.843459
0.837147
0.829171
-0.418298
-0.405867
-0.359693
-0.285186
-0.193975
-0.0932782
0.0145597
0.12935
0.251311
0.380937
0.513523
0.630962
0.724295
0.794532
0.838575
0.859021
0.863271
0.857894
0.846935
0.84231
-0.435891
-0.423241
-0.376583
-0.301611
-0.210004
-0.10885
-0.000567856
0.114642
0.237253
0.367803
0.502089
0.622468
0.720766
0.797105
0.844527
0.868084
0.874498
0.872038
0.833914
0.782267
-0.452474
-0.439125
-0.392755
-0.317524
-0.225887