/*--------------------------------*- C++ -*----------------------------------*\
  =========                 |
  \\      /  F ield         | OpenFOAM: The Open Source CFD Toolbox
   \\    /   O peration     | Website:  https://openfoam.org
    \\  /    A nd           | Version:  10
     \\/     M anipulation  |
\*---------------------------------------------------------------------------*/
FoamFile
{
    format      ascii;
    class       surfaceScalarField;
    location    "66";
    object      phi;
}
// * * * * * * * * * * * * * * * * * * * * * * * * * * * * * * * * * * * * * //

dimensions      [0 3 -1 0 0 0 0];

internalField   nonuniform List<scalar> 
17370
(
-0.0916062
0.0960093
0.284608
-0.0775945
0.0594198
0.36495
-0.0430419
0.031622
0.427588
-0.022318
0.0162655
0.505304
-0.0116727
0.00879923
0.602276
-0.00658852
0.00510388
0.720542
-0.00386712
0.00298683
0.863787
-0.00221375
0.00163528
1.03603
-0.00110332
0.000681787
1.24292
-0.000269675
-0.000124923
1.49159
0.000514096
-0.000929168
1.49161
0.00133493
-0.00184017
1.2432
0.00238983
-0.00313077
1.03638
0.00398602
-0.00520328
0.864124
0.0066766
-0.00887787
0.721259
0.011741
-0.0163186
0.603792
0.022355
-0.0316412
0.508725
0.0430418
-0.0594083
0.432535
0.0775872
-0.0960028
0.365191
0.0916213
0.19739
-0.127093
0.0880248
0.0390677
-0.364357
0.354032
-0.0714733
0.0817984
-0.446654
0.454257
-0.0791676
0.0715648
-0.521012
0.529112
-0.0637102
0.0556098
-0.612992
0.620762
-0.0482216
0.0404512
-0.727165
0.733687
-0.0338385
0.0273167
-0.867582
0.872436
-0.0221116
0.0172576
-1.03857
1.04191
-0.0135573
0.0102158
-1.24472
1.24713
-0.00766279
0.00525415
-1.49284
1.49486
-0.00328725
0.00126991
-1.49269
1.49452
0.000552071
-0.0023743
-1.2441
1.24602
0.00434995
-0.00626334
-1.03761
1.04008
0.00859954
-0.0110771
-0.866186
0.86981
0.0143316
-0.0179559
-0.724593
0.729744
0.0227383
-0.0278897
-0.609063
0.61563
0.0343606
-0.0409283
-0.515122
0.522456
0.0486464
-0.0559802
-0.43988
0.447655
0.0639998
-0.071775
-0.374705
0.377355
0.0792652
-0.0819153
-0.256894
0.224431
0.0715648
-0.0391014
-0.0688147
0.0592047
0.00960995
-0.0520971
0.0589203
-0.374841
0.368018
-0.0580701
0.0542261
-0.45395
0.457794
-0.0487375
0.0441766
-0.527622
0.532183
-0.0396248
0.0357268
-0.620807
0.624705
-0.031511
0.0275126
-0.734665
0.738664
-0.0231515
0.0192599
-0.873962
0.877854
-0.0152099
0.0117482
-1.04337
1.04683
-0.00822362
0.00518639
-1.24866
1.25169
-0.00197414
-0.00101074
-1.49695
1.49993
0.00397313
-0.00712378
-1.49742
1.50057
0.0100704
-0.0134711
-1.25006
1.25346
0.0168048
-0.0207071
-1.04564
1.04954
0.0244678
-0.0286996
-0.877128
0.88136
0.0325938
-0.036707
-0.738974
0.743087
0.0405204
-0.0449889
-0.625962
0.630431
0.0494803
-0.0549008
-0.535009
0.540429
0.0586658
-0.0594225
-0.458068
0.458825
0.052469
-0.0320733
-0.336752
0.316356
0.00967619
-0.0686547
0.0589785
-0.0534178
0.0493087
0.00410909
-0.0332271
0.0436434
-0.358577
0.348161
-0.0473131
0.0467221
-0.45959
0.460181
-0.0437899
0.0405742
-0.536144
0.539359
-0.0368935
0.0335351
-0.628409
0.631767
-0.0298966
0.0266505
-0.742049
0.745295
-0.0231913
0.0199876
-0.881353
0.884557
-0.0163873
0.0130289
-1.05026
1.05362
-0.00932265
0.00591189
-1.25496
1.25837
-0.0021153
-0.0015051
-1.50329
1.50691
0.00509324
-0.00879651
-1.50406
1.50776
0.01208
-0.015611
-1.25701
1.26055
0.018788
-0.0221774
-1.05325
1.05664
0.0251942
-0.0284683
-0.884962
0.888236
0.0315651
-0.0350565
-0.746764
0.750255
0.0382903
-0.0418413
-0.634545
0.638096
0.0449447
-0.0477509
-0.544567
0.547373
0.0482111
-0.0443598
-0.456933
0.453082
0.0337207
-0.0163925
-0.297027
0.279699
0.00418253
-0.0531251
0.0489425
-0.0461421
0.0435896
0.00255244
-0.0230254
0.0333636
-0.337579
0.327241
-0.039087
0.0400287
-0.459937
0.458996
-0.038771
0.0364379
-0.54202
0.544354
-0.0337898
0.0312375
-0.634741
0.637293
-0.0282532
0.0253979
-0.748387
0.751243
-0.0221517
0.0191297
-0.88762
0.890642
-0.0157696
0.0126272
-1.0568
1.05995
-0.00906121
0.00565345
-1.26177
1.26518
-0.00173602
-0.00206578
-1.51064
1.51444
0.00582582
-0.00961699
-1.51154
1.51533
0.0128555
-0.0161907
-1.26399
1.26733
0.0190949
-0.0221792
-1.05984
1.06292
0.0249541
-0.027951
-0.891423
0.89442
0.0306015
-0.0333825
-0.753425
0.756206
0.0357644
-0.0382397
-0.641041
0.643516
0.0404248
-0.0414879
-0.5492
0.550263
0.0403433
-0.0343238
-0.447944
0.441925
0.02366
-0.0103919
-0.264494
0.251226
0.00264359
-0.0456938
0.0430502
-0.0414747
0.0396782
0.00179649
-0.0169168
0.0261863
-0.317386
0.308116
-0.0327666
0.0348753
-0.457444
0.455335
-0.0344305
0.0327232
-0.54639
0.548098
-0.0304858
0.0283482
-0.639613
0.64175
-0.0258991
0.0235097
-0.753852
0.756242
-0.0206824
0.0179244
-0.893509
0.896267
-0.0147276
0.0116817
-1.063
1.06604
-0.00820484
0.00487949
-1.26851
1.27183
-0.00103136
-0.00272078
-1.51821
1.52196
0.0064191
-0.0101079
-1.51907
1.52276
0.0132184
-0.0164029
-1.27059
1.27378
0.0191461
-0.0219893
-1.06595
1.06879
0.0244274
-0.026931
-0.897193
0.899697
0.0290559
-0.0312442
-0.758634
0.760823
0.0331645
-0.0351788
-0.645732
0.647746
0.0366706
-0.0368497
-0.550831
0.55101
0.0344293
-0.0274155
-0.435313
0.428299
0.0177093
-0.00749626
-0.239627
0.229414
0.00190801
-0.0408347
0.0389266
-0.0381327
0.0367858
0.00134697
-0.012912
0.0208908
-0.299494
0.291516
-0.0276368
0.0305423
-0.452795
0.44989
-0.0307346
0.0295975
-0.549545
0.550682
-0.0275855
0.025646
-0.643818
0.645758
-0.0234187
0.021263
-0.758497
0.760653
-0.018739
0.0162561
-0.898831
0.901314
-0.0133202
0.0104507
-1.06896
1.07183
-0.00710664
0.0038784
-1.27508
1.2783
-0.000134954
-0.00350112
-1.52564
1.52927
0.0070705
-0.0106134
-1.52636
1.5299
0.0135726
-0.0165505
-1.27688
1.27986
0.0190401
-0.0215316
-1.0715
1.07399
0.0236145
-0.0257331
-0.901995
0.904114
0.027555
-0.0294507
-0.762849
0.764745
0.0311151
-0.0328593
-0.649602
0.651346
0.0336818
-0.0331189
-0.550821
0.550258
0.029768
-0.0224283
-0.421065
0.413725
0.0138887
-0.0057997
-0.220364
0.212275
0.00148292
-0.0372581
0.0357752
-0.0356098
0.0345741
0.00103571
-0.0100812
0.0168306
-0.284175
0.277425
-0.0233216
0.0266856
-0.446733
0.443369
-0.0274516
0.0267448
-0.551595
0.552302
-0.0249643
0.0231668
-0.647663
0.649461
-0.0210877
0.0190658
-0.762741
0.764763
-0.016687
0.014353
-0.90366
0.905994
-0.0116079
0.00891663
-1.07454
1.07723
-0.00575137
0.00266366
-1.28142
1.28451
0.000938797
-0.00443902
-1.53281
1.53631
0.00785582
-0.0112111
-1.53334
1.5367
0.0139662
-0.0166801
-1.28271
1.28543
0.0189049
-0.021103
-1.07638
1.07858
0.0229416
-0.0248163
-0.906122
0.907997
0.0264235
-0.0280909
-0.766516
0.768183
0.0295474
-0.0309589
-0.652942
0.654354
0.0312737
-0.0299816
-0.549345
0.548053
0.0260041
-0.0187318
-0.406394
0.399121
0.0112781
-0.00467748
-0.205
0.1984
0.00120112
-0.0344497
0.0332486
-0.0336648
0.0328594
0.00080535
-0.00798204
0.0136541
-0.271243
0.26557
-0.0196641
0.0232292
-0.439892
0.436327
-0.0244745
0.0240141
-0.552914
0.553375
-0.0225047
0.0208162
-0.651251
0.65294
-0.018833
0.0169004
-0.766738
0.76867
-0.0146224
0.0123833
-0.908218
0.910457
-0.00974584
0.00716757
-1.07979
1.08237
-0.00414731
0.00119952
-1.28748
1.29043
0.0022387
-0.00557384
-1.53971
1.54304
0.00880781
-0.0119434
-1.53992
1.54306
0.0144816
-0.0169509
-1.28802
1.29049
0.0189583
-0.0209245
-1.08072
1.08269
0.0225551
-0.0242142
-0.909782
0.911441
0.0256376
-0.0271144
-0.769746
0.771223
0.028378
-0.0294104
-0.655556
0.656589
0.0293529
-0.0273897
-0.54643
0.544467
0.0230046
-0.0159921
-0.391974
0.384962
0.00944534
-0.00390247
-0.192379
0.186836
0.00100647
-0.0321574
0.031151
-0.0321518
0.0315244
0.000627386
-0.00636449
0.0111152
-0.260386
0.255635
-0.0165361
0.0201045
-0.432757
0.429189
-0.0216754
0.0214408
-0.553754
0.553989
-0.0201644
0.0185382
-0.654643
0.656269
-0.0166117
0.0147288
-0.770575
0.772457
-0.0125106
0.0103321
-0.912594
0.914773
-0.00776754
0.00526385
-1.08484
1.08734
-0.0023388
-0.000494268
-1.29326
1.29609
0.00378726
-0.00695627
-1.54626
1.54943
0.0100003
-0.0129205
-1.54606
1.54898
0.0152616
-0.0175161
-1.29286
1.29511
0.0193249
-0.0210702
-1.08462
1.08637
0.0225049
-0.0239661
-0.91302
0.914481
0.0252247
-0.0265276
-0.772604
0.773907
0.027644
-0.0282572
-0.657403
0.658016
0.0278286
-0.0253001
-0.542237
0.539708
0.0206642
-0.0139792
-0.378123
0.371438
0.00814956
-0.00336235
-0.18171
0.176922
0.000871596
-0.0302225
0.0293509
-0.0309764
0.030493
0.000483392
-0.00506355
0.00901937
-0.251306
0.24735
-0.0138053
0.0172272
-0.425698
0.422277
-0.0189827
0.0189386
-0.554166
0.55421
-0.0178593
0.0162677
-0.657941
0.659532
-0.0143647
0.0124977
-0.774326
0.776192
-0.0102988
0.00814472
-0.916857
0.919011
-0.00561839
0.00316261
-1.08974
1.09219
-0.000308203
-0.00244931
-1.29883
1.30158
0.00562018
-0.00863953
-1.55248
1.5555
0.0115076
-0.0142272
-1.55177
1.55449
0.0163806
-0.0184258
-1.29727
1.29931
0.0200403
-0.021571
-1.0881
1.08963
0.0228199
-0.0240997
-0.915871
0.917151
0.0252102
-0.0263549
-0.775121
0.776265
0.0272811
-0.0275136
-0.658433
0.658665
0.026688
-0.0236799
-0.536956
0.533948
0.0188912
-0.0125262
-0.364932
0.358567
0.00724259
-0.00299112
-0.172436
0.168184
0.000780467
-0.0285346
0.0277541
-0.0300769
0.0297152
0.000361692
-0.0039743
0.0072318
-0.243766
0.240508
-0.0113704
0.0145354
-0.418994
0.415829
-0.0163495
0.0164587
-0.554222
0.554113
-0.0154639
0.0139452
-0.661161
0.66268
-0.0120387
0.0101559
-0.778056
0.779939
-0.00793876
0.00577433
-0.921075
0.92324
-0.00324922
0.000808384
-1.09455
1.09699
0.00201392
-0.0047149
-1.30425
1.30695
0.00779349
-0.010689
-1.55841
1.56131
0.0134014
-0.0159332
-1.55709
1.55962
0.0179052
-0.0197471
-1.30126
1.3031
0.0211721
-0.0224926
-1.09118
1.0925
0.0235607
-0.0246658
-0.918362
0.919467
0.025632
-0.0266077
-0.777315
0.778291
0.0272749
-0.0272174
-0.65877
0.658712
0.0259512
-0.0225168
-0.53074
0.527305
0.0176201
-0.0115206
-0.35236
0.346261
0.00663247
-0.00274807
-0.164146
0.160262
0.000722862
-0.0270122
0.0262893
-0.0294134
0.0291602
0.000253197
-0.00302006
0.00564739
-0.237585
0.234958
-0.00913866
0.0119634
-0.41285
0.410025
-0.0137218
0.0139129
-0.554011
0.55382
-0.0129604
0.0114864
-0.664258
0.665732
-0.00955358
0.00762521
-0.781827
0.783755
-0.00535407
0.00314521
-0.925318
0.927527
-0.000584086
-0.00187986
-1.09933
1.1018
0.00470412
-0.00738138
-1.30956
1.31224
0.0103967
-0.013191
-1.56411
1.5669
0.0157634
-0.0181167
-1.56202
1.56438
0.0199133
-0.021557
-1.30483
1.30648
0.0227939
-0.0238991
-1.09386
1.09497
0.0247814
-0.0257106
-0.920503
0.921432
0.0265341
-0.0273378
-0.779162
0.779966
0.0277145
-0.0273737
-0.65851
0.658169
0.0256583
-0.0218097
-0.523684
0.519836
0.0168047
-0.010887
-0.340288
0.33437
0.00626009
-0.00260683
-0.156523
0.15287
0.000691966
-0.0255922
0.0249002
-0.0289634
0.0288131
0.000150261
-0.00213715
0.00417327
-0.232644
0.230608
-0.0070126
0.00942703
-0.407425
0.40501
-0.0110215
0.0112154
-0.553687
0.553493
-0.0102714
0.00880334
-0.667302
0.66877
-0.00681734
0.00481427
-0.785694
0.787697
-0.00245443
0.000169959
-0.929652
0.931936
0.00247243
-0.00499227
-1.10418
1.1067
0.00785629
-0.0105412
-1.31484
1.31752
0.0135241
-0.0162399
-1.56961
1.57232
0.018688
-0.0208713
-1.56661
1.56879
0.0224945
-0.0239386
-1.308
1.30945
0.0249822
-0.02586
-1.09614
1.09702
0.026542
-0.027278
-0.922279
0.923015
0.0279483
-0.0286071
-0.780651
0.78131
0.0286689
-0.0279503
-0.657614
0.656895
0.0257842
-0.021527
-0.515827
0.51157
0.0163898
-0.0105613
-0.32854
0.322712
0.0060791
-0.00254678
-0.149307
0.145775
0.00068231
-0.0242239
0.0235416
-0.0287188
0.0286727
4.61327e-05
-0.0012767
0.0027365
-0.228874
0.227415
-0.00491002
0.00685062
-0.402854
0.400913
-0.00817752
0.00829233
-0.553409
0.553294
-0.00731153
0.00581382
-0.670373
0.671871
-0.00373734
0.00162659
-0.789715
0.791826
0.000862366
-0.0032669
-0.934141
0.936546
0.00602632
-0.00863995
-1.10914
1.11175
0.0115835
-0.0143108
-1.32014
1.32287
0.0172935
-0.0199536
-1.57495
1.57761
0.0222913
-0.0243105
-1.57084
1.57286
0.025759
-0.0269955
-1.31076
1.312
0.0278343
-0.0284767
-1.098
1.09864
0.0289511
-0.029482
-0.923666
0.924197
0.0299872
-0.0304377
-0.781775
0.782226
0.0302082
-0.0290376
-0.65595
0.654779
0.0263825
-0.0216843
-0.507162
0.502463
0.0163594
-0.010513
-0.316927
0.31108
0.00606584
-0.00255746
-0.142287
0.138779
0.000691258
-0.0228665
0.0221753
-0.0286823
0.0287466
-6.43391e-05
-0.000392384
0.00127159
-0.226257
0.225378
-0.00275239
0.00415436
-0.399263
0.397861
-0.00511036
0.00505994
-0.553348
0.553399
-0.00398344
0.00240148
-0.673556
0.675138
-0.000198945
-0.00206006
-0.793956
0.796215
0.00472543
-0.0072882
-0.938868
0.941431
0.0102127
-0.0129619
-1.11429
1.11704
0.0160278
-0.0188311
-1.32553
1.32833
0.0218425
-0.0244637
-1.58019
1.58281
0.0266977
-0.0285517
-1.57475
1.5766
0.029821
-0.0308439
-1.31308
1.31411
0.0314717
-0.0318708
-1.09941
1.09981
0.0321275
-0.0324373
-0.924638
0.924947
0.0327534
-0.0329235
-0.782373
0.782543
0.0324035
-0.030681
-0.653394
0.651672
0.0274928
-0.0223011
-0.497617
0.492425
0.0167098
-0.0107271
-0.305227
0.299244
0.00620778
-0.00263288
-0.135272
0.131698
0.000717127
-0.0214838
0.0207666
-0.0288675
0.0290468
-0.000179354
0.000530705
-0.000266495
-0.224816
0.224552
-0.00047065
0.00125568
-0.396779
0.395994
-0.00173056
0.0014314
-0.553685
0.553984
-0.00020415
-0.00153465
-0.676968
0.678707
0.00392191
-0.00637659
-0.798503
0.800958
0.00926826
-0.0120381
-0.943914
0.946684
0.0151816
-0.0181139
-1.11972
1.12266
0.0213499
-0.024267
-1.33108
1.334
0.0273403
-0.029942
-1.58535
1.58795
0.0320777
-0.03376
-1.57831
1.57999
0.0348417
-0.0356335
-1.31495
1.31574
0.0360381
-0.0361802
-1.10033
1.10048
0.0362036
-0.0362745
-0.925151
0.925222
0.0363909
-0.0361932
-0.782339
0.782142
0.0352901
-0.0329547
-0.649778
0.647443
0.0291617
-0.0233914
-0.487068
0.481298
0.0174333
-0.0111873
-0.293199
0.286953
0.00649112
-0.00276585
-0.128085
0.124359
0.000757624
-0.0200426
0.019285
-0.0293082
0.0296331
-0.000324886
0.00154797
-0.00192701
-0.224635
0.225014
0.00204009
-0.00198299
-0.39553
0.395472
0.00212212
-0.00278228
-0.554636
0.555296
0.00424257
-0.00617593
-0.680748
0.682681
0.00880049
-0.0115036
-0.80344
0.806143
0.0146835
-0.0177166
-0.949379
0.952412
0.0211383
-0.0243041
-1.12553
1.1287
0.0277595
-0.030828
-1.33687
1.33994
0.0339934
-0.0365902
-1.59048
1.59308
0.0386273
-0.0401172
-1.58151
1.583
0.0409883
-0.0415326
-1.31631
1.31685
0.0416963
-0.0415586
-1.10072
1.10058
0.0413241
-0.0411378
-0.925153
0.924967
0.0410481
-0.0403783
-0.781519
0.78085
0.039012
-0.035963
-0.644958
0.641909
0.0314627
-0.0249919
-0.475331
0.46886
0.0185405
-0.0118905
-0.280584
0.273934
0.00690994
-0.00295245
-0.120558
0.116601
0.000811327
-0.0185149
0.0177036
-0.030028
0.0305311
-0.000503115
0.00283883
-0.00397858
-0.225789
0.226929
0.00496072
-0.00570639
-0.395739
0.396484
0.00656549
-0.00769219
-0.55643
0.557556
0.00947512
-0.0116835
-0.685001
0.68721
0.0146311
-0.0176556
-0.80888
0.811905
0.0211987
-0.0245602
-0.955376
0.958737
0.0283269
-0.0317811
-1.13182
1.13527
0.035506
-0.038759
-1.34296
1.34622
0.0420353
-0.0446273
-1.59559
1.59818
0.046551
-0.0478318
-1.58432
1.5856
0.0484528
-0.0487338
-1.31712
1.3174
0.0486323
-0.0481846
-1.1005
1.10005
0.0476702
-0.04721
-0.924581
0.924121
0.0467997
-0.045672
-0.779765
0.778638
0.0436928
-0.0397924
-0.638728
0.634827
0.0344473
-0.0271192
-0.462149
0.454821
0.0200268
-0.0128224
-0.267098
0.259894
0.00745088
-0.00318476
-0.112532
0.108266
0.000875441
-0.0168754
0.0159999
-0.0311019
0.0318278
-0.000725952
0.0043473
-0.00637867
-0.228477
0.230508
0.00842414
-0.0100835
-0.397613
0.399273
0.0117708
-0.0134798
-0.559326
0.561035
0.0157168
-0.0182976
-0.689894
0.692474
0.0216727
-0.0251016
-0.814972
0.818401
0.0290968
-0.0328643
-0.962039
0.965807
0.0370535
-0.040856
-1.13869
1.14249
0.0448995
-0.0483638
-1.34942
1.35289
0.0517581
-0.0543299
-1.60067
1.60324
0.0561075
-0.0571336
-1.58668
1.58771
0.0574695
-0.0574428
-1.31732
1.3173
0.0570488
-0.0562626
-1.09963
1.09884
0.0554403
-0.0546671
-0.923386
0.922613
0.0538508
-0.052205
-0.777121
0.775475
0.0494742
-0.0445455
-0.630796
0.625867
0.0381762
-0.029791
-0.447194
0.438809
0.0218842
-0.0139641
-0.252434
0.244513
0.00809594
-0.00345219
-0.103857
0.099213
0.000946267
-0.0151047
0.0141585
-0.0326144
0.0336291
-0.0010147
0.00623349
-0.00932343
-0.232946
0.236036
0.0126482
-0.0153707
-0.401425
0.404147
0.0180318
-0.0204506
-0.563601
0.566019
0.0232863
-0.0263608
-0.695634
0.698709
0.0302955
-0.0342383
-0.821883
0.825826
0.0387925
-0.0430513
-0.969527
0.973786
0.0477406
-0.0519437
-1.14626
1.15046
0.0563393
-0.0600203
-1.3563
1.35998
0.0635087
-0.066012
-1.60568
1.60818
0.0675805
-0.0682796
-1.58849
1.58919
0.0682638
-0.0678611
-1.31677
1.31637
0.0671487
-0.065987
-1.09801
1.09685
0.0648183
-0.0637391
-0.921502
0.920422
0.0623975
-0.0601386
-0.773436
0.771177
0.0564865
-0.0502899
-0.620797
0.6146
0.0426639
-0.0329789
-0.430058
0.420373
0.0240649
-0.0152666
-0.236271
0.227473
0.00880775
-0.00373489
-0.0944027
0.0893298
0.00101724
-0.0131928
0.0121756
-0.03469
0.036105
-0.00141497
0.00870313
-0.0131461
-0.239522
0.243965
0.0179671
-0.0219318
-0.407539
0.411503
0.0257366
-0.0290173
-0.569586
0.572867
0.0326291
-0.0363588
-0.70249
0.70622
0.041018
-0.0456051
-0.829827
0.834414
0.0508341
-0.0556682
-0.97801
0.982844
0.0609234
-0.0655575
-1.15463
1.15926
0.0703018
-0.0741629
-1.36357
1.36743
0.0776718
-0.0800148
-1.6105
1.61284
0.0812749
-0.0815469
-1.5896
1.58987
0.0811127
-0.0802285
-1.31536
1.31447
0.0791358
-0.0775727
-1.09554
1.09398
0.0760621
-0.0745708
-0.918897
0.917406
0.0727038
-0.0696296
-0.768481
0.765407
0.064814
-0.0570451
-0.608237
0.600468
0.0478738
-0.0366039
-0.41025
0.39898
0.0264776
-0.0166499
-0.218295
0.208468
0.00952968
-0.00400482
-0.0840806
0.0785558
0.00107969
-0.0111432
0.0100636
-0.0375314
0.039509
-0.00197765
0.0121275
-0.0183001
-0.248722
0.254894
0.0249237
-0.0303411
-0.416454
0.421872
0.0354985
-0.0398348
-0.577675
0.582011
0.044429
-0.0490117
-0.710803
0.715385
0.0545968
-0.0599724
-0.839054
0.84443
0.0659928
-0.07147
-0.987651
0.993128
0.0773181
-0.0823611
-1.16383
1.16887
0.08738
-0.0913131
-1.37113
1.37506
0.094688
-0.0967048
-1.61491
1.61693
0.0974916
-0.0971824
-1.58976
1.58945
0.0962278
-0.0947615
-1.31292
1.31145
0.0932135
-0.0912242
-1.09214
1.09016
0.0893387
-0.087302
-0.915311
0.913274
0.0849127
-0.080756
-0.76179
0.757634
0.0744812
-0.0647482
-0.592484
0.582751
0.0536786
-0.0405022
-0.387208
0.374032
0.0289608
-0.0179865
-0.198226
0.187252
0.0101776
-0.00422286
-0.0728676
0.0669129
0.00112212
-0.00897842
0.0078563
-0.0414572
0.0443087
-0.00285158
0.0171052
-0.0255381
-0.26129
0.269723
0.0344039
-0.0415791
-0.428837
0.436012
0.0483815
-0.0539847
-0.588351
0.593954
0.0598649
-0.0655735
-0.720985
0.726694
0.0722845
-0.0785626
-0.849834
0.856112
0.0854285
-0.09153
-0.998557
1.00466
0.0978794
-0.10319
-1.17376
1.17907
0.108275
-0.112054
-1.37872
1.38249
0.115017
-0.116441
-1.61852
1.61995
0.11651
-0.115407
-1.58865
1.58755
0.113771
-0.111631
-1.30925
1.30711
0.109557
-0.107104
-1.08772
1.08527
0.104826
-0.102112
-0.910444
0.90773
0.0990405
-0.093485
-0.752789
0.747233
0.0853603
-0.0731814
-0.572712
0.560533
0.0598027
-0.0443845
-0.360323
0.344905
0.0312598
-0.0190926
-0.175883
0.163716
0.0106383
-0.00433979
-0.0608428
0.0545443
0.00113089
-0.00674436
0.00561347
-0.0470494
0.0513805
-0.00433111
0.024817
-0.0363299
-0.278384
0.289897
0.0481147
-0.0576227
-0.445722
0.45523
0.0664555
-0.0735269
-0.602222
0.609294
0.0809467
-0.0881719
-0.733408
0.740633
0.0960758
-0.103174
-0.862369
0.869467
0.110716
-0.11722
-1.01061
1.01711
0.123751
-0.12899
-1.18406
1.1893
0.133727
-0.136956
-1.38578
1.38901
0.139068
-0.139512
-1.62075
1.62119
0.138531
-0.136373
-1.58581
1.58365
0.133876
-0.130927
-1.30415
1.3012
0.128237
-0.125269
-1.08215
1.07918
0.122497
-0.119093
-0.904115
0.90071
0.115025
-0.10759
-0.740768
0.733333
0.0970712
-0.0818704
-0.547889
0.532688
0.0657603
-0.0478217
-0.329008
0.31107
0.033035
-0.0197475
-0.151275
0.137988
0.0107848
-0.00430355
-0.0482294
0.0417482
0.00109155
-0.00451315
0.00342159
-0.0553853
0.0628201
-0.00743479
0.0383663
-0.054364
-0.302162
0.31816
0.0702317
-0.082963
-0.468755
0.481486
0.09398
-0.102412
-0.619731
0.628163
0.111328
-0.119824
-0.748471
0.756966
0.128644
-0.136148
-0.876351
0.883855
0.143783
-0.150087
-1.02319
1.02949
0.156123
-0.160646
-1.1939
1.19842
0.164358
-0.166416
-1.39143
1.39349
0.167096
-0.166099
-1.62074
1.61974
0.163705
-0.160189
-1.58071
1.57719
0.156601
-0.152655
-1.29732
1.29337
0.149273
-0.14579
-1.07527
1.07178
0.142402
-0.138142
-0.896097
0.891837
0.132568
-0.122529
-0.724604
0.714565
0.108879
-0.0899839
-0.516731
0.497835
0.0708528
-0.0503227
-0.292846
0.272316
0.0339871
-0.0198227
-0.124739
0.110574
0.0105727
-0.00411024
-0.0354284
0.028966
0.00100358
-0.00238463
0.00138105
-0.0697433
0.0739064
-0.00416315
0.0293881
-0.0432475
-0.336645
0.350504
0.0573061
-0.0689577
-0.499392
0.511043
0.0793866
-0.0890917
-0.640451
0.650157
0.0999193
-0.109836
-0.765048
0.774965
0.120862
-0.130704
-0.890486
0.900327
0.141201
-0.150543
-1.03485
1.04419
0.160292
-0.168639
-1.20185
1.2102
0.176912
-0.183491
-1.39438
1.40096
0.189312
-0.193065
-1.61754
1.62129
0.19473
-0.194895
-1.57268
1.57284
0.193946
-0.192333
-1.28841
1.28679
0.191021
-0.189306
-1.06686
1.06514
0.1874
-0.18318
-0.885719
0.881499
0.175376
-0.160233
-0.702677
0.687535
0.139469
-0.111884
-0.477903
0.450318
0.0854796
-0.0585201
-0.251814
0.224855
0.0382883
-0.0216347
-0.0970909
0.0804373
0.0112099
-0.00422471
-0.0230177
0.0160325
0.000998494
-0.00045897
-0.000539524
-0.0811162
0.0792675
0.00184875
0.00755035
-0.0166943
-0.367185
0.376329
0.02738
-0.0356398
-0.527394
0.535654
0.0440163
-0.0522401
-0.662431
0.670655
0.0622104
-0.0714943
-0.784558
0.793841
0.0813819
-0.0904227
-0.909615
0.918656
0.100027
-0.10823
-1.05324
1.06144
0.116972
-0.124082
-1.21835
1.22546
0.131063
-0.136313
-1.40722
1.41247
0.140376
-0.142558
-1.62422
1.6264
0.142666
-0.141274
-1.5723
1.57091
0.138769
-0.135468
-1.28438
1.28108
0.132509
-0.129293
-1.06097
1.05775
0.125974
-0.120622
-0.872784
0.867432
0.112198
-0.0985266
-0.668269
0.654597
0.0822955
-0.0627684
-0.421152
0.401625
0.0458604
-0.0303366
-0.198499
0.182975
0.0194956
-0.0109891
-0.0649441
0.0564376
0.00576327
-0.00220992
-0.00941803
0.00586468
0.000473381
0.00161014
-0.00208352
-0.0825703
0.0796453
0.00292501
-0.00174127
-0.00356466
-0.38781
0.393116
0.0108615
-0.0168238
-0.548113
0.554076
0.023016
-0.0302222
-0.681021
0.688227
0.0388414
-0.0468994
-0.802256
0.810314
0.0557044
-0.0635842
-0.926943
0.934823
0.0716972
-0.0789775
-1.06945
1.07673
0.0865057
-0.0926919
-1.23209
1.23828
0.0982723
-0.102207
-1.417
1.42093
0.105118
-0.106
-1.62781
1.62869
0.104826
-0.102157
-1.56884
1.56617
0.0986281
-0.0944161
-1.27738
1.27317
0.0901776
-0.0857147
-1.05238
1.04792
0.0812693
-0.0752868
-0.857759
0.851777
0.0675472
-0.0562348
-0.637783
0.626471
0.0445104
-0.0319509
-0.380539
0.36798
0.0225121
-0.0147413
-0.167232
0.159461
0.00966548
-0.00576215
-0.0481352
0.0442319
0.0032194
-0.00122231
-0.00247196
0.000474877
0.000282763
0.00275766
-0.00304042
-0.0812695
0.0784893
0.00278027
-0.00546242
0.0029305
-0.40154
0.404072
0.00178589
-0.00628801
-0.563396
0.567898
0.0114951
-0.0175218
-0.696354
0.702381
0.0248578
-0.0317383
-0.817749
0.824629
0.0392456
-0.0459848
-0.94216
0.948899
0.0532955
-0.059432
-1.08355
1.08969
0.0659449
-0.0708026
-1.24401
1.24887
0.0754315
-0.0785092
-1.42458
1.42765
0.0803118
-0.0799759
-1.62903
1.62869
0.0780182
-0.0745843
-1.56285
1.55942
0.0703621
-0.065013
-1.26848
1.26313
0.0599961
-0.0545288
-1.04175
1.03628
0.0490845
-0.0430326
-0.841677
0.835625
0.0360536
-0.0274475
-0.61239
0.603784
0.0196891
-0.0128079
-0.35429
0.347408
0.00857513
-0.00567146
-0.150887
0.147983
0.00396653
-0.00269096
-0.0397955
0.0385199
0.00166383
-0.000674723
0.00148567
-0.00247477
0.000172461
0.00358789
-0.00376035
-0.0796882
0.0772056
0.0024826
-0.00668525
0.00580273
-0.410635
0.411517
-0.00234732
-0.000872482
-0.575614
0.578834
0.00508151
-0.01053
-0.709176
0.714624
0.0166646
-0.0226761
-0.830816
0.836827
0.029145
-0.0349597
-0.955166
0.96098
0.0411796
-0.0465763
-1.09566
1.10105
0.0520085
-0.0563467
-1.25353
1.25787
0.0601447
-0.062493
-1.43029
1.43264
0.0635257
-0.0624953
-1.62807
1.62704
0.0598932
-0.0556246
-1.55517
1.5509
0.0508601
-0.0450713
-1.25753
1.25175
0.0394883
-0.0332027
-1.02954
1.02326
0.0273778
-0.0211796
-0.825952
0.819754
0.0152964
-0.00883643
-0.592942
0.586482
0.00408947
-0.00102466
-0.338826
0.335761
-7.48521e-05
0.000194881
-0.143539
0.143419
6.67902e-05
-0.000328104
-0.0365271
0.0367884
0.000344489
-0.000173201
0.00350416
-0.00367545
5.6698e-05
0.00417265
-0.00422934
-0.0781824
0.0760373
0.00214508
-0.00664571
0.0063152
-0.416781
0.417112
-0.004282
0.00170044
-0.584938
0.587519
0.00232746
-0.00696282
-0.71999
0.724625
0.0122053
-0.0174002
-0.842049
0.847244
0.0231169
-0.0282693
-0.966423
0.971575
0.0338932
-0.0385501
-1.10613
1.11079
0.0433346
-0.0471177
-1.26187
1.26565
0.0502887
-0.0520989
-1.43465
1.43646
0.0525541
-0.0513975
-1.62581
1.62466
0.0483225
-0.0438016
-1.54608
1.54156
0.0386933
-0.0325335
-1.24563
1.23947
0.0268342
-0.0200378
-1.01621
1.00941
0.0138889
-0.00766464
-0.810794
0.80457
0.00248418
0.00235228
-0.577779
0.572942
-0.00530033
0.00636005
-0.330211
0.329151
-0.00562642
0.00426972
-0.141675
0.143032
-0.00298954
0.00165286
-0.0365716
0.0379083
-0.000808257
0.000299107
0.00382642
-0.00331726
-6.32155e-05
0.00444925
-0.00438603
-0.0769878
0.0752964
0.00169148
-0.00582998
0.00587017
-0.421236
0.421195
-0.00427625
0.00237346
-0.593004
0.594907
0.00135266
-0.005522
-0.729283
0.733453
0.010463
-0.0149057
-0.852033
0.856476
0.0198879
-0.0244108
-0.976673
0.981196
0.0296809
-0.0338426
-1.11545
1.11961
0.0379993
-0.0414676
-1.2692
1.27267
0.0446302
-0.0461066
-1.43823
1.43971
0.046373
-0.0448936
-1.62302
1.62154
0.0419338
-0.0370154
-1.53673
1.53181
0.0319661
-0.025857
-1.23305
1.22694
0.0199292
-0.0132537
-1.00223
0.995559
0.00701784
-0.00059025
-0.796216
0.789788
-0.0037419
0.0077769
-0.565454
0.561419
-0.01006
0.0101563
-0.325337
0.325241
-0.00881151
0.00689814
-0.142846
0.144759
-0.00503756
0.00306924
-0.0387614
0.0407298
-0.0016667
0.000688167
0.00276225
-0.00178372
-0.000168608
0.00440564
-0.00423703
-0.0762816
0.0749379
0.0013437
-0.0047968
0.00499046
-0.424661
0.424467
-0.00362965
0.00183645
-0.599947
0.60174
0.00170756
-0.00539754
-0.737571
0.741261
0.00959671
-0.013847
-0.860848
0.865099
0.0184047
-0.023014
-0.9855
0.990109
0.0274868
-0.031395
-1.12383
1.12774
0.0355907
-0.0387152
-1.27598
1.2791
0.04127
-0.0430235
-1.44104
1.44279
0.0432872
-0.0418921
-1.62005
1.61865
0.0388768
-0.034295
-1.52703
1.52245
0.0293438
-0.0233258
-1.22047
1.21445
0.0175794
-0.0110043
-0.988509
0.981934
0.00492614
0.00111327
-0.782093
0.776054
-0.00566704
0.00918065
-0.554649
0.551135
-0.0110947
0.0112854
-0.322371
0.32218
-0.00998608
0.0078905
-0.145143
0.147239
-0.00593515
0.00378382
-0.0420763
0.0442276
-0.00214379
0.000933817
0.000779463
0.000430511
-0.000244412
0.00411668
-0.00387227
-0.0760973
0.0749698
0.00112754
-0.00354485
0.00352294
-0.427656
0.427678
-0.0024682
0.000725709
-0.606253
0.607995
0.00265109
-0.006187
-0.745203
0.748739
0.0101825
-0.0139922
-0.869112
0.872922
0.0186228
-0.0223941
-0.994112
0.997884
0.0267789
-0.0304468
-1.13177
1.13544
0.0344545
-0.037699
-1.28217
1.28541
0.0404429
-0.0418718
-1.44425
1.44568
0.0423438
-0.0412054
-1.61714
1.616
0.0386703
-0.034227
-1.5177
1.51326
0.0295748
-0.0238304
-1.20853
1.20279
0.0183749
-0.012024
-0.975021
0.96867
0.00630124
-0.000273757
-0.768746
0.762719
-0.00425684
0.00768877
-0.544794
0.541362
-0.00965318
0.0101319
-0.319591
0.319113
-0.0093896
0.00772459
-0.147534
0.149199
-0.00601194
0.00398594
-0.0456741
0.0477001
-0.00236157
0.00104393
-0.00157569
0.00289333
-0.000293027
0.00366331
-0.00337028
-0.0761907
0.0753951
0.000795607
-0.00239775
0.00192175
-0.430692
0.431168
-0.00102816
-0.000827493
-0.61175
0.613606
0.00383991
-0.00720999
-0.752273
0.755643
0.0110087
-0.0149191
-0.87657
0.88048
0.0188937
-0.0227903
-1.00184
1.00573
0.0270949
-0.0305109
-1.13951
1.14292
0.0345545
-0.0376956
-1.28842
1.29156
0.0404272
-0.0423136
-1.44749
1.44937
0.0431821
-0.0422274
-1.61486
1.61391
0.0398359
-0.0360217
-1.50897
1.50516
0.0318611
-0.0264537
-1.19695
1.19155
0.0212419
-0.0154599
-0.962209
0.956427
0.00968477
-0.00405713
-0.755729
0.750101
-0.000668635
0.00432548
-0.535335
0.531678
-0.00627018
0.00728593
-0.316312
0.315296
-0.00716492
0.00625632
-0.149187
0.150096
-0.00501604
0.00345428
-0.0488578
0.0504195
-0.00212625
0.000966018
-0.00393788
0.00509811
-0.000285703
0.00312204
-0.00283634
-0.0767055
0.0760753
0.000630239
-0.0014245
0.00103331
-0.43393
0.434321
0.00037921
-0.00220316
-0.617299
0.619123
0.00534447
-0.00856024
-0.758784
0.762
0.0121857
-0.0156699
-0.884034
0.887518
0.0197428
-0.0232974
-1.00961
1.01317
0.0275211
-0.0313435
-1.14677
1.15059
0.034986
-0.0384186
-1.29472
1.29815
0.0415237
-0.0434515
-1.45113
1.45305
0.0446316
-0.0444007
-1.61315
1.61292
0.0424013
-0.0391837
-1.50122
1.498
0.0352398
-0.0303311
-1.18623
1.18132
0.0255954
-0.0200601
-0.950245
0.94471
0.0147463
-0.00925543
-0.743413
0.737922
0.0045645
-0.000319489
-0.5257
0.521455
-0.00213572
0.00361194
-0.312151
0.310675
-0.00422193
0.00402568
-0.149526
0.149722
-0.00342296
0.00249226
-0.051062
0.0519927
-0.0016017
0.000760113
-0.00587622
0.00671782
-0.000244325
0.00261393
-0.0023696
-0.0775058
0.0770587
0.000447083
-0.000372125
-0.000154827
-0.437334
0.437861
0.00159475
-0.00370387
-0.622519
0.624628
0.00674147
-0.00978319
-0.765025
0.768066
0.0134831
-0.0167989
-0.890961
0.894276
0.0206949
-0.0243558
-1.01718
1.02084
0.0284611
-0.0322278
-1.15424
1.15801
0.036068
-0.0395013
-1.30147
1.30491
0.0427621
-0.0454079
-1.45524
1.45789
0.046991
-0.0470156
-1.6126
1.61263
0.0456801
-0.0427737
-1.49468
1.49177
0.0394
-0.0350801
-1.17641
1.17209
0.0304812
-0.025284
-0.938936
0.933739
0.0202404
-0.0147425
-0.73158
0.726082
0.0100911
-0.00544654
-0.515844
0.511199
0.00247479
-0.000284063
-0.306973
0.304782
-0.000934922
0.0015048
-0.148425
0.147855
-0.00159243
0.00131015
-0.051989
0.0522713
-0.000915914
0.000467647
-0.00711761
0.00756588
-0.000169651
0.00221074
-0.00204109
-0.0785445
0.0782325
0.000312092