/*--------------------------------*- C++ -*----------------------------------*\
  =========                 |
  \\      /  F ield         | OpenFOAM: The Open Source CFD Toolbox
   \\    /   O peration     | Website:  https://openfoam.org
    \\  /    A nd           | Version:  10
     \\/     M anipulation  |
\*---------------------------------------------------------------------------*/
FoamFile
{
    format      ascii;
    class       volVectorField;
    location    "66";
    object      U;
}
// * * * * * * * * * * * * * * * * * * * * * * * * * * * * * * * * * * * * * //

dimensions      [0 1 -1 0 0 0 0];

internalField   nonuniform List<vector> 
8800
(
(0.980137 -0.0915203 0)
(1.00234 -0.0587301 0)
(0.999583 -0.0321287 0)
(0.999983 -0.0165215 0)
(1.00009 -0.00884114 0)
(1.00011 -0.00509662 0)
(1.00007 -0.0029927 0)
(1.00002 -0.00168135 0)
(0.999999 -0.000779009 0)
(1.00006 -7.90221e-05 0)
(0.999981 0.000630821 0)
(0.999991 0.00138862 0)
(1.00003 0.00241172 0)
(1.00005 0.00400941 0)
(1.00004 0.00675198 0)
(0.999997 0.0120522 0)
(0.999803 0.023095 0)
(0.999032 0.0431555 0)
(1.00724 0.0790249 0)
(0.775026 0.0478395 0)
(0.358997 -0.014748 0)
(1.04651 -0.0724783 0)
(1.08847 -0.0660146 0)
(1.04944 -0.0509064 0)
(1.02556 -0.0376839 0)
(1.01277 -0.0258768 0)
(1.0066 -0.0166781 0)
(1.00364 -0.0101844 0)
(1.00219 -0.00554936 0)
(1.00151 -0.00195133 0)
(1.00138 0.00126366 0)
(1.00172 0.00457517 0)
(1.0027 0.00846395 0)
(1.00476 0.013768 0)
(1.00898 0.0214371 0)
(1.01794 0.031923 0)
(1.03579 0.0446913 0)
(1.06742 0.0581299 0)
(1.09468 0.0699512 0)
(0.845609 0.0555089 0)
(0.217816 -0.00137978 0)
(1.07569 -0.0506341 0)
(1.09943 -0.0489131 0)
(1.06441 -0.0399924 0)
(1.03994 -0.0325285 0)
(1.02385 -0.0253084 0)
(1.01405 -0.0180802 0)
(1.00853 -0.0114496 0)
(1.00566 -0.0056843 0)
(1.00448 -0.000387086 0)
(1.00478 0.0047269 0)
(1.00661 0.0100154 0)
(1.01057 0.0159756 0)
(1.01789 0.0227163 0)
(1.03048 0.0298082 0)
(1.05046 0.0368859 0)
(1.08002 0.0446541 0)
(1.10563 0.0519693 0)
(0.943214 0.0410243 0)
(0.21715 0.00140677 0)
(0.176691 -0.000627764 0)
(1.01946 -0.0354395 0)
(1.10575 -0.0413728 0)
(1.07802 -0.0363488 0)
(1.05251 -0.0302954 0)
(1.03529 -0.0244083 0)
(1.02341 -0.0185996 0)
(1.01558 -0.0125876 0)
(1.01096 -0.00647882 0)
(1.0089 -0.000231522 0)
(1.00941 0.00592949 0)
(1.01248 0.0118439 0)
(1.01845 0.0175973 0)
(1.02805 0.0231499 0)
(1.04222 0.0286841 0)
(1.06303 0.0344512 0)
(1.09382 0.0403238 0)
(1.09436 0.0418323 0)
(0.830058 0.0227994 0)
(0.175554 0.00064948 0)
(0.154807 -0.000461462 0)
(0.958317 -0.0256602 0)
(1.10448 -0.0350635 0)
(1.08815 -0.0326022 0)
(1.06135 -0.028084 0)
(1.04331 -0.0231073 0)
(1.0309 -0.017788 0)
(1.02228 -0.0122276 0)
(1.01671 -0.00629969 0)
(1.01403 0.0001672 0)
(1.01463 0.00663086 0)
(1.0184 0.012501 0)
(1.0252 0.0177972 0)
(1.03533 0.0227746 0)
(1.05004 0.0275799 0)
(1.07196 0.0320025 0)
(1.10093 0.0358621 0)
(1.06955 0.0340454 0)
(0.742279 0.0144824 0)
(0.153101 0.000485851 0)
(0.140152 -0.00033323 0)
(0.901399 -0.0192894 0)
(1.09694 -0.0301558 0)
(1.09632 -0.0292607 0)
(1.0691 -0.0254636 0)
(1.05026 -0.0213604 0)
(1.03727 -0.0166398 0)
(1.02826 -0.0113679 0)
(1.02228 -0.0056235 0)
(1.01926 0.000748811 0)
(1.01983 0.00712664 0)
(1.02379 0.0127738 0)
(1.03083 0.0177297 0)
(1.04133 0.0221616 0)
(1.05666 0.0260854 0)
(1.07944 0.0295792 0)
(1.10318 0.032271 0)
(1.03766 0.028229 0)
(0.675317 0.0103434 0)
(0.137747 0.000362162 0)
(0.129448 -0.000251632 0)
(0.851637 -0.0148867 0)
(1.08466 -0.026043 0)
(1.10205 -0.026366 0)
(1.07596 -0.0230272 0)
(1.05662 -0.0193513 0)
(1.0432 -0.0151301 0)
(1.03381 -0.010241 0)
(1.02755 -0.00471613 0)
(1.02429 0.00147275 0)
(1.02474 0.00763454 0)
(1.0287 0.0129969 0)
(1.03589 0.0175261 0)
(1.04667 0.0213488 0)
(1.06236 0.0246719 0)
(1.08559 0.0276841 0)
(1.10234 0.0294694 0)
(1.00283 0.0237123 0)
(0.623092 0.00794936 0)
(0.126189 0.000286782 0)
(0.1213 -0.000192643 0)
(0.809272 -0.0116955 0)
(1.06943 -0.0224357 0)
(1.10562 -0.0237183 0)
(1.08225 -0.0208291 0)
(1.06245 -0.0173777 0)
(1.04875 -0.0134358 0)
(1.0391 -0.00886549 0)
(1.03256 -0.00361208 0)
(1.02906 0.00234562 0)
(1.02933 0.00823831 0)
(1.03324 0.0132471 0)
(1.04048 0.0173171 0)
(1.05135 0.0206605 0)
(1.06728 0.0235848 0)
(1.09089 0.0262768 0)
(1.09862 0.0271481 0)
(0.967548 0.0201672 0)
(0.581107 0.00639169 0)
(0.117004 0.000235355 0)
(0.114996 -0.000147838 0)
(0.773585 -0.0093056 0)
(1.05268 -0.0192573 0)
(1.10802 -0.0212684 0)
(1.08815 -0.0187579 0)
(1.06794 -0.0154649 0)
(1.05399 -0.011689 0)
(1.04415 -0.00731746 0)
(1.03737 -0.00230002 0)
(1.0336 0.00339879 0)
(1.03364 0.00898116 0)
(1.03741 0.0136096 0)
(1.04459 0.0172736 0)
(1.05546 0.020235 0)
(1.07162 0.0228279 0)
(1.09492 0.0251705 0)
(1.09205 0.0252316 0)
(0.933151 0.0174301 0)
(0.546349 0.00532621 0)
(0.109437 0.00019969 0)
(0.110086 -0.000112397 0)
(0.743653 -0.00745231 0)
(1.03547 -0.0164359 0)
(1.10947 -0.0189621 0)
(1.09377 -0.0167621 0)
(1.07326 -0.0135666 0)
(1.05902 -0.00988653 0)
(1.04898 -0.00563624 0)
(1.04199 -0.000786678 0)
(1.03793 0.0046666 0)
(1.03767 0.00992942 0)
(1.04121 0.0141966 0)
(1.04824 0.0174969 0)
(1.0591 0.0201072 0)
(1.07547 0.0224076 0)
(1.09765 0.0243737 0)
(1.08302 0.0236659 0)
(0.900225 0.0153518 0)
(0.516748 0.0045847 0)
(0.102993 0.000175195 0)
(0.10628 -8.30857e-05 0)
(0.718655 -0.00595889 0)
(1.01864 -0.0139007 0)
(1.11009 -0.0167303 0)
(1.09927 -0.0148095 0)
(1.07849 -0.0116294 0)
(1.06396 -0.00798288 0)
(1.05369 -0.0037962 0)
(1.04644 0.000942906 0)
(1.04205 0.00618963 0)
(1.04142 0.0111521 0)
(1.04465 0.0150788 0)
(1.0515 0.0180307 0)
(1.06231 0.0203 0)
(1.07887 0.0223375 0)
(1.09902 0.0239007 0)
(1.07191 0.0224476 0)
(0.868894 0.0138199 0)
(0.490829 0.00407558 0)
(0.0973235 0.000159344 0)
(0.103386 -5.77143e-05 0)
(0.697947 -0.00470702 0)
(1.00281 -0.0115854 0)
(1.11004 -0.014537 0)
(1.10463 -0.0128166 0)
(1.08373 -0.00960475 0)
(1.06886 -0.0059338 0)
(1.05833 -0.00174847 0)
(1.05077 0.00293102 0)
(1.04597 0.00802144 0)
(1.0449 0.0127156 0)
(1.04775 0.0163179 0)
(1.05437 0.0189307 0)
(1.06512 0.020864 0)
(1.08182 0.0226434 0)
(1.09937 0.0238002 0)
(1.05899 0.021588 0)
(0.838997 0.0127441 0)
(0.467491 0.00374186 0)
(0.0921644 0.000150263 0)
(0.101283 -3.43288e-05 0)
(0.681058 -0.00360828 0)
(0.988434 -0.00941971 0)
(1.10952 -0.0122963 0)
(1.1098 -0.0106934 0)
(1.08904 -0.00742825 0)
(1.07382 -0.00367283 0)
(1.06296 0.000575209 0)
(1.05503 0.00525026 0)
(1.04974 0.0102339 0)
(1.04812 0.0146859 0)
(1.05052 0.0179705 0)
(1.05688 0.020247 0)
(1.06752 0.0218392 0)
(1.08428 0.0233496 0)
(1.09871 0.0240804 0)
(1.04441 0.0211036 0)
(0.810206 0.0120545 0)
(0.44587 0.00354547 0)
(0.0873116 0.000146536 0)
(0.0999079 -1.12419e-05 0)
(0.66768 -0.00259337 0)
(0.975875 -0.00732979 0)
(1.10885 -0.00994929 0)
(1.11492 -0.00838002 0)
(1.09451 -0.00502621 0)
(1.0789 -0.00112399 0)
(1.06767 0.00324856 0)
(1.05927 0.00798398 0)
(1.05338 0.012912 0)
(1.0511 0.0171503 0)
(1.05296 0.020121 0)
(1.05898 0.0220511 0)
(1.0695 0.0232841 0)
(1.08628 0.0245288 0)
(1.0968 0.0247991 0)
(1.02824 0.0209802 0)
(0.782093 0.0116955 0)
(0.42526 0.00346054 0)
(0.0825996 0.0001471 0)
(0.0992437 1.36523e-05 0)
(0.657657 -0.00160803 0)
(0.965448 -0.00524318 0)
(1.10836 -0.00743138 0)
(1.12013 -0.00580527 0)
(1.10022 -0.0023149 0)
(1.0842 0.00180234 0)
(1.07251 0.00636773 0)
(1.06355 0.0112324 0)
(1.05692 0.016157 0)
(1.05385 0.0202054 0)
(1.05507 0.0228623 0)
(1.06068 0.0244212 0)
(1.07105 0.0252806 0)
(1.08774 0.0262252 0)
(1.0936 0.0259777 0)
(1.01043 0.0212527 0)
(0.754179 0.0116385 0)
(0.405074 0.0034723 0)
(0.0778931 0.000151445 0)
(0.0993105 3.56374e-05 0)
(0.650957 -0.000606042 0)
(0.957458 -0.00308843 0)
(1.10838 -0.00467063 0)
(1.12559 -0.00287846 0)
(1.10628 0.000812074 0)
(1.08979 0.00521827 0)
(1.07756 0.0100536 0)
(1.06791 0.0151178 0)
(1.0604 0.0200856 0)
(1.05637 0.0239553 0)
(1.05681 0.0262913 0)
(1.06196 0.0274714 0)
(1.07213 0.0279343 0)
(1.08844 0.0285118 0)
(1.08889 0.0276384 0)
(0.990829 0.0219576 0)
(0.725924 0.011869 0)
(0.384772 0.00357228 0)
(0.0730688 0.000159189 0)
(0.100145 7.19495e-05 0)
(0.647657 0.000425235 0)
(0.952221 -0.000792835 0)
(1.10928 -0.00158452 0)
(1.13149 0.000491962 0)
(1.1128 0.00446044 0)
(1.09579 0.00924435 0)
(1.08291 0.0144387 0)
(1.07242 0.0197805 0)
(1.06383 0.0248453 0)
(1.05866 0.0285486 0)
(1.05818 0.030542 0)
(1.06276 0.0313271 0)
(1.07269 0.0313671 0)
(1.08825 0.0315208 0)
(1.08238 0.0298878 0)
(0.969146 0.0231141 0)
(0.696735 0.0123743 0)
(0.363852 0.00375137 0)
(0.0680172 0.000169669 0)
(0.101962 0.000103108 0)
(0.648144 0.00159101 0)
(0.950094 0.00173552 0)
(1.1115 0.00194278 0)
(1.13805 0.00440262 0)
(1.11991 0.00878976 0)
(1.10231 0.0140521 0)
(1.08864 0.0197011 0)
(1.07713 0.0254015 0)
(1.06724 0.0306128 0)
(1.06069 0.0341554 0)
(1.05912 0.0357631 0)
(1.06303 0.0361199 0)
(1.07266 0.0357052 0)
(1.08691 0.0353706 0)
(1.07382 0.032808 0)
(0.944987 0.0247754 0)
(0.66598 0.0131544 0)
(0.34184 0.00400506 0)
(0.0626433 0.000182429 0)
(0.104813 0.000151181 0)
(0.652853 0.00304632 0)
(0.951565 0.00465068 0)
(1.11551 0.0060094 0)
(1.1455 0.00903004 0)
(1.12777 0.0139817 0)
(1.10949 0.01984 0)
(1.09486 0.0260544 0)
(1.08209 0.0321962 0)
(1.07062 0.0375864 0)
(1.06245 0.0409402 0)
(1.05962 0.0421117 0)
(1.06271 0.0420088 0)
(1.07197 0.0410838 0)
(1.08423 0.0402294 0)
(1.06284 0.036511 0)
(0.917812 0.0269707 0)
(0.632963 0.0141994 0)
(0.318281 0.00432369 0)
(0.0568642 0.00019658 0)
(0.108981 0.000214016 0)
(0.662216 0.004736 0)
(0.957085 0.00809238 0)
(1.12182 0.0107981 0)
(1.1541 0.0145669 0)
(1.13661 0.0202583 0)
(1.11749 0.0268574 0)
(1.10168 0.0337648 0)
(1.08736 0.0404288 0)
(1.07398 0.0460117 0)
(1.06389 0.0491207 0)
(1.05961 0.0497907 0)
(1.06173 0.0491744 0)
(1.07054 0.0476707 0)
(1.08032 0.0462032 0)
(1.04892 0.0410941 0)
(0.886931 0.0297313 0)
(0.596941 0.0154928 0)
(0.292752 0.0046939 0)
(0.0506196 0.000210966 0)
(0.114804 0.000298208 0)
(0.676991 0.00683245 0)
(0.967288 0.0122603 0)
(1.13099 0.0165529 0)
(1.16423 0.0212908 0)
(1.14668 0.0279546 0)
(1.1265 0.0354663 0)
(1.10919 0.0431945 0)
(1.09295 0.0504374 0)
(1.07726 0.0561764 0)
(1.06492 0.0589345 0)
(1.05889 0.0589681 0)
(1.06001 0.0577951 0)
(1.06832 0.0556626 0)
(1.07491 0.0534929 0)
(1.03145 0.04665 0)
(0.851506 0.0330512 0)
(0.557147 0.0169889 0)
(0.264905 0.0050902 0)
(0.0438851 0.000223674 0)
(0.122788 0.000420085 0)
(0.698153 0.00958245 0)
(0.983052 0.0174649 0)
(1.14369 0.0236181 0)
(1.17638 0.0295975 0)
(1.15828 0.0375295 0)
(1.13671 0.0461404 0)
(1.11748 0.0547996 0)
(1.09883 0.0626198 0)
(1.08039 0.068399 0)
(1.06545 0.0706393 0)
(1.05744 0.0698905 0)
(1.05744 0.0680192 0)
(1.06524 0.0651764 0)
(1.06764 0.0621105 0)
(1.00957 0.0532329 0)
(0.810551 0.0368822 0)
(0.512849 0.0186084 0)
(0.234528 0.00547579 0)
(0.0366883 0.000232427 0)
(0.13366 0.000592506 0)
(0.726927 0.0133542 0)
(1.00554 0.0241804 0)
(1.1607 0.0325421 0)
(1.19114 0.0400806 0)
(1.17176 0.0496424 0)
(1.14829 0.0595402 0)
(1.12654 0.0691815 0)
(1.1049 0.0774641 0)
(1.08317 0.0830341 0)
(1.06528 0.0844772 0)
(1.05514 0.0827534 0)
(1.05393 0.0800565 0)
(1.06098 0.0763441 0)
(1.05781 0.0722537 0)
(0.982217 0.0608111 0)
(0.762969 0.0410943 0)
(0.463444 0.0202178 0)
(0.201624 0.00579794 0)
(0.0291281 0.000234431 0)
(0.148677 0.00087026 0)
(0.765347 0.0187631 0)
(1.03642 0.0332001 0)
(1.18296 0.0442802 0)
(1.20929 0.0539042 0)
(1.18745 0.0653514 0)
(1.16127 0.0766402 0)
(1.13621 0.0871278 0)
(1.11088 0.0955383 0)
(1.08533 0.100447 0)
(1.0642 0.100674 0)
(1.05181 0.097709 0)
(1.04934 0.0940446 0)
(1.05517 0.0895411 0)
(1.04465 0.0839446 0)
(0.948002 0.0692565 0)
(0.70767 0.0454337 0)
(0.408653 0.0216182 0)
(0.166545 0.00598904 0)
(0.0213937 0.000226668 0)
(0.170052 0.00135083 0)
(0.816697 0.0269758 0)
(1.07828 0.0460958 0)
(1.21162 0.0606953 0)
(1.2314 0.0730849 0)
(1.20542 0.0862741 0)
(1.1754 0.0987498 0)
(1.14607 0.109569 0)
(1.11631 0.117432 0)
(1.08648 0.120967 0)
(1.0619 0.119402 0)
(1.04727 0.114841 0)
(1.04358 0.110037 0)
(1.0478 0.104669 0)
(1.02703 0.0970729 0)
(0.905239 0.0781732 0)
(0.643849 0.0494995 0)
(0.348877 0.0225598 0)
(0.130161 0.005977 0)
(0.0137841 0.000205749 0)
(0.201207 0.00241765 0)
(0.886739 0.0407126 0)
(1.13477 0.0667303 0)
(1.2471 0.0853515 0)
(1.25723 0.10036 0)
(1.22507 0.114738 0)
(1.18986 0.127441 0)
(1.15529 0.137469 0)
(1.12049 0.143674 0)
(1.08607 0.144833 0)
(1.05805 0.140728 0)
(1.0413 0.134155 0)
(1.03652 0.12799 0)
(1.03844 0.121563 0)
(1.00342 0.111299 0)
(0.851951 0.0868875 0)
(0.571596 0.0527569 0)
(0.285914 0.0228628 0)
(0.0942285 0.00575031 0)
(0.00680423 0.000171805 0)
(0.243651 0.00870182 3.51263e-20)
(0.979592 0.0681272 3.0899e-20)
(1.20363 0.101302 -1.09335e-20)
(1.28632 0.121823 0)
(1.28398 0.139325 -2.92861e-34)
(1.24425 0.153085 4.31637e-21)
(1.20309 0.164247 -7.97443e-21)
(1.16276 0.172068 0)
(1.12258 0.175521 1.68215e-34)
(1.08333 0.173486 -1.02731e-20)
(1.05167 0.166352 0)
(1.03271 0.157602 -1.23866e-20)
(1.02707 0.150272 -3.6668e-20)
(1.02579 0.143573 -1.7367e-20)
(0.969775 0.129135 -5.24776e-21)
(0.781962 0.0968651 -3.12278e-21)
(0.485758 0.0555718 0)
(0.218162 0.0229162 2.18398e-21)
(0.0587464 0.00559611 2.57823e-21)
(0.00041973 0.000139265 4.64766e-20)
(0.273394 0.0242897 2.25936e-20)
(1.05624 0.110973 5.4274e-22)
(1.26043 0.150573 2.77356e-21)
(1.32138 0.171308 0)
(1.30745 0.188603 -1.44049e-20)
(1.2607 0.200176 -1.66362e-20)
(1.21365 0.209002 -7.93572e-21)
(1.16749 0.214319 -2.89e-20)
(1.12171 0.214969 0)
(1.07723 0.2098 4.36299e-20)
(1.04148 0.199727 4.36139e-20)
(1.02007 0.188809 1.30257e-20)
(1.01236 0.179703 4.78685e-20)
(1.00291 0.17068 6.76442e-20)
(0.916702 0.14988 0)
(0.687302 0.107157 9.56038e-20)
(0.384675 0.0578607 1.37086e-19)
(0.147742 0.0222214 1.52195e-19)
(0.0230511 0.00420386 -1.7396e-19)
(-0.00616108 -0.000503701 -3.27741e-21)
(0.274414 0.0402059 0)
(1.10467 0.166486 3.25025e-21)
(1.29866 0.211187 0)
(1.3486 0.231359 -1.67129e-20)
(1.32584 0.245564 0)
(1.27321 0.253254 -3.18236e-20)
(1.22063 0.25833 1.60106e-20)
(1.16897 0.260036 -5.73652e-20)
(1.11788 0.257014 -1.58345e-21)
(1.06841 0.248061 2.24165e-20)
(1.02878 0.234599 9.61372e-20)
(1.00499 0.221174 -2.18319e-22)
(0.994937 0.210118 -3.48201e-20)
(0.976806 0.198141 -6.37643e-20)
(0.868802 0.169901 7.55583e-20)
(0.619621 0.116493 -1.33835e-19)
(0.325801 0.059947 -1.76684e-20)
(0.111398 0.0212471 0)
(0.00515001 0.00205508 -1.18877e-23)
(-0.00974086 -0.00137634 0)
(0.267909 0.0539655 2.31029e-20)
(1.13071 0.225278 -1.42234e-20)
(1.32218 0.276249 -1.48056e-20)
(1.36664 0.296567 7.38058e-21)
(1.33777 0.306829 -1.26793e-20)
(1.28071 0.309971 6.61512e-20)
(1.22359 0.310615 3.31468e-20)
(1.16717 0.308059 0)
(1.11133 0.300809 -1.10536e-19)
(1.05728 0.287589 0)
(1.01401 0.270369 -5.02492e-20)
(0.9879 0.254176 -6.27488e-20)
(0.975477 0.240796 -3.79444e-20)
(0.950239 0.225177 -4.63394e-20)
(0.829614 0.189666 0)
(0.57596 0.127075 0)
(0.294943 0.0641159 -1.15084e-19)
(0.0932273 0.021028 2.27214e-20)
(-0.0051789 -0.000270512 -1.32914e-20)
(-0.0123852 -0.00242517 -1.55492e-20)
(0.260125 0.0661031 5.24624e-21)
(1.14202 0.283878 0)
(1.33502 0.342195 2.27248e-20)
(1.37644 0.363149 1.89791e-20)
(1.34331 0.369552 3.05281e-20)
(1.28302 0.368124 0)
(1.22233 0.36422 3.16035e-20)
(1.16199 0.357205 6.28778e-20)
(1.10205 0.345493 5.60959e-20)
(1.04391 0.327764 1.05894e-19)
(0.997257 0.306542 0)
(0.968846 0.287337 -1.3534e-19)
(0.95407 0.271441 -8.19784e-20)
(0.923426 0.252197 -4.85833e-20)
(0.797494 0.210222 2.98791e-19)
(0.548633 0.139768 3.55241e-20)
(0.280407 0.0703978 1.6677e-19)
(0.0865148 0.0219146 -7.89141e-19)
(-0.00968602 -0.00221967 4.66349e-19)
(-0.0140775 -0.00349025 -5.61911e-19)
(0.252593 0.0770279 2.06367e-20)
(1.14386 0.340416 -1.48218e-21)
(1.34008 0.407107 -5.98096e-22)
(1.3796 0.429218 -1.32836e-20)
(1.34341 0.432004 -2.22879e-20)
(1.28073 0.426185 1.80277e-21)
(1.21722 0.417876 -3.43625e-20)
(1.15365 0.406465 6.44639e-20)
(1.09019 0.390308 -1.2083e-19)
(1.02839 0.368029 0)
(0.978578 0.342712 -6.09998e-20)
(0.947904 0.320415 -1.59718e-21)
(0.930869 0.301943 -8.99455e-20)
(0.896518 0.27918 0)
(0.770356 0.231616 -6.48057e-20)
(0.531293 0.154446 -1.53848e-19)
(0.275958 0.0790055 4.09578e-19)
(0.087722 0.0245658 -4.03609e-19)
(-0.00924544 -0.00315855 5.72506e-19)
(-0.0146114 -0.00434933 -5.94749e-19)
(0.246177 0.0870885 -4.184e-22)
(1.13977 0.394227 6.03609e-21)
(1.33952 0.469993 8.02789e-21)
(1.37757 0.493564 2.5313e-21)
(1.33915 0.493135 -1.06963e-20)
(1.27466 0.483209 0)
(1.20887 0.470748 -3.05558e-20)
(1.14259 0.455141 -6.71546e-20)
(1.07608 0.434687 -6.24383e-20)
(1.01099 0.407947 0)
(0.958243 0.378584 -6.30263e-20)
(0.925354 0.353195 -7.8983e-20)
(0.906135 0.332125 9.77691e-20)
(0.869195 0.306068 -5.96023e-20)
(0.745825 0.253664 -2.83881e-19)
(0.518687 0.170648 1.68524e-19)
(0.276182 0.0891608 4.99649e-20)
(0.0930735 0.0288287 0)
(-0.00524775 -0.00275331 -5.55314e-19)
(-0.0140604 -0.00485791 -2.03899e-20)
(0.240998 0.0965981 6.20047e-21)
(1.13209 0.445128 -9.24797e-21)
(1.33485 0.530382 -5.63042e-21)
(1.37159 0.555483 1.3211e-20)
(1.33148 0.552276 -3.41651e-20)
(1.2656 0.538614 5.45274e-20)
(1.19797 0.522304 6.60242e-20)
(1.12939 0.502767 -1.07236e-19)
(1.06019 0.478243 3.96403e-20)
(0.992099 0.447217 -2.6071e-19)
(0.936606 0.413918 -7.18792e-20)
(0.901566 0.385466 0)
(0.880313 0.361895 1.06347e-19)
(0.841544 0.332666 1.27988e-19)
(0.72245 0.275764 1.53267e-19)
(0.507436 0.187761 -1.8376e-19)
(0.277525 0.100492 -5.43046e-20)
(0.0998413 0.0345769 6.38013e-20)
(0.000627542 -0.00109252 0)
(-0.0127791 -0.00500966 -4.4414e-20)
(0.236982 0.105723 -8.9034e-20)
(1.12249 0.493229 5.11448e-20)
(1.32735 0.588093 7.69252e-21)
(1.36269 0.614653 4.14765e-21)
(1.3212 0.609032 -1.21224e-20)
(1.25426 0.592001 -4.09728e-21)
(1.18513 0.572195 -7.27876e-20)
(1.11458 0.549042 -3.89737e-20)
(1.04296 0.520715 -1.0888e-19)
(0.972086 0.48563 3.23929e-22)
(0.913986 0.448507 -2.24588e-19)
(0.876903 0.417076 1.92183e-19)
(0.853751 0.391054 -1.17417e-19)
(0.813572 0.35882 1.41726e-19)
(0.698745 0.297654 0)
(0.495371 0.205133 -1.00276e-19)
(0.277797 0.112246 2.47012e-22)
(0.106321 0.0412071 -2.79631e-19)
(0.007105 0.00146534 -4.10051e-20)
(-0.011057 -0.00484005 0)
(0.234006 0.114611 0)
(1.11192 0.538756 5.81101e-20)
(1.3179 0.643479 2.79661e-20)
(1.35168 0.670927 2.93598e-22)
(1.30901 0.663192 -1.96388e-20)
(1.24125 0.64315 0)
(1.17087 0.620199 -3.10248e-20)
(1.0986 0.593761 -1.04319e-21)
(1.02478 0.56194 2.33678e-19)
(0.951302 0.523044 -3.56164e-20)
(0.890703 0.482244 -1.62559e-19)
(0.851683 0.447941 9.96403e-20)
(0.826762 0.419496 -2.23769e-21)
(0.785293 0.384204 1.5091e-19)
(0.674139 0.318857 9.3227e-20)
(0.481497 0.222062 -2.16826e-19)
(0.275315 0.123904 2.56756e-19)
(0.110813 0.0481655 7.60815e-20)
(0.0129112 0.00454419 3.13359e-19)
(-0.0092066 -0.00443183 -8.3679e-19)
(0.232004 0.123409 -2.81647e-20)
(1.1011 0.5819 3.9048e-20)
(1.30716 0.695888 -2.71769e-20)
(1.33918 0.724276 -8.40385e-21)
(1.29548 0.714658 0)
(1.22708 0.691936 -2.05317e-20)
(1.15565 0.666189 1.06614e-19)
(1.08186 0.636803 8.47253e-20)
(1.00602 0.601806 0)
(0.930035 0.559372 -5.16656e-19)
(0.866998 0.515064 4.41063e-19)
(0.826109 0.477951 0)
(0.799519 0.447038 1.37879e-19)
(0.756791 0.408595 -2.23349e-21)
(0.648356 0.338974 -2.99165e-19)
(0.465695 0.237611 1.16901e-19)
(0.26992 0.134721 0)
(0.112538 0.0546606 4.11547e-19)
(0.0171187 0.00750034 0)
(-0.00756618 -0.0039605 -3.9712e-19)
(0.230821 0.132189 3.33943e-20)
(1.09044 0.622883 4.962e-20)
(1.29562 0.745408 -2.72374e-20)
(1.32567 0.774712 0)
(1.28107 0.763414 -1.02861e-20)
(1.21216 0.738323 0)
(1.13986 0.710096 -1.01739e-19)
(1.0647 0.678094 -3.77866e-20)
(0.986964 0.640255 4.06222e-20)
(0.908546 0.59457 -2.55839e-19)
(0.84308 0.546934 4.53515e-20)
(0.800356 0.506987 0)
(0.772189 0.473491 -2.94756e-19)
(0.728172 0.431688 2.1628e-21)
(0.621775 0.357382 0)
(0.447642 0.251355 1.13269e-21)
(0.2615 0.143925 3.77076e-19)
(0.111082 0.0599296 -3.55793e-19)
(0.0192136 0.00980252 1.05049e-19)
(-0.00635404 -0.00356672 0)
(0.230139 0.140846 0)
(1.08023 0.661785 5.91126e-20)
(1.28352 0.792212 3.83468e-20)
(1.31157 0.822287 -2.53578e-21)
(1.26616 0.80949 1.71196e-21)
(1.19685 0.782311 -4.60037e-20)
(1.12381 0.751904 3.91491e-20)
(1.04741 0.717604 -4.60444e-20)
(0.967886 0.67725 1.83276e-19)
(0.887061 0.628634 -4.09467e-19)
(0.819116 0.577834 -4.09185e-21)
(0.774528 0.534989 -1.28196e-19)
(0.744832 0.498756 4.79316e-19)
(0.699414 0.453233 -2.58437e-21)
(0.594485 0.373826 -2.33084e-19)
(0.42772 0.262836 -4.14521e-19)
(0.250474 0.151078 0)
(0.107167 0.0634688 0)
(0.0194533 0.0111305 1.13444e-19)
(-0.00557166 -0.0033469 -6.65785e-20)
(0.230159 0.149506 4.60713e-20)
(1.07062 0.698511 -1.33627e-19)
(1.27115 0.836399 -4.11255e-20)
(1.29721 0.86707 0)
(1.25103 0.852944 -1.50874e-21)
(1.18142 0.823927 -3.58256e-20)
(1.10776 0.791624 9.04102e-20)
(1.03024 0.755329 1.7715e-19)
(0.949009 0.712791 2.37105e-19)
(0.86578 0.661574 -3.33936e-19)
(0.795248 0.607783 -3.80536e-19)
(0.748694 0.562003 3.43152e-19)
(0.717423 0.522798 0)
(0.670491 0.472993 -1.06057e-19)
(0.566584 0.387932 -2.5224e-19)
(0.406063 0.271662 -2.98382e-19)
(0.237133 0.155767 -3.52298e-19)
(0.100954 0.0651718 1.04066e-19)
(0.0181843 0.0114435 -6.11007e-20)
(-0.00518216 -0.00331434 2.99827e-22)
(0.230301 0.158096 0)
(1.06172 0.733466 0)
(1.25876 0.878065 2.47916e-21)
(1.2828 0.909179 0)
(1.23593 0.893867 -1.9733e-20)
(1.16609 0.863233 1.89455e-20)
(1.09192 0.829284 0)
(1.01338 0.791282 2.02638e-20)
(0.930523 0.746881 3.94233e-19)
(0.844885 0.693414 -7.68969e-19)
(0.771607 0.63685 0)
(0.722896 0.588131 -2.21269e-19)
(0.689891 0.545581 -3.03639e-21)
(0.641303 0.490754 -2.32179e-21)
(0.538077 0.399392 2.7014e-19)
(0.382903 0.277566 -7.79697e-23)
(0.222039 0.15781 -7.59504e-19)
(0.0929893 0.064966 2.24008e-19)
(0.0158106 0.010862 6.61668e-20)
(-0.00503447 -0.00338118 0)
(0.230576 0.166556 -1.82119e-19)
(1.05329 0.766772 -8.90219e-20)
(1.24644 0.917302 -1.18193e-19)
(1.26852 0.948753 1.22263e-19)
(1.22102 0.932336 -5.03386e-20)
(1.15104 0.900294 0)
(1.07644 0.864931 5.15929e-20)
(0.996992 0.825489 -4.59235e-20)
(0.912583 0.779542 3.91345e-21)
(0.82454 0.72419 5.70413e-20)
(0.748325 0.665133 4.93303e-19)
(0.697158 0.613496 -7.75329e-20)
(0.662121 0.56711 -2.96235e-19)
(0.611696 0.506344 -1.23838e-19)
(0.509054 0.40788 1.46749e-19)
(0.358985 0.280288 9.65194e-23)
(0.205651 0.157099 2.04658e-19)
(0.0839284 0.0629563 -4.82192e-19)
(0.0127778 0.00953753 5.69905e-19)
(-0.00502922 -0.00352971 8.30715e-20)
(0.230778 0.174756 6.89327e-20)
(1.04534 0.798515 -4.99762e-20)
(1.23434 0.954209 6.23622e-21)
(1.25448 0.985924 7.69365e-20)
(1.20645 0.968462 1.7493e-20)
(1.13639 0.935182 -2.78391e-20)
(1.06145 0.898615 1.29743e-20)
(0.98119 0.857972 -1.90114e-19)
(0.895325 0.810778 -4.32343e-19)
(0.804879 0.753914 -4.57715e-19)
(0.725543 0.692734 0)
(0.671508 0.638229 -3.41999e-19)
(0.634004 0.587476 4.27824e-19)
(0.58143 0.519646 0)
(0.479437 0.413014 -3.14528e-19)
(0.334909 0.279348 1.8709e-19)
(0.189316 0.153471 -2.20154e-19)
(0.0750358 0.0594346 -2.59529e-19)
(0.00977597 0.00779396 -4.5915e-19)
(-0.00510632 -0.00372934 -3.57904e-19)
(0.231342 0.182831 -7.76819e-20)
(1.0377 0.82869 5.34696e-20)
(1.22249 0.988861 1.22488e-19)
(1.24078 1.02078 1.11525e-19)
(1.19232 1.00234 -3.30995e-20)
(1.12224 0.967987 -8.11971e-21)
(1.04705 0.930391 4.49175e-20)
(0.966072 0.888776 -1.93034e-19)
(0.878838 0.840612 -2.55694e-19)
(0.78603 0.782608 4.78351e-19)
(0.703388 0.719737 1.08481e-18)
(0.646015 0.662473 0)
(0.605439 0.606876 0)
(0.550131 0.530673 -1.427e-19)
(0.448889 0.414341 0)
(0.310899 0.273878 4.02165e-19)
(0.174431 0.146117 4.73361e-19)
(0.0683237 0.0543331 0)
(0.00803068 0.00598657 0)
(-0.0051564 -0.00390985 3.8468e-19)
(0.231584 0.190484 8.80972e-20)
(1.03041 0.857289 7.12388e-20)
(1.21098 1.02138 8.89085e-20)
(1.22749 1.05343 -1.06413e-19)
(1.17869 1.03408 -4.24937e-20)
(1.10865 0.998785 -1.63895e-21)
(1.03331 0.96032 -6.01441e-20)
(0.951703 0.917928 -5.75241e-22)
(0.863206 0.869054 -5.09143e-21)
(0.768088 0.810278 -4.56461e-21)
(0.682006 0.746191 5.58973e-19)
(0.620792 0.686382 0)
(0.576367 0.625604 4.3458e-19)
(0.517383 0.53961 3.04843e-19)
(0.416652 0.411643 7.35132e-19)
(0.286514 0.26259 2.1684e-19)
(0.162474 0.132314 -2.54764e-19)
(0.0681825 0.0444478 -1.49578e-19)
(0.0136923 0.00303359 0)
(-0.00306229 -0.00329145 4.13617e-19)
(0.232151 0.198157 -1.9819e-19)
(1.02342 0.884411 0)
(1.19978 1.05183 1.04118e-19)
(1.21464 1.08396 -8.98846e-20)
(1.16562 1.06377 5.64158e-20)
(1.09566 1.02766 1.94483e-20)
(1.02026 0.988459 1.07602e-19)
(0.938124 0.945465 -1.63718e-20)
(0.848474 0.896112 0)
(0.751139 0.836903 -5.2607e-19)
(0.661535 0.772108 -1.21446e-18)
(0.595994 0.710121 5.04312e-20)
(0.546837 0.643997 6.00943e-19)
(0.482873 0.546884 0)
(0.381526 0.405347 4.96877e-19)
(0.259451 0.244418 0)
(0.151357 0.106078 0)
(0.0793975 0.0154523 -1.61784e-19)
(0.0482394 -0.0116267 0)
(0.027192 0.0105558 1.10863e-19)
(0.232365 0.205251 -2.21154e-19)
(1.01668 0.910389 0)
(1.1889 1.0804 1.72936e-19)
(1.2022 1.1126 0)
(1.15306 1.09169 -3.38453e-20)
(1.08323 1.05491 0)
(1.00784 1.01512 3.7184e-21)
(0.925238 0.971723 2.62253e-20)
(0.834519 0.922146 3.20662e-20)
(0.735011 0.862868 -5.75626e-19)
(0.641782 0.797911 3.61859e-20)
(0.571381 0.734354 4.07701e-19)
(0.516407 0.662881 5.86815e-19)
(0.445689 0.553116 7.9448e-20)
(0.341512 0.396874 3.90182e-19)
(0.224607 0.220283 0)
(0.128769 0.0629202 5.37479e-19)
(0.0697896 -0.0283257 -3.13576e-19)
(0.0421725 0.0425734 3.6461e-19)
(-0.0690649 0.437651 -4.29514e-19)
(0.232579 0.21216 1.82995e-19)
(1.00995 0.934996 2.82717e-19)
(1.17825 1.10742 0)
(1.19001 1.1398 4.93193e-21)
(1.14083 1.11841 9.91401e-20)
(1.07108 1.0812 -7.32235e-20)
(0.995745 1.0411 3.18013e-20)
(0.912629 0.997634 0)
(0.820803 0.948235 2.08248e-19)
(0.719029 0.88947 -2.95712e-20)
(0.621825 0.825078 0)
(0.545681 0.760786 0)
(0.483073 0.68372 5.26428e-19)
(0.403432 0.558855 -2.46259e-19)
(0.293348 0.388079 -3.96199e-19)
(0.177088 0.193551 0)
(0.0751795 0.0724064 2.71391e-19)
(0.00324431 0.437922 -3.12983e-19)
(0.0328896 1.89309 -1.70247e-19)
(0.0620839 2.81309 -2.18498e-19)
(0.232629 0.218259 -1.37216e-19)
(1.00342 0.958423 -3.62366e-19)
(1.16782 1.13286 1.02471e-19)
(1.17808 1.16543 8.62108e-20)
(1.12893 1.1437 0)
(1.05928 1.10625 -6.18883e-20)
(0.984163 1.06609 3.50007e-20)
(0.900491 1.02277 -1.22285e-20)
(0.807599 0.97387 3.12964e-20)
(0.70358 0.916105 5.46268e-19)
(0.602267 0.852978 6.12957e-19)
(0.519809 0.789061 4.56992e-19)
(0.447648 0.706616 5.30402e-19)
(0.357638 0.563135 -5.80046e-19)
(0.242424 0.382637 -5.99426e-19)
(0.119647 0.237417 0)
(0.0422903 0.829998 0)
(0.099748 2.55227 1.49034e-19)
(0.100992 3.20273 0)
(0.10431 3.3887 3.52822e-19)
(0.23522 0.22389 0)
(0.997686 0.980874 0)
(1.15741 1.15659 0)
(1.1662 1.18933 2.58111e-20)
(1.11704 1.1673 9.03765e-20)
(1.04763 1.12993 -5.81209e-20)
(0.972988 1.08997 1.92667e-20)
(0.888785 1.04702 -1.16497e-20)
(0.794876 0.998917 2.54924e-19)
(0.688699 0.942639 -8.94237e-21)
(0.583273 0.88154 1.20839e-18)
(0.494067 0.819029 -5.29697e-20)
(0.410313 0.732663 6.41113e-20)
(0.310896 0.563673 8.41196e-20)
(0.179113 0.394525 -5.47182e-21)
(0.097547 0.960788 1.8471e-21)
(0.138381 2.72412 -7.92085e-19)
(0.146347 3.29303 -2.95587e-19)
(0.135654 3.42566 1.50933e-19)
(0.123432 3.44786 -1.67127e-19)
(0.153973 0.181202 8.10127e-20)
(0.986618 1.0051 0)
(1.14663 1.17879 -2.04132e-19)
(1.15487 1.212 -2.32458e-19)
(1.10603 1.19005 2.09414e-19)
(1.03705 1.15294 6.60195e-20)
(0.962172 1.11284 -1.52929e-20)
(0.877624 1.07054 1.15891e-19)
(0.782808 1.02355 -2.05832e-19)
(0.674682 0.969252 0)
(0.565266 0.910998 5.91346e-19)
(0.469017 0.850555 -3.72535e-19)
(0.372605 0.764587 0)
(0.257076 0.56109 7.84721e-20)
(0.141759 0.735306 1.877e-19)
(0.154103 2.49753 -2.17308e-19)
(0.21066 3.32224 2.42853e-19)
(0.191061 3.43789 1.29201e-19)
(0.15911 3.45964 1.4418e-19)
(0.137579 3.47007 2.25524e-19)
(0.27808 0.26183 -1.48227e-19)
(0.971265 1.01481 0)
(1.12849 1.20413 2.21646e-19)
(1.13991 1.24242 2.52852e-19)
(1.08864 1.22308 -2.29888e-19)
(1.0189 1.18634 -8.89981e-20)
(0.943095 1.14788 -8.60428e-21)
(0.858032 1.10681 9.31445e-21)
(0.761892 1.06202 1.9047e-19)
(0.650996 1.01169 4.62519e-19)
(0.536273 0.959972 3.28844e-20)
(0.429058 0.90482 3.29929e-19)
(0.303414 0.801285 5.99579e-20)
(0.211971 0.91436 -7.69918e-20)
(0.228549 2.34543 -1.73955e-19)
(0.290178 3.32394 1.62865e-19)
(0.273096 3.46612 -1.77693e-19)
(0.237769 3.48836 -1.01922e-19)
(0.200798 3.51631 -8.12559e-20)
(0.149357 3.51073 -9.61172e-21)
(0.265937 0.258705 0)
(0.96886 1.0374 6.35603e-20)
(1.12012 1.22758 -4.55605e-20)
(1.12927 1.26606 -2.99637e-20)
(1.07781 1.24627 -1.58063e-19)
(1.00802 1.20976 9.1211e-20)
(0.931889 1.17144 1.35704e-20)
(0.846623 1.13118 7.94491e-21)
(0.749948 1.08789 -1.94949e-19)
(0.637735 1.04045 -1.3691e-20)
(0.520162 0.993715 -1.0598e-18)
(0.407732 0.942968 4.72199e-20)
(0.284755 0.866105 -5.63016e-20)
(0.254554 1.47393 -7.06581e-20)
(0.330329 3.09838 1.81599e-20)
(0.349515 3.46321 2.24966e-22)
(0.309219 3.51983 2.42669e-19)
(0.271883 3.54704 1.12977e-19)
(0.223239 3.57085 -1.75848e-20)
(0.164271 3.56717 -4.0299e-20)
(0.249779 0.25722 1.60611e-19)
(0.964871 1.06267 4.33328e-19)
(1.11136 1.25313 -1.3062e-19)
(1.11804 1.29111 -1.13214e-19)
(1.06634 1.2708 0)
(0.996698 1.23435 1.57847e-19)
(0.920555 1.19627 3.46223e-20)
(0.835365 1.15681 6.46034e-21)
(0.738476 1.11511 -2.19887e-20)
(0.625475 1.07084 -4.08229e-19)
(0.505883 1.02948 -4.84266e-19)
(0.389883 0.982394 -3.82351e-19)
(0.286437 0.994635 -4.24622e-19)
(0.324819 2.19635 4.39328e-19)
(0.418019 3.37221 3.58854e-19)
(0.39433 3.52059 0)
(0.348875 3.56633 0)
(0.31078 3.60778 -1.20304e-20)
(0.259912 3.66835 0)
(0.176923 3.64474 4.24042e-22)
(0.239146 0.259139 -2.40137e-19)
(0.958951 1.08903 -3.6739e-19)
(1.10116 1.27986 0)
(1.10544 1.31687 5.91005e-21)
(1.0536 1.29593 -1.68755e-19)
(0.984249 1.25942 2.51957e-19)
(0.908428 1.22164 3.09758e-20)
(0.82352 1.18288 1.56139e-21)
(0.726657 1.14271 -1.28219e-19)
(0.61328 1.1016 1.96478e-20)
(0.492593 1.06573 0)
(0.371584 1.02345 0)
(0.307928 1.25083 -3.83444e-19)
(0.409327 2.87695 1.5482e-19)
(0.490447 3.47975 1.90788e-19)
(0.441711 3.55318 0)