/*--------------------------------*- C++ -*----------------------------------*\
  =========                 |
  \\      /  F ield         | OpenFOAM: The Open Source CFD Toolbox
   \\    /   O peration     | Website:  https://openfoam.org
    \\  /    A nd           | Version:  10
     \\/     M anipulation  |
\*---------------------------------------------------------------------------*/
FoamFile
{
    format      ascii;
    class       volScalarField;
    location    "7";
    object      p;
}
// * * * * * * * * * * * * * * * * * * * * * * * * * * * * * * * * * * * * * //

dimensions      [1 -1 -2 0 0 0 0];

internalField   nonuniform List<scalar> 
16128
(
1
1
1
1
1
1
1
1
1
1
1
1
1
1
1
1
1
1
1
1
1
1
1
1
4.93557
10.2652
10.5313
10.6182
10.7347
10.84
10.9426
11.0411
11.1362
11.2266
11.3115
11.392
11.471
11.5483
11.6199
11.6837
11.7432
11.8015
11.8579
11.9067
11.9473
11.9763
11.9959
12.0165
1
1
1
1
1
1
1
1
1
1
1
1
1
1
1
1
1
1
1
1
1
1
1
1
4.85792
10.2286
10.5249
10.6136
10.73
10.8353
10.9378
11.0358
11.1302
11.2201
11.305
11.3855
11.4638
11.5395
11.6098
11.6734
11.7334
11.7913
11.8459
11.8921
11.9314
11.9607
11.9808
12.0038
1
1
1
1
1
1
1
1
1
1
1
1
1
1
1
1
1
1
1
1
1
1
1
1
4.6876
10.1857
10.5092
10.6003
10.7174
10.8235
10.9264
11.0243
11.1182
11.2082
11.2936
11.3744
11.4515
11.5255
11.595
11.6595
11.7201
11.7762
11.8268
11.8696
11.9081
11.9386
11.9575
11.9795
1
1
1
1
1
1
1
1
1
1
1
1
1
1
1
1
1
1
1
1
1
1
1
1
4.44008
10.1164
10.4908
10.5838
10.7011
10.8072
10.9096
11.0067
11.0994
11.1887
11.2741
11.3546
11.4307
11.5031
11.572
11.6372
11.6982
11.7526
11.8002
11.8409
11.879
11.9105
11.92
11.9347
1
1
1
1
1
1
1
1
1
1
1
1
1
1
1
1
1
1
1
1
1
1
1
1
4.12083
10.0118
10.4686
10.5633
10.6804
10.7861
10.8877
10.9836
11.0747
11.1626
11.247
11.3268
11.4016
11.4721
11.5394
11.6037
11.6638
11.7161
11.7618
11.8026
11.8416
11.8752
11.8759
11.8822
1
1
1
1
1
1
1
1
1
1
1
1
1
1
1
1
1
1
1
1
1
1
1
1
3.73121
9.85973
10.4446
10.5409
10.6582
10.7636
10.8646
10.9595
11.0492
11.1352
11.2182
11.2967
11.37
11.4383
11.503
11.5645
11.6219
11.6717
11.7153
11.7544
11.7887
11.8165
11.8174
11.8287
1
1
1
1
1
1
1
1
1
1
1
1
1
1
1
1
1
1
1
1
1
1
1
1
3.28761
9.63695
10.4183
10.514
10.6305
10.7342
10.8336
10.9271
11.015
11.0985
11.179
11.2555
11.3273
11.3937
11.4558
11.5143
11.5689
11.617
11.6595
11.6961
11.7246
11.7464
11.7477
11.7755
1
1
1
1
1
1
1
1
1
1
1
1
1
1
1
1
1
1
1
1
1
1
1
1
2.8046
9.32082
10.3993
10.4881
10.6016
10.7006
10.796
10.8858
10.9705
11.0506
11.1278
11.2018
11.2719
11.3369
11.3967
11.452
11.5038
11.5503
11.5925
11.6288
11.6544
11.6693
11.6438
11.7026
1
1
1
1
1
1
1
1
1
1
1
1
1
1
1
1
1
1
1
1
1
1
1
1
2.31304
8.89421
10.409
10.4659
10.5752
10.6691
10.7616
10.8484
10.9297
11.0055
11.078
11.1472
11.2133
11.2744
11.3301
11.3805
11.4277
11.4702
11.5085
11.5407
11.562
11.5771
11.542
11.6027
1
1
1
1
1
1
1
1
1
1
1
1
1
1
1
1
1
1
1
1
1
1
1
1
1.81335
8.32164
10.4193
10.4391
10.5451
10.6304
10.7184
10.8021
10.8816
10.9543
11.0228
11.0872
11.1482
11.204
11.2541
11.2984
11.3395
11.3771
11.411
11.439
11.4553
11.4651
11.4182
11.4793
1
1
1
1
1
1
1
1
1
1
1
1
1
1
1
1
1
1
1
1
1
1
1
1
1.34791
7.67646
10.4668
10.388
10.4874
10.5707
10.6612
10.7451
10.8225
10.8933
10.9588
11.0191
11.075
11.125
11.1688
11.206
11.2389
11.2681
11.2924
11.3112
11.3203
11.3229
11.2678
11.3365
1
1
1
1
1
1
1
1
1
1
1
1
1
1
1
1
1
1
1
1
1
1
1
1
1.02173
6.88838
10.321
10.3157
10.416
10.4994
10.5866
10.6706
10.7512
10.8222
10.8847
10.941
10.9917
11.0353
11.0719
11.1007
11.1231
11.1425
11.157
11.1684
11.1679
11.1536
11.0827
11.135
1
1
1
1
1
1
1
1
1
1
1
1
1
1
1
1
1
1
1
1
1
1
1
1
1.00011
5.85361
10.0994
10.2305
10.3429
10.4412
10.5277
10.6061
10.6715
10.7374
10.798
10.8505
10.896
10.9332
10.962
10.9817
10.9926
10.9996
10.9976
10.9886
10.9604
10.9233
10.8346
10.8973
1
1
1
1
1
1
1
1
1
1
1
1
1
1
1
1
1
1
1
1
1
1
1
1
0.999999
4.79921
9.82558
10.1437
10.2582
10.3612
10.4429
10.5148
10.5825
10.6432
10.6956
10.7434
10.7838
10.8145
10.8356
10.8455
10.8418
10.8323
10.8091
10.7804
10.7318
10.67
10.5416
10.5196
1
1
1
1
1
1
1
1
1
1
1
1
1
1
1
1
1
1
1
1
1
1
1
1
1
3.7047
9.39949
10.0982
10.2261
10.3164
10.3867
10.4437
10.4936
10.54
10.5866
10.6265
10.6585
10.682
10.6947
10.6913
10.6724
10.6442
10.5954
10.5333
10.4263
10.2712
10.0576
9.99896
1
1
1
1
1
1
1
1
1
1
1
1
1
1
1
1
1
1
1
1
1
1
1
1
1
2.61463
8.73515
10.0902
10.1691
10.2476
10.3164
10.3705
10.4131
10.4484
10.4784
10.5057
10.5257
10.539
10.5379
10.5205
10.4837
10.4307
10.3455
10.2352
10.066
9.86719
9.55502
9.50635
1
1
1
1
1
1
1
1
1
1
1
1
1
1
1
1
1
1
1
1
1
1
1
1
1
1.59149
7.93296
10.174
10.1173
10.1891
10.248
10.2915
10.3256
10.3526
10.3727
10.388
10.3938
10.3936
10.3744
10.3404
10.2805
10.1982
10.0742
9.91928
9.66333
9.29599
8.38221
6.35441
1
1
1
1
1
1
1
1
1
1
1
1
1
1
1
1
1
1
1
1
1
1
1
1
1
1.0459
6.75823
10.1155
10.0386
10.0871
10.1482
10.1949
10.2285
10.2506
10.2619
10.2653
10.2577
10.2403
10.2042
10.1521
10.0669
9.95356
9.78649
9.56511
9.21023
8.59136
7.61909
5.35156
1
1
1
1
1
1
1
1
1
1
1
1
1
1
1
1
1
1
1
1
1
1
1
1
1
1.00011
5.18531
9.64194
9.86456
9.97411
10.0377
10.0868
10.1237
10.1424
10.1479
10.1413
10.1201
10.0863
10.0328
9.96194
9.85081
9.70555
9.496
9.20765
8.7827
8.10963
7.00872
5.10312
1
1
1
1
1
1
1
1
1
1
1
1
1
1
1
1
1
1
1
1
1
1
1
1
1
0.999998
3.64551
9.18999
9.85288
9.92589
9.97569
10.0007
10.0233
10.0323
10.0303
10.015
9.98038
9.93072
9.85868
9.76702
9.63445
9.46106
9.21554
8.87973
8.39876
7.72159
6.5933
5.05781
1
1
1
1
1
1
1
1
1
1
1
1
1
1
1
1
1
1
1
1
1
1
1
1
1
1
2.1792
8.37869
9.86574
9.85543
9.8922
9.91719
9.93402
9.93049
9.91685
9.88919
9.8414
9.77726
9.68689
9.57412
9.4232
9.22587
8.95489
8.59039
8.09035
7.40789
6.36921
5.17477
1
1
1
1
1
1
1
1
1
1
1
1
1
1
1
1
1
1
1
1
1
1
1
1
1
1
1.14766
7.123
9.92173
9.82496
9.80737
9.8235
9.82947
9.81662
9.79431
9.75764
9.70122
9.62582
9.52047
9.38921
9.22098
9.00232
8.7172
8.33978
7.84389
7.17734
6.27416
5.29541
1
1
1
1
1
1
1
1
1
1
1
1
1
1
1
1
1
1
1
1
1
1
1
1
1
1
1.00189
5.41604
9.40707
9.62253
9.68125
9.70884
9.71214
9.69659
9.66717
9.62279
9.55821
9.47297
9.35716
9.21206
9.02957
8.79752
8.50421
8.12478
7.6429
7.01911
6.24155
5.42276
1
1
1
1
1
1
1
1
1
1
1
1
1
1
1
1
1
1
1
1
1
1
1
1
1
1
0.999976
3.44307
8.8589
9.56304
9.61538
9.63287
9.62202
9.59688
9.55673
9.50223
9.42722
9.33104
9.20596
9.04959
8.8548
8.614
8.31732
7.94384
7.48038
6.9082
6.24308
5.52741
1
1
1
1
1
1
1
1
1
1
1
1
1
1
1
1
1
1
1
1
1
1
1
1
1
1
0.999994
1.73947
8.00429
9.62489
9.55397
9.54217
9.51828
9.48513
9.4375
9.37592
9.29348
9.18939
9.05685
8.8933
8.6921
8.4483
8.15374
7.79207
7.34825
6.8297
6.25265
5.62203
1
1
1
1
1
1
1
1
1
1
1
1
1
1
1
1
1
1
1
1
1
1
1
1
1
1
0.999999
1.0551
6.38036
9.3936
9.38106
9.40604
9.39053
9.36628
9.3197
9.25496
9.16761
9.05817
8.92016
8.75148
8.54627
8.30193
8.0115
7.66167
7.24163
6.77383
6.25975
5.70139
1
1
1
1
1
1
1
1
1
1
1
1
1
1
1
1
1
1
1
1
1
1
1
1
1
1
1
1.00008
4.11648
8.86624
9.3089
9.3409
9.31243
9.27724
9.22123
9.14731
9.05139
8.934
8.79134
8.61982
8.413
8.174
7.88631
7.54781
7.15815
6.73361
6.26664
5.77351
1
1
1
1
1
1
1
1
1
1
1
1
1
1
1
1
1
1
1
1
1
1
1
1
1
1
1
0.999998
2.01998
8.11923
9.33411
9.2594
9.21251
9.1711
9.11426
9.03721
8.93709
8.81586
8.66848
8.49928
8.29152
8.05815
7.77248
7.44955
7.09033
6.70409
6.26871
5.83018
1
1
1
1
1
1
1
1
1
1
1
1
1
1
1
1
1
1
1
1
1
1
1
1
1
1
1
1
1.09323
6.36952
9.1359
9.13619
9.10595
9.06838
9.01209
8.93306
8.83027
8.70677
8.55869
8.38601
8.1866
7.95211
7.67824
7.37172
7.03793
6.68153
6.27663
5.88353
1
1
1
1
1
1
1
1
1
1
1
1
1
1
1
1
1
1
1
1
1
1
1
1
1
1
1
1
1.00045
3.81663
8.59635
9.0524
9.02703
8.99928
8.94177
8.85193
8.73906
8.60852
8.45653
8.28202
8.08837
7.85403
7.59518
7.30483
6.99355
6.65793
6.28521
5.92453
1
1
1
1
1
1
1
1
1
1
1
1
1
1
1
1
1
1
1
1
1
1
1
1
1
1
1
1
0.999996
1.59188
7.68332
9.18358
9.0025
8.92211
8.84953
8.75199
8.63838
8.51076
8.36203
8.18692
7.99799
7.7722
7.52627
7.25086
6.9592
6.64066
6.29909
5.96114
1
1
1
1
1
1
1
1
1
1
1
1
1
1
1
1
1
1
1
1
1
1
1
1
1
1
1
1
0.999999
1.03082
5.71424
8.75755
8.79168
8.81258
8.74488
8.64749
8.53931
8.41743
8.27203
8.10315
7.91253
7.69957
7.46375
7.2019
6.9265
6.62413
6.30884
5.98855
1
1
1
1
1
1
1
1
1
1
1
1
1
1
1
1
1
1
1
1
1
1
1
1
1
1
1
1
1
0.999943
2.94482
8.09811
8.78518
8.76009
8.67198
8.57761
8.47337
8.35112
8.20374
8.0345
7.84362
7.63498
7.40614
7.15834
6.89699
6.61179
6.3181
6.01342
1
1
1
1
1
1
1
1
1
1
1
1
1
1
1
1
1
1
1
1
1
1
1
1
1
1
1
1
1
0.999982
1.26851
6.6542
8.82703
8.67971
8.58569
8.49576
8.39505
8.27441
8.12916
7.96367
7.77943
7.57742
7.35576
7.11904
6.86764
6.59816
6.32093
6.0325
1
1
1
1
1
1
1
1
1
1
1
1
1
1
1
1
1
1
1
1
1
1
1
1
1
1
1
1
1
0.999997
1.00573
4.06346
8.24672
8.51333
8.48615
8.42762
8.33521
8.21488
8.07029
7.90767
7.7275
7.52934
7.31313
7.08292
6.83949
6.58568
6.32263
6.05149
1
1
1
1
1
1
1
1
1
1
1
1
1
1
1
1
1
1
1
1
1
1
1
1
1
1
1
1
1
1
0.999982
1.58531
7.14589
8.64475
8.49368
8.39679
8.2868
8.15563
8.00879
7.84888
7.67366
7.48115
7.27316
7.05109
6.81696
6.57591
6.32528
6.0682
1
1
1
1
1
1
1
1
1
1
1
1
1
1
1
1
1
1
1
1
1
1
1
1
1
1
1
1
1
1
0.999995
1.02824
4.83149
8.24895
8.34318
8.3009
8.20881
8.08727
7.94773
7.79372
7.62362
7.43675
7.23628
7.02219
6.79655
6.56516
6.32716
6.0806
1
1
1
1
1
1
1
1
1
1
1
1
1
1
1
1
1
1
1
1
1
1
1
1
1
1
1
1
1
1
0.999999
1.00002
1.90101
7.3781
8.45101
8.30307
8.17981
8.04915
7.90554
7.74901
7.57812
7.39391
7.19898
6.9932
6.7777
6.55643
6.33176
6.09518
1
1
1
1
1
1
1
1
1
1
1
1
1
1
1
1
1
1
1
1
1
1
1
1
1
1
1
1
1
1
1
1
1.06311
5.27058
8.17431
8.18996
8.10665
7.98809
7.84979
7.69601
7.52831
7.34969
7.16158
6.96543
6.76116
6.54888
6.33489
6.10997
1
1
1
1
1
1
1
1
1
1
1
1
1
1
1
1
1
1
1
1
1
1
1
1
1
1
1
1
1
1
1
1
1.00025
2.16383
7.3617
8.22405
8.0805
7.95156
7.81063
7.65686
7.4912
7.31725
7.13541
6.94635
6.74986
6.54465
6.3386
6.12638
1
1
1
1
1
1
1
1
1
1
1
1
1
1
1
1
1
1
1
1
1
1
1
1
1
1
1
1
1
1
1
1
1
1.0997
5.36231
8.0489
8.0112
7.89376
7.75976
7.61044
7.45022
7.2822
7.10618
6.92329
6.73417
6.53839
6.34072
6.1397
1
1
1
1
1
1
1
1
1
1
1
1
1
1
1
1
1
1
1
1
1
1
1
1
1
1
1
1
1
1
1
1
1
1.00075
2.23297
7.18987
8.01806
7.86101
7.72659
7.57674
7.41933
7.25599
7.0854
6.9086
6.72667
6.53882
6.34944
6.15265
1
1
1
1
1
1
1
1
1
1
1
1
1
1
1
1
1
1
1
1
1
1
1
1
1
1
1
1
1
1
1
1
1
1
1.10966
5.16753
7.85885
7.80984
7.67784
7.53347
7.38247
7.22621
7.06212
6.89287
6.71788
6.53733
6.35123
6.15632
1
1
1
1
1
1
1
1
1
1
1
1
1
1
1
1
1
1
1
1
1
1
1
1
1
1
1
1
1
1
1
1
1
1
1.00102
2.14117
6.87737
7.7973
7.63772
7.50491
7.35939
7.20732
7.0473
6.88478
6.71594
6.53766
6.35701
6.15991
1
1
1
1
1
1
1
1
1
1
1
1
1
1
1
1
1
1
1
1
1
1
1
1
1
1
1
1
1
1
1
1
1
1
1
1.09339
4.64425
7.595
7.6029
7.47267
7.33017
7.18276
7.03063
6.87501
6.70911
6.53254
6.35022
6.20582
1
1
1
1
1
1
1
1
1
1
1
1
1
1
1
1
1
1
1
1
1
1
1
1
1
1
1
1
1
1
1
1
1
1
1
1.00092
1.87571
6.38365
7.59867
7.4474
7.3144
7.17167
7.02469
6.87127
6.70339
6.53464
6.4204
6.49295
1
1
1
1
1
1
1
1
1
1
1
1
1
1
1
1
1
1
1
1
1
1
1
1
1
1
1
1
1
1
1
1
1
1
1
1
1.05653
3.7612
7.23753
7.42406
7.28827
7.15771
7.01771
6.85526
6.70282
6.59718
6.75618
7.26854
1
1
1
1
1
1
1
1
1
1
1
1
1
1
1
1
1
1
1
1
1
1
1
1
1
1
1
1
1
1
1
1
1
1
1
1
1.00052
1.51233
5.70325
7.46115
7.28973
7.16866
7.00817
6.85917
6.78961
7.03277
7.67948
8.24239
1
1
1
1
1
1
1
1
1
1
1
1
1
1
1
1
1
1
1
1
1
1
1
1
1
1
1
1
1
1
1
1
1
1
1
1
1
1.02097
2.79172
6.68553
7.27788
7.13924
6.98682
6.90656
7.25214
8.0682
8.63305
8.80558
1
1
1
1
1
1
1
1
1
1
1
1
1
1
1
1
1
1
1
1
1
1
1
1
1
1
1
1
1
1
1
1
1
1
1
1
1
1.00016
1.22147
4.64386
7.293
7.09179
7.04441
7.50769
8.49702
9.12868
9.21623
9.02367
1
1
1
1
1
1
1
1
1
1
1
1
1
1
1
1
1
1
1
1
1
1
1
1
1
1
1
1
1
1
1
1
1
1
1
1
1
1
1.00474
1.95879
6.14975
6.92833
7.66973
8.89304
9.52977
9.57985
9.38918
9.10175
1
1
1
1
1
1
1
1
1
1
1
1
1
1
1
1
1
1
1
1
1
1
1
1
1
1
1
1
1
1
1
1
1
1
1
1
1
1
1.00002
1.0683
3.34856
6.74755
9.43546
10.0668
10.0009
9.7495
9.45051
9.16602
1
1
1
1
1
1
1
1
1
1
1
1
1
1
1
1
1
1
1
1
1
1
1
1
1
1
1
1
1
1
1
1
1
1
1
1
1
1
1
1.00086
1.36171
6.76384
10.8322
10.4824
10.0892
9.76748
9.51148
9.27456
1
1
1
1
1
1
1
1
1
1
1
1
1
1
1
1
1
1
1
1
1
1
1
1
1
1
1
1
1
1
1
1
1
1
1
1
1
1
1
1
1.01182
6.22843
11.0327
10.4706
10.0598
9.79363
9.61262
9.3783
1
1
1
1
1
1
1
1
1
1
1
1
1
1
1
1
1
1
1
1
1
1
1
1
1
1
1
1
1
1
1
1
1
1
1
1
1
1
1
1
1.00005
5.41104
10.6139
10.2172
10.0259
9.85293
9.69355
9.52961
1
1
1
1
1
1
1
1
1
1
1
1
1
1
1
1
1
1
1
1
1
1
1
1
1
1
1
1
1
1
1
1
1
1
1
1
1
1
1
1
1
4.77338
10.124
10.1454
10.0491
9.9507
9.83729
9.68994
1
1
1
1
1
1
1
1
1
1
1
1
1
1
1
1
1
1
1
1
1
1
1
1
1
1
1
1
1
1
1
1
1
1
1
1
1
1
1
1
1
3.90264
9.61508
10.1125
10.0789
9.9998
9.87121
9.72459
1
1
1
1
1
1
1
1
1
1
1
1
1
1
1
1
1
1
1
1
1
1
1
1
1
1
1
1
1
1
1
1
1
1
1
1
1
1
1
1
1
3.07171
9.10745
10.1356
10.0361
9.98261
9.91882
9.80853
1
1
1
1
1
1
1
1
1
1
1
1
1
1
1
1
1
1
1
1
1
1
1
1
1
1
1
1
1
1
1
1
1
1
1
1
1
1
1
1
1
2.23361
8.57379
10.2585
10.1207
10.0316
9.92288
9.8225
1
1
1
1
1
1
1
1
1
1
1
1
1
1
1
1
1
1
1
1
1
1
1
1
1
1
1
1
1
1
1
1
1
1
1
1
1
1
1
1
1
1.51163
7.94051
10.3597
10.1747
10.0575
9.95208
9.86553
1
1
1
1
1
1
1
1
1
1
1
1
1
1
1
1
1
1
1
1
1
1
1
1
1
1
1
1
1
1
1
1
1
1
1
1
1
1
1
1
1
1.09884
7.28481
10.3742
10.1614
10.0447
9.95759
9.87294
1
1
1
1
1
1
1
1
1
1
1
1
1
1
1
1
1
1
1
1
1
1
1
1
1
1
1
1
1
1
1
1
1
1
1
1
1
1
1
1
1
1.00203
6.50008
10.2699
10.1516
10.0717
9.98834
9.89797
1
1
1
1
1
1
1
1
1
1
1
1
1
1
1
1
1
1
1
1
1
1
1
1
1
1
1
1
1
1
1
1
1
1
1
1
1
1
1
1
1
1.00001
5.66521
10.1433
10.1815
10.0888
10.0047
9.91562
1
1
1
1
1
1
1
1
1
1
1
1
1
1
1
1
1
1
1
1
1
1
1
1
1
1
1
1
1
1
1
1
1
1
1
1
1
1
1
1
1
1
4.9415
9.969
10.1788
10.0841
10.0163
9.93355
1
1
1
1
1
1
1
1
1
1
1
1
1
1
1
1
1
1
1
1
1
1
1
1
1
1
1
1
1
1
1
1
1
1
1
1
1
1
1
1
1
1
4.23845
9.79192
10.215
10.1108
10.046
9.96258
1
1
1
1
1
1
1
1
1
1
1
1
1
1
1
1
1
1
1
1
1
1
1
1
1
1
1
1
1
1
1
1
1
1
1
1
1
1
1
1
1
1
3.59951
9.57328
10.2567
10.1321
10.0673
9.98456
1
1
1
1
1
1
1
1
1
1
1
1
1
1
1
1
1
1
1
1
1
1
1
1
1
1
1
1
1
1
1
1
1
1
1
1
1
1
1
1
1
1
3.04494
9.31585
10.3073
10.1574
10.0873
10.0025
1
1
1
1
1
1
1
1
1
1
1
1
1
1
1
1
1
1
1
1
1
1
1
1
1
1
1
1
1
1
1
1
1
1
1
1
1
1
1
1
1
1
2.55408
9.05126
10.3539
10.1839
10.1088
10.0226
1
1
1
1
1
1
1
1
1
1
1
1
1
1
1
1
1
1
1
1
1
1
1
1
1
1
1
1
1
1
1
1
1
1
1
1
1
1
1
1
1
1
2.13045
8.78524
10.3819
10.2062
10.1278
10.0405
1
1
1
1
1
1
1
1
1
1
1
1
1
1
1
1
1
1
1
1
1
1
1
1
1
1
1
1
1
1
1
1
1
1
1
1
1
1
1
1
1
1
1.82109
8.47492
10.4053
10.2251
10.1445
10.0569
1
1
1
1
1
1
1
1
1
1
1
1
1
1
1
1
1
1
1
1
1
1
1
1
1
1
1
1
1
1
1
1
1
1
1
1
1
1
1
1
1
1
1.61063
8.15603
10.4105
10.2385
10.1586
10.0714
1
1
1
1
1
1
1
1
1
1
1
1
1
1
1
1
1
1
1
1
1
1
1
1
1
1
1
1
1
1
1
1
1
1
1
1
1
1
1
1
1
1
1.45221
7.84488
10.404
10.251
10.1711
10.0849
1
1
1
1
1
1
1
1
1
1
1
1
1
1
1
1
1
1
1
1
1
1
1
1
1
1
1
1
1
1
1
1
1
1
1
1
1
1
1
1
1
1
1.32826
7.55363
10.3878
10.2606
10.1813
10.0956
1
1
1
1
1
1
1
1
1
1
1
1
1
1
1
1
1
1
1
1
1
1
1
1
1
1
1
1
1
1
1
1
1
1
1
1
1
1
1
1
1
1
1.23753
7.30736
10.3667
10.2617
10.1824
10.1008
1
1
1
1
1
1
1
1
1
1
1
1
1
1
1
1
1
1
1
1
1
1
1
1
1
1
1
1
1
1
1
1
1
1
1
1
1
1
1
1
1
1
1.14699
7.05995
10.3511
10.2654
10.1874
10.1094
1
1
1
1
1
1
1
1
1
1
1
1
1
1
1
1
1
1
1
1
1
1
1
1
1
1
1
1
1
1
1
1
1
1
1
1
1
1
1
1
1
1
1.05832
6.89428
10.3565
10.2802
10.1945
10.1172
1
1
1
1
1
1
1
1
1
1
1
1
1
1
1
1
1
1
1
1
1
1
1
1
1
1
1
1
1
1
1
1
1
1
1
1
1
1
1
1
1
1
1.00231
6.71517
10.3632
10.299
10.2014
10.1235
1
1
1
1
1
1
1
1
1
1
1
1
1
1
1
1
1
1
1
1
1
1
1
1
1
1
1
1
1
1
1
1
1
1
1
1
1
1
1
1
1
1
1.00002
6.54958
10.3587
10.3129
10.2049
10.1286
1
1
1
1
1
1
1
1
1
1
1
1
1
1
1
1
1
1
1
1
1
1
1
1
1
1
1
1
1
1
1
1
1
1
1
1
1
1
1
1
1
1
1
6.43902
10.3522
10.3246
10.2071
10.1313
1
1
1
1
1
1
1
1
1
1
1
1
1
1
1
1
1
1
1
1
1
1
1
1
1
1
1
1
1
1
1
1
1
1
1
1
1
1
1
1
1
1
1
6.38846
10.3389
10.3308
10.209
10.1338
1.23472
0.203781
0.0160017
0.00850148
0.0294359
0.0980485
0.150442
0.188041
0.233476
0.277204
0.32023
0.389666
0.457004
0.52026
0.587559
0.673298
0.760674
0.841118
0.946048
1.00937
1.0251
1.00307
0.984902
0.999617
1.00402
1.02639
1.09541
1.15016
1.18264
1.19161
1.14779
1.12471
1.13297
1.18449
1.27434
1.29428
3.02763
4.89183
5.09406
5.32579
5.43159
5.42377
5.40328
5.45746
5.51397
5.55756
5.55582
5.53941
5.53157
5.539
5.55541
5.56261
5.55981
5.55112
5.54519
5.54986
5.57063
5.59881
5.61452
5.60841
5.57797
5.54034
5.51258
5.49677
5.48387
5.46641
5.44358
5.41802
5.39172
5.36639
5.3445
5.32721
5.31361
5.30067
5.28504
5.26558
5.24439
5.22379
5.2034
5.18114
5.15594
5.12903
5.10261
5.07769
5.0534
5.02806
5.00074
4.97191
4.94276
4.91415
4.88604
4.85784
4.82904
4.79967
4.77048
4.74263
4.71692
4.69327
4.67043
4.64623
4.61852
4.58672
4.5526
4.51856
4.48584
4.45444
4.42317
4.39078
4.35693
4.32201
4.28683
4.25245
4.22031
4.19126
4.164
4.13614
4.10616
4.07341
4.03781
4.00005
3.96195
3.92561
3.89286
3.86505
3.84181
3.82016
3.79665
3.76886
3.73646
3.70084
3.6644
3.62902
3.59638
3.5676
3.54128
3.51474
3.48613
3.45448
3.42007
3.38438
3.35044
3.32124
3.29906
3.27874
3.2561
3.23077
3.2026
3.17254
3.14217
3.1146
3.09386
3.0829
3.073
3.05429
3.02802
2.98815
2.94356
2.9077
2.88324
2.86734
2.85975
2.84841
2.83066
2.80627
2.77076
2.7329
2.70546
2.6874
2.6741
2.65934
2.64089
2.61784
2.59385
2.57305
2.55646
2.5423
2.52767
2.50734
2.47399
2.43767
2.41146
2.39328
2.3779
2.36468
2.35229
2.33923
2.32362
2.30651
2.29251
2.30119
2.36074
2.54091
2.08432
1.02108
0.537176
0.204948
0.127357
0.13566
0.178824
0.180169
0.164362
0.173633
0.202067
0.245578
0.309765
0.369321
0.432051
0.496539
0.549726
0.610672
0.688118
0.769503
0.846757
0.903651
0.942635
0.98179
1.02806
1.0608
1.08044
1.10191
1.10758
1.10736
1.12393
1.15384
1.19335
1.22226
1.23134
1.21655
2.20578
4.71974
5.2331
5.32681
5.41569
5.44556
5.43799
5.45501
5.49172
5.54297
5.57317
5.56826
5.55825
5.55238
5.54577
5.5421
5.54127
5.54536
5.55524
5.56982
5.58551
5.59458
5.59374
5.5858
5.57446
5.55457
5.53162
5.50905
5.48233
5.45302
5.42568
5.40184
5.38143
5.36308
5.34576
5.32979
5.31605
5.30449
5.29328
5.27878
5.25741
5.22979
5.19967
5.17105
5.14643
5.12541
5.10532
5.08309
5.0571
5.02812
4.99819
4.96905
4.94119
4.91399
4.88646
4.8581
4.8293
4.80097
4.77373
4.74771
4.72233
4.69673
4.67011
4.64211
4.61271
4.58212
4.55078
4.51969
4.48854
4.45644
4.42308
4.38851
4.35331
4.31813
4.28394
4.25223
4.22318
4.19441
4.16439
4.13306
4.1008
4.06747
4.03328
3.99876
3.96399
3.92977
3.898
3.86916
3.84193
3.81488
3.78697
3.75784
3.72739
3.69541
3.66312
3.63152
3.5994
3.5674
3.5373
3.50781
3.47762
3.4466
3.41583
3.38654
3.35711
3.32444
3.293
3.26714
3.24198
3.21714
3.19317
3.17041
3.15031
3.1326
3.11289
3.08912
3.06262
3.03234
2.9982
2.96581
2.93971
2.91798
2.89633
2.87614
2.85752
2.83782
2.81489
2.78883
2.76482
2.74519
2.72355
2.69631
2.67094
2.64884
2.62686
2.60683
2.58976
2.5745
2.55844
2.54063
2.52064
2.49593
2.46708
2.44092
2.41783
2.39525
2.37557
2.35952
2.34451
2.33438
2.32614
2.31523
2.30809
2.3013
2.33084
2.55404
2.80216
1.65271
1.15713
0.839554
0.580378
0.370824
0.339226
0.330296
0.304167
0.283746
0.278107
0.289894
0.318761
0.33117
0.352866
0.378044
0.395186
0.413515
0.467998
0.548857
0.655015
0.772406
0.842899
0.899025
0.975607
1.0406
1.06774
1.0864
1.09797
1.11755
1.15598
1.18831
1.19355
1.18798
1.17995
1.17808
1.47113
4.37337
5.72271
5.61307
5.5184
5.51346
5.50653
5.48379
5.50383
5.53489
5.57628
5.59798
5.59568
5.581
5.56087
5.54182
5.52841
5.53091
5.55236
5.58118
5.60161
5.6032
5.5882
5.57241
5.56676
5.56486
5.55235
5.51831
5.47857
5.43965
5.40621
5.38088
5.36571
5.35675
5.34721
5.33365
5.31819
5.30438
5.29267
5.27998
5.25986
5.22943
5.19527
5.16561
5.14489
5.13103
5.11586
5.09251
5.06109
5.02599
4.99187
4.96188
4.93619
4.91188
4.88626
4.85881
4.83052
4.8028
4.77625
4.75008
4.72307
4.69441
4.66416
4.63331
4.60359
4.57698
4.55261
4.5271
4.49794
4.46289
4.42422
4.38498
4.34576
4.30902
4.27801
4.25319
4.22976
4.20081
4.16769
4.13359
4.09796
4.06216
4.02813
3.99634
3.96601
3.93607
3.90589
3.87578
3.84555
3.81509
3.78419
3.75307
3.72208
3.69219
3.66388
3.6352
3.60432
3.57127
3.53747
3.50434
3.47253
3.44311
3.41744
3.39311
3.36584
3.3317
3.29087
3.25624
3.23136
3.2102
3.19156
3.17721
3.16399
3.14576
3.12183
3.08634
3.04227
3.0056
2.98048
2.96256
2.94783
2.93244
2.91218
2.88493
2.8537
2.82693
2.80513
2.78761
2.77293
2.75743
2.73495
2.6995
2.66191
2.63744
2.61985
2.60472
2.59176
2.57937
2.56483
2.54684
2.52119
2.49075
2.46338
2.44102
2.42011
2.39775
2.37581
2.35908
2.34658
2.33821
2.33214
2.32608
2.31299
2.30936
2.36397
2.67711
3.42333
2.44254
1.70755
1.29818
1.07561
0.834427
0.642338
0.600334
0.553694
0.475762
0.407806
0.395471
0.407249
0.404809
0.391603
0.399248
0.424647
0.431721
0.427434
0.433009
0.457724
0.528843
0.625337
0.718497
0.835685
0.943917
0.993774
1.01293
1.02902
1.06694
1.11011
1.15302
1.15943
1.15689
1.16449
1.18727
1.28734
3.56913
5.93389
5.89015
5.66717
5.6317
5.5922
5.53447
5.50812
5.52703
5.5605
5.58973
5.59533
5.58479
5.56951
5.55358
5.54213
5.54223
5.55675
5.58038
5.59841
5.60029
5.58598
5.56233
5.54392
5.53557
5.52836
5.50932
5.48145
5.4506
5.42012
5.39402
5.37266
5.35759
5.34449
5.33196
5.318
5.30324
5.2885
5.27404
5.25759
5.23393
5.20489
5.17718
5.15414
5.13361
5.10814
5.07552
5.04124
5.0094
4.98235
4.96085
4.94088
4.91786
4.89127
4.86274
4.83367
4.80517
4.77771
4.74999
4.72035
4.68888
4.6565
4.62526
4.59882
4.57843
4.55814
4.52923
4.49342
4.45378
4.41102
4.37098
4.33577
4.30654
4.28481
4.26329
4.23393
4.20027
4.16419
4.12705
4.09064
4.05661
4.02619
3.99837
3.97067
3.94074
3.9084
3.87628
3.84515
3.81396
3.78222
3.75025
3.71969
3.69151
3.66427
3.63584
3.604
3.56825
3.53176
3.49796
3.46825
3.44274
3.41913
3.39456
3.36658
3.33161
3.28899
3.25122
3.22744
3.20943
3.19507
3.18378
3.16748
3.1467
3.11985
3.07996
3.03174
2.99767
2.97946
2.96516
2.95085
2.93386
2.91365
2.88702
2.85379
2.82354
2.80478
2.79021
2.77502
2.7575
2.73348
2.6967
2.65641
2.63352
2.61972
2.60832
2.59818
2.58479
2.56894
2.54649
2.51077
2.47309
2.44789
2.42956
2.41364
2.40035
2.38954
2.3799
2.36867
2.35365
2.33553
2.31324
2.31712
2.3946
2.59392
2.95442
3.93824
3.04463
2.33297
1.86035
1.55462
1.26568
0.985877
0.87121
0.825006
0.751532
0.634012
0.559445
0.557777
0.552802
0.518625
0.507654
0.513881
0.509258
0.486715
0.467334
0.469057
0.472935
0.483301
0.506597
0.558851
0.644984
0.739254
0.815657
0.879186
0.957633
1.02697
1.09249
1.12373
1.13724
1.17381
1.2606
1.38356
2.5517
5.77554
6.22845
5.87015
5.81112
5.73234
5.6313
5.58516
5.59644
5.62645
5.65405
5.65006
5.62433
5.58205
5.55822
5.55374
5.55947
5.57253
5.58384
5.57872
5.56775
5.55658
5.54402
5.54016
5.54646
5.55178
5.53595
5.50547
5.47073
5.43009
5.39235
5.36791
5.35286
5.34439
5.34025
5.33007
5.309
5.28547
5.26232
5.24026
5.21852
5.19473
5.16941
5.14351
5.11687
5.08871
5.05991
5.03296
5.01004
4.99192
4.97374
4.94946
4.92163
4.89301
4.86478
4.83751
4.80878
4.77723
4.74367
4.70881
4.67418
4.64238
4.61587
4.59691
4.57897
4.55114
4.51727
4.47986
4.4407
4.40499
4.37409
4.34832
4.32521
4.29703
4.26369
4.22653
4.18833
4.15436
4.1242
4.09517
4.06577
4.03516
4.00298
3.9691
3.93386
3.90051
3.87084
3.8426
3.81397
3.78426
3.75363
3.72291
3.69286
3.66326
3.63239
3.59806
3.56146
3.52678
3.49589
3.46778
3.44106
3.4152
3.38943
3.36173
3.32982
3.29404
3.25869
3.2302
3.20959
3.1916
3.17529
3.15714
3.13662
3.11101
3.0777
3.03977
3.00414
2.97872
2.96099
2.9439
2.92635
2.90729
2.88519
2.8587
2.82896
2.80303
2.7839
2.76601
2.74754
2.72607
2.69729
2.6634
2.63671
2.62082
2.60804
2.59552
2.5819
2.56559
2.54118
2.50359
2.46575
2.44271
2.42793
2.41649
2.40915
2.40321
2.39053
2.37483
2.35193
2.3213
2.32418
2.40969
2.63174
2.92702
3.14789
4.32901
3.55231
2.84097
2.32122
2.01224
1.73514
1.43013
1.14804
1.03933
0.978593
0.899465
0.798977
0.73787
0.710307
0.663191
0.622953
0.625144
0.624252
0.595468
0.549905
0.535754
0.534777
0.526788
0.521034
0.526551
0.542597
0.561565
0.587833
0.630232
0.692014
0.787441
0.885251
0.984007
1.08503
1.1833
1.39835
1.61362
1.9528
4.62039
6.3714
6.20835
5.96086
5.7744
5.63403
5.58721
5.60608
5.63855
5.65978
5.64918
5.61287
5.57515
5.56655
5.57631
5.58204
5.58154
5.58171
5.57297
5.56855
5.56988
5.57581
5.58281
5.57315
5.54613
5.51094
5.47022
5.43447
5.40787
5.3912
5.38475
5.38062
5.37431
5.36121
5.33329
5.29074
5.25522
5.23022
5.20999
5.19818
5.18879
5.17493
5.15229
5.1229
5.09384
5.06653
5.04016
5.01697
4.99711
4.97376
4.94655
4.91984
4.89331
4.86534
4.83514
4.80064
4.76204
4.72393
4.6909
4.66249
4.63951
4.62331
4.60596
4.57804
4.54499
4.50897
4.4734
4.44228
4.41463
4.38833
4.35895
4.32577
4.28716
4.24534
4.20832
4.17813
4.15281
4.13123
4.10595
4.07601
4.03848
3.99444
3.95228
3.91719
3.8891
3.86412
3.83957
3.81435
3.78812
3.76018
3.7295
3.69544
3.65906
3.62234
3.58668
3.55391
3.52481
3.49758
3.46988
3.4406
3.41064
3.38183
3.35408
3.32609
3.29858
3.27152
3.24307
3.21354
3.18824
3.16841
3.14929
3.12689
3.10161
3.07584
3.05005
3.02197
2.99061
2.96135
2.93975
2.92137
2.90193
2.88102
2.85854
2.83419
2.80792
2.78295
2.76269
2.74386
2.72247
2.69939
2.67589
2.65305
2.63113
2.61255
2.59729
2.57994
2.55476
2.52337
2.49269
2.468
2.45243
2.4409
2.43296
2.42613
2.4136
2.39537
2.36619
2.34049
2.35049
2.45621
2.69466
2.96714
3.18954
3.20754
4.60309
3.91475
3.29586
2.78157
2.36956
2.06163
1.80769
1.56406
1.32601
1.169
1.09439
1.0159
0.949593
0.912061
0.863791
0.776196
0.732121
0.72593
0.704166
0.658921
0.639439
0.635597
0.625796
0.602389
0.581988
0.582516
0.579952
0.571109
0.567444
0.571632
0.592606
0.635238
0.735802
0.906167
1.14125
1.4525
1.71198
1.8318
2.66147
5.68681
6.39075
6.12314
5.90008
5.76952
5.69587
5.68591
5.68586
5.67801
5.64884
5.6105
5.59639
5.59771
5.60616
5.604
5.59635
5.59076
5.58622
5.58759
5.5882
5.58417
5.56706
5.53568
5.49588
5.46158
5.43413
5.42145
5.42476
5.43367
5.42717
5.40781
5.3803
5.34372
5.29652
5.26027
5.23925
5.22414
5.21968
5.2208
5.20926
5.18467
5.15476
5.11849
5.08312
5.05417
5.02835
5.00816
4.98923
4.96566
4.93927
4.91193
4.88326
4.8515
4.81685
4.78098
4.74657
4.71692
4.6922
4.67324
4.65816
4.63682
4.60671
4.57248
4.53485
4.50001
4.46948
4.44059
4.41095
4.37958
4.34538
4.30837
4.27018
4.23408
4.20352
4.17823
4.15709
4.13354
4.10579
4.07247
4.02963
3.98357
3.94262
3.90905
3.88128
3.85689
3.83409
3.81131
3.78758
3.76213
3.733
3.69673
3.65354
3.61046
3.57485
3.54736
3.52329
3.49908
3.47288
3.44315
3.40895
3.3726
3.34038
3.31595
3.29582
3.27594
3.2533
3.22492
3.19124
3.15898
3.13158
3.10745
3.0867
3.06909
3.0522
3.03314
3.00634
2.96846
2.93208
2.90661
2.88627
2.86783
2.85093
2.8345
2.81522
2.78818
2.75646
2.72898
2.70796
2.69228
2.67813
2.66299
2.64242
2.61451
2.586
2.56086
2.53544
2.50661
2.48563
2.47369
2.46365
2.4542
2.44436
2.43143
2.4151
2.39032
2.36336
2.37748
2.50057
2.75864
3.03912
3.20676
3.24584
3.21853
4.82226
4.2042
3.62335
3.1404
2.74709
2.38627
2.08234
1.86198
1.6327
1.45518
1.35221
1.22942
1.1181
1.08239
1.04097
0.973395
0.897203
0.840314
0.796822
0.751301
0.731664
0.732252
0.728835
0.712888
0.67886
0.654893
0.640482
0.620549
0.604671
0.599135
0.605861
0.627368
0.671975
0.770392
1.00861
1.23005
1.44151
1.5618
1.68507
3.62724
6.11438
6.2092
5.95317
5.82748
5.75658
5.72637
5.70179
5.67656
5.64938
5.63776
5.63594
5.63016
5.62302
5.61203
5.59459
5.58678
5.58278
5.57919
5.57392
5.56283
5.54065
5.51044
5.48233
5.458
5.44091
5.43927
5.45038
5.45034
5.42819
5.39954
5.36166
5.31267
5.28036
5.26193
5.25184
5.24935
5.24408
5.22532
5.19894
5.16471
5.12781
5.09665
5.06982
5.04656
5.02803
5.01193
4.99061
4.96252
4.93293
4.90146
4.8686
4.83566
4.80388
4.77509
4.74981
4.7281
4.70867
4.68707
4.6596
4.62776
4.591
4.55444
4.52207
4.49253
4.4629
4.43096
4.3974
4.36294
4.32831
4.29523
4.26564
4.23888
4.21382
4.18699
4.15716
4.12518
4.09105
4.0542
4.01594
3.98076
3.94896
3.91773
3.88615
3.85618
3.83018
3.80695
3.78386
3.75856
3.72655
3.68773
3.6451
3.60386
3.57052
3.54472
3.52174
3.4987
3.47364
3.44459
3.41001
3.37152
3.3368
3.31236
3.29375
3.27526
3.25404
3.22716
3.19288
3.15356
3.12022
3.09907
3.08275
3.06766
3.05303
3.03638
3.01284
2.97331
2.92545
2.89383
2.87612
2.86181
2.84863
2.83457
2.81758
2.79164
2.75359
2.72228
2.70712
2.69624
2.6858
2.67126
2.64813
2.61367
2.57524
2.54344
2.5191
2.50383
2.49459
2.48962
2.48309
2.47036
2.45265
2.42868
2.39744
2.38117
2.41034
2.5523
2.82098
3.08247
3.26754
3.3081
3.29258
3.23009
5.01742
4.44629
3.90304
3.45578
3.049
2.66835
2.3927
2.15104
1.90192
1.70234
1.60992
1.49003
1.34534
1.25419
1.19503
1.11336
1.03341
0.980738
0.938313
0.876506
0.842049
0.83633
0.831792
0.817316
0.785878
0.734033
0.701616
0.683392
0.666155
0.664231
0.681475
0.745177
0.860338
1.0177
1.16805
1.16838
1.19268
1.26951
1.319
1.65698
4.42227
6.02127
5.9245
5.87264
5.82731
5.77584
5.71915
5.6786
5.65731
5.6593
5.67475
5.67094
5.64636
5.62118
5.59788
5.58241
5.57596
5.57348
5.56774
5.55612
5.53723
5.51319
5.49199
5.47225
5.45571
5.44728
5.44922
5.44176
5.41399
5.37563
5.33474
5.30681
5.28717
5.27811
5.27355
5.26052
5.23712
5.20883
5.1739
5.13746
5.10832
5.08408
5.06503
5.05227
5.0402
5.01876
4.98948
4.95683
4.92159
4.88711
4.85547
4.82745
4.80261
4.78136
4.76136
4.73854
4.71106
4.67933
4.64293
4.60568
4.57185
4.54198
4.5156
4.49112
4.4613
4.42705
4.38941
4.35227
4.3201
4.2924
4.26863
4.2476
4.22255
4.19211
4.1546
4.11067
4.06783
4.03246
4.00529
3.98093
3.95678
3.92961
3.89832
3.8629
3.82676
3.79417
3.76483
3.73583
3.70532
3.6722
3.63834
3.60574
3.57354
3.54202
3.51411
3.4899
3.46597
3.43943
3.40974
3.37798
3.34471
3.31193
3.28432
3.26223
3.24079
3.21728
3.19022
3.1587
3.12503
3.09864
3.08098
3.06736
3.05348
3.03438
3.00853
2.97322
2.93292
2.89556
2.87042
2.85468
2.84072
2.8269
2.81076
2.79081
2.7634
2.73164
2.70602
2.68945
2.67457
2.65737
2.63661
2.60711
2.56925
2.53497
2.51652
2.50632
2.50196
2.50167
2.49255
2.47734
2.45396
2.41353
2.39313
2.42827
2.58763
2.86918
3.11541
3.29621
3.34772
3.34424
3.30524
3.23103
5.17164
4.63661
4.14687
3.73393
3.31927
2.94099
2.68245
2.44591
2.17743
1.95694
1.83477
1.72058
1.57574
1.44248
1.35362
1.26263
1.15469
1.10908
1.07866
1.02886
0.967869
0.928758
0.917114
0.907379
0.88486
0.841237
0.782247
0.751692
0.744715
0.759178
0.824425
0.960788
1.13046
1.25653
1.2634
1.26378
1.28487
1.33852
1.38369
1.38818
1.94086
4.63439
5.89134
5.91856
5.85569
5.79733
5.7403
5.69936
5.67353
5.6677
5.68203
5.69424
5.67724
5.64858
5.61481
5.58343
5.57057
5.56706
5.56815
5.56301
5.54843
5.52825
5.50797
5.48746
5.46678
5.44604
5.4244
5.4021
5.37839
5.35427
5.32857
5.31016
5.30044
5.29021
5.27392
5.25058
5.2235
5.19355
5.1588
5.12503
5.09934
5.07909
5.06692
5.05958
5.04251
5.01456
4.98221
4.9448
4.90787
4.87589
4.848
4.8252
4.8077