/*--------------------------------*- C++ -*----------------------------------*\
  =========                 |
  \\      /  F ield         | OpenFOAM: The Open Source CFD Toolbox
   \\    /   O peration     | Website:  https://openfoam.org
    \\  /    A nd           | Version:  10
     \\/     M anipulation  |
\*---------------------------------------------------------------------------*/
FoamFile
{
    format      ascii;
    class       volScalarField;
    location    "7";
    object      T;
}
// * * * * * * * * * * * * * * * * * * * * * * * * * * * * * * * * * * * * * //

dimensions      [0 0 0 1 0 0 0];

internalField   nonuniform List<scalar> 
16128
(
1
1
1
1
1
1
1
1
1
1
1
1
1
1
1
1
1
1
1
1
1
1
1
1
2.06649
2.68161
2.70477
2.71177
2.72048
2.72796
2.735
2.74166
2.74816
2.75455
2.76073
2.76663
2.7723
2.77762
2.78239
2.7866
2.7906
2.79459
2.79845
2.80176
2.80454
2.80659
2.80803
2.80945
1
1
1
1
1
1
1
1
1
1
1
1
1
1
1
1
1
1
1
1
1
1
1
1
2.05598
2.6793
2.70446
2.71152
2.72018
2.72764
2.73466
2.74129
2.74774
2.7541
2.76027
2.76618
2.77179
2.77701
2.78168
2.78589
2.78993
2.7939
2.79763
2.80077
2.80346
2.80553
2.80702
2.80861
1
1
1
1
1
1
1
1
1
1
1
1
1
1
1
1
1
1
1
1
1
1
1
1
2.02972
2.67576
2.70334
2.71054
2.71922
2.72673
2.73379
2.74044
2.74689
2.75326
2.75948
2.76539
2.77092
2.77601
2.78065
2.78493
2.78902
2.79287
2.79633
2.79922
2.80185
2.80404
2.80549
2.80704
1
1
1
1
1
1
1
1
1
1
1
1
1
1
1
1
1
1
1
1
1
1
1
1
1.98988
2.66937
2.70146
2.70885
2.71756
2.72515
2.73228
2.73897
2.74543
2.75181
2.75804
2.76394
2.76939
2.77439
2.77901
2.78337
2.78752
2.79126
2.79451
2.79726
2.79985
2.80215
2.80305
2.80413
1
1
1
1
1
1
1
1
1
1
1
1
1
1
1
1
1
1
1
1
1
1
1
1
1.93599
2.65949
2.69846
2.70605
2.71486
2.7226
2.72989
2.73674
2.7433
2.74971
2.75594
2.76181
2.76718
2.77208
2.77664
2.781
2.78513
2.78876
2.7919
2.79465
2.7973
2.7998
2.80018
2.8007
1
1
1
1
1
1
1
1
1
1
1
1
1
1
1
1
1
1
1
1
1
1
1
1
1.86429
2.64402
2.69433
2.70225
2.71126
2.71923
2.72682
2.73398
2.74077
2.74728
2.75353
2.75936
2.76466
2.76945
2.77392
2.77818
2.78219
2.78569
2.78872
2.79139
2.79377
2.79588
2.79628
2.79716
1
1
1
1
1
1
1
1
1
1
1
1
1
1
1
1
1
1
1
1
1
1
1
1
1.77301
2.62036
2.68931
2.69756
2.70667
2.71473
2.72257
2.73008
2.73717
2.74384
2.7501
2.75588
2.76114
2.7659
2.77032
2.77449
2.77842
2.78187
2.78488
2.78746
2.78952
2.79123
2.79163
2.79362
1
1
1
1
1
1
1
1
1
1
1
1
1
1
1
1
1
1
1
1
1
1
1
1
1.66256
2.58854
2.68493
2.6925
2.7014
2.70928
2.71712
2.7248
2.73215
2.73899
2.74532
2.7511
2.7564
2.76122
2.76566
2.76982
2.77371
2.77716
2.78023
2.78292
2.78495
2.78621
2.78461
2.78864
1
1
1
1
1
1
1
1
1
1
1
1
1
1
1
1
1
1
1
1
1
1
1
1
1.5308
2.54386
2.68147
2.68687
2.69568
2.70327
2.71109
2.7189
2.72649
2.73353
2.73995
2.7457
2.75096
2.75576
2.7602
2.76429
2.76809
2.77142
2.77434
2.77688
2.77875
2.78006
2.77776
2.78187
1
1
1
1
1
1
1
1
1
1
1
1
1
1
1
1
1
1
1
1
1
1
1
1
1.36383
2.47399
2.67603
2.67966
2.68882
2.69595
2.70364
2.71154
2.71944
2.72679
2.73342
2.73928
2.74454
2.74931
2.75371
2.75773
2.76142
2.76464
2.76741
2.76979
2.77144
2.77245
2.76933
2.77348
1
1
1
1
1
1
1
1
1
1
1
1
1
1
1
1
1
1
1
1
1
1
1
1
1.16962
2.39296
2.67636
2.672
2.68027
2.6874
2.69527
2.7032
2.71113
2.71869
2.72557
2.73162
2.73698
2.74177
2.74615
2.75009
2.7536
2.75655
2.75887
2.76075
2.76202
2.76266
2.75901
2.76373
1
1
1
1
1
1
1
1
1
1
1
1
1
1
1
1
1
1
1
1
1
1
1
1
1.00948
2.31429
2.67104
2.66962
2.67627
2.68186
2.68827
2.69521
2.70264
2.7099
2.71668
2.72277
2.72818
2.73296
2.73729
2.74114
2.7444
2.74707
2.749
2.75051
2.75107
2.75074
2.74628
2.74983
1
1
1
1
1
1
1
1
1
1
1
1
1
1
1
1
1
1
1
1
1
1
1
1
1.00004
2.20049
2.66801
2.67035
2.67571
2.68112
2.68591
2.69071
2.6955
2.70127
2.70731
2.71302
2.71823
2.72287
2.72706
2.73079
2.73382
2.73607
2.73704
2.73727
2.7361
2.73441
2.72874
2.733
1
1
1
1
1
1
1
1
1
1
1
1
1
1
1
1
1
1
1
1
1
1
1
1
1
2.05073
2.65213
2.66907
2.67415
2.67916
2.68284
2.68618
2.68989
2.69392
2.69821
2.70282
2.70732
2.71151
2.71546
2.71883
2.72121
2.72273
2.72254
2.72175
2.71945
2.71633
2.70714
2.70415
1
1
1
1
1
1
1
1
1
1
1
1
1
1
1
1
1
1
1
1
1
1
1
1
1
1.85405
2.60299
2.66128
2.67077
2.67731
2.68146
2.68392
2.68579
2.68776
2.69043
2.69335
2.69635
2.69961
2.70288
2.70515
2.70654
2.70716
2.70583
2.70304
2.69678
2.68691
2.67082
2.66423
1
1
1
1
1
1
1
1
1
1
1
1
1
1
1
1
1
1
1
1
1
1
1
1
1
1.59626
2.50447
2.63892
2.65662
2.66806
2.67537
2.67949
2.68171
2.68304
2.68401
2.6851
2.68628
2.68791
2.68943
2.69023
2.69007
2.68916
2.68577
2.67986
2.66904
2.65599
2.63669
2.64068
1
1
1
1
1
1
1
1
1
1
1
1
1
1
1
1
1
1
1
1
1
1
1
1
1
1.25341
2.37734
2.62184
2.63493
2.65023
2.66175
2.66937
2.67405
2.67662
2.67759
2.67767
2.67741
2.67722
2.67621
2.67498
2.67263
2.66935
2.66321
2.65428
2.63702
2.61065
2.54466
2.39912
1
1
1
1
1
1
1
1
1
1
1
1
1
1
1
1
1
1
1
1
1
1
1
1
1
1.01877
2.27161
2.62406
2.62124
2.62894
2.64087
2.65203
2.66057
2.66614
2.6688
2.66917
2.6683
2.66653
2.66351
2.65994
2.65477
2.64845
2.63868
2.62462
2.59951
2.55207
2.47629
2.26985
1
1
1
1
1
1
1
1
1
1
1
1
1
1
1
1
1
1
1
1
1
1
1
1
1
1.00005
2.09702
2.60542
2.60822
2.61429
2.6226
2.63279
2.64292
2.65081
2.65616
2.65833
2.6577
2.65548
2.65123
2.64559
2.63741
2.62753
2.61355
2.59365
2.56232
2.50902
2.41371
2.21219
1
1
1
1
1
1
1
1
1
1
1
1
1
1
1
1
1
1
1
1
1
1
1
1
1
0.999999
1.8328
2.56131
2.60893
2.61161
2.61508
2.6197
2.62644
2.63337
2.63991
2.64408
2.64442
2.64273
2.63818
2.63114
2.6207
2.60747
2.58929
2.56436
2.52722
2.47162
2.36718
2.19587
1
1
1
1
1
1
1
1
1
1
1
1
1
1
1
1
1
1
1
1
1
1
1
1
1
1
1.4546
2.44099
2.60234
2.60469
2.60797
2.6106
2.61436
2.61807
2.62287
2.62717
2.62859
2.62758
2.62347
2.61604
2.60445
2.58868
2.56711
2.53817
2.49764
2.43925
2.33974
2.20771
1
1
1
1
1
1
1
1
1
1
1
1
1
1
1
1
1
1
1
1
1
1
1
1
1
1
1.05913
2.29363
2.6007
2.59778
2.59933
2.60184
2.60379
2.60471
2.60668
2.6093
2.61076
2.61016
2.60671
2.59964
2.58793
2.57074
2.54729
2.51572
2.47351
2.4141
2.32592
2.21833
1
1
1
1
1
1
1
1
1
1
1
1
1
1
1
1
1
1
1
1
1
1
1
1
1
1
1.00075
2.11227
2.56425
2.57791
2.58619
2.59101
2.593
2.5928
2.59254
2.59268
2.59253
2.59144
2.58802
2.58141
2.57024
2.55316
2.5293
2.49679
2.45412
2.39642
2.31888
2.22954
1
1
1
1
1
1
1
1
1
1
1
1
1
1
1
1
1
1
1
1
1
1
1
1
1
1
0.999993
1.77287
2.4969
2.5605
2.57446
2.58053
2.58264
2.58246
2.58122
2.57934
2.57685
2.57382
2.56929
2.56233
2.55147
2.53521
2.51221
2.4805
2.43875
2.38443
2.31714
2.23897
1
1
1
1
1
1
1
1
1
1
1
1
1
1
1
1
1
1
1
1
1
1
1
1
1
1
0.999998
1.29398
2.36284
2.55251
2.55715
2.56414
2.56823
2.56965
2.56873
2.56636
2.56247
2.55752
2.5512
2.54307
2.53194
2.51645
2.49496
2.46536
2.42576
2.3762
2.31739
2.2484
1
1
1
1
1
1
1
1
1
1
1
1
1
1
1
1
1
1
1
1
1
1
1
1
1
1
1
1.02218
2.21376
2.53534
2.53647
2.54369
2.54903
2.55347
2.55422
2.55278
2.54896
2.54313
2.5353
2.52558
2.51337
2.49784
2.47746
2.45005
2.41367
2.36964
2.3175
2.25686
1
1
1
1
1
1
1
1
1
1
1
1
1
1
1
1
1
1
1
1
1
1
1
1
1
1
1
1.00005
1.89515
2.48671
2.52403
2.53292
2.5347
2.53783
2.53912
2.53823
2.53499
2.52916
2.52075
2.50994
2.49649
2.48058
2.46024
2.43434
2.40175
2.36309
2.31683
2.26427
1
1
1
1
1
1
1
1
1
1
1
1
1
1
1
1
1
1
1
1
1
1
1
1
1
1
1
1
1.38371
2.36837
2.51749
2.5171
2.51871
2.52113
2.52261
2.52204
2.51948
2.51441
2.5063
2.49564
2.48145
2.46504
2.44401
2.41916
2.38975
2.35578
2.31412
2.26872
1
1
1
1
1
1
1
1
1
1
1
1
1
1
1
1
1
1
1
1
1
1
1
1
1
1
1
1
1.03701
2.19894
2.49925
2.50089
2.50251
2.50484
2.5062
2.50558
2.50325
2.49884
2.49162
2.48137
2.46798
2.451
2.43018
2.40602
2.37861
2.34773
2.31014
2.27088
1
1
1
1
1
1
1
1
1
1
1
1
1
1
1
1
1
1
1
1
1
1
1
1
1
1
1
1
1.0002
1.82451
2.43895
2.4843
2.4879
2.49137
2.49222
2.49079
2.48768
2.48303
2.47617
2.46661
2.45437
2.43763
2.41785
2.39454
2.36862
2.3394
2.30519
2.27013
1
1
1
1
1
1
1
1
1
1
1
1
1
1
1
1
1
1
1
1
1
1
1
1
1
1
1
1
0.999999
1.22991
2.29875
2.48524
2.47617
2.47712
2.47684
2.47469
2.47129
2.46679
2.46041
2.45135
2.44023
2.42485
2.40655
2.38454
2.3601
2.3322
2.30085
2.26848
1
1
1
1
1
1
1
1
1
1
1
1
1
1
1
1
1
1
1
1
1
1
1
1
1
1
1
1
1
1.01222
2.11305
2.45225
2.4547
2.46157
2.46002
2.45769
2.45477
2.45069
2.44456
2.43619
2.42539
2.41175
2.39498
2.37465
2.35188
2.32541
2.2965
2.2659
1
1
1
1
1
1
1
1
1
1
1
1
1
1
1
1
1
1
1
1
1
1
1
1
1
1
1
1
1
1
1.62765
2.36263
2.44461
2.44898
2.44664
2.44418
2.44116
2.43677
2.4303
2.42182
2.41113
2.39829
2.38275
2.36434
2.3434
2.31892
2.29229
2.26329
1
1
1
1
1
1
1
1
1
1
1
1
1
1
1
1
1
1
1
1
1
1
1
1
1
1
1
1
1
0.999997
1.10507
2.19925
2.4418
2.43274
2.43128
2.42966
2.42692
2.42239
2.41576
2.40732
2.39706
2.38484
2.37025
2.35337
2.33397
2.31158
2.28708
2.26006
1
1
1
1
1
1
1
1
1
1
1
1
1
1
1
1
1
1
1
1
1
1
1
1
1
1
1
1
1
0.999999
1.00227
1.85077
2.3824
2.40891
2.41313
2.41488
2.4134
2.40929
2.40272
2.39431
2.38413
2.37208
2.35795
2.34189
2.32371
2.30344
2.28099
2.25632
1
1
1
1
1
1
1
1
1
1
1
1
1
1
1
1
1
1
1
1
1
1
1
1
1
1
1
1
1
1
0.999997
1.22213
2.2257
2.41039
2.40233
2.40206
2.4
2.39557
2.3892
2.38116
2.37132
2.35956
2.34599
2.33062
2.3135
2.29482
2.27414
2.25154
1
1
1
1
1
1
1
1
1
1
1
1
1
1
1
1
1
1
1
1
1
1
1
1
1
1
1
1
1
1
0.999999
1.01098
1.9665
2.37275
2.38291
2.38379
2.38262
2.37964
2.37468
2.36777
2.35868
2.34748
2.33449
2.31973
2.30333
2.28568
2.26654
2.24552
1
1
1
1
1
1
1
1
1
1
1
1
1
1
1
1
1
1
1
1
1
1
1
1
1
1
1
1
1
1
1
1.00002
1.32592
2.23236
2.38053
2.37342
2.37001
2.36604
2.36082
2.35408
2.3455
2.33499
2.32275
2.30883
2.29336
2.27667
2.25895
2.23919
1
1
1
1
1
1
1
1
1
1
1
1
1
1
1
1
1
1
1
1
1
1
1
1
1
1
1
1
1
1
1
1
1.02448
2.01897
2.35114
2.35869
2.35545
2.3511
2.34582
2.33924
2.3312
2.32161
2.3104
2.29771
2.2835
2.26778
2.25117
2.23271
1
1
1
1
1
1
1
1
1
1
1
1
1
1
1
1
1
1
1
1
1
1
1
1
1
1
1
1
1
1
1
1
1.0001
1.403
2.2212
2.34992
2.34262
2.33812
2.33256
2.32577
2.31784
2.30888
2.29866
2.287
2.27385
2.25905
2.24338
2.22634
1
1
1
1
1
1
1
1
1
1
1
1
1
1
1
1
1
1
1
1
1
1
1
1
1
1
1
1
1
1
1
1
1
1.03873
2.02043
2.32893
2.32846
2.32372
2.31834
2.31178
2.30417
2.29565
2.28606
2.27528
2.2632
2.24969
2.23516
2.2195
1
1
1
1
1
1
1
1
1
1
1
1
1
1
1
1
1
1
1
1
1
1
1
1
1
1
1
1
1
1
1
1
1
1.00029
1.41921
2.19848
2.31877
2.31009
2.30522
2.29888
2.29153
2.28334
2.27418
2.26405
2.25289
2.24048
2.22715
2.21226
1
1
1
1
1
1
1
1
1
1
1
1
1
1
1
1
1
1
1
1
1
1
1
1
1
1
1
1
1
1
1
1
1
1
1.04254
1.98653
2.29968
2.29818
2.29179
2.28524
2.27828
2.27067
2.26206
2.25261
2.24219
2.23069
2.21799
2.2036
1
1
1
1
1
1
1
1
1
1
1
1
1
1
1
1
1
1
1
1
1
1
1
1
1
1
1
1
1
1
1
1
1
1
1.00038
1.39112
2.16066
2.28759
2.27807
2.27284
2.26643
2.25915
2.25085
2.24197
2.23211
2.22099
2.20855
2.19434
1
1
1
1
1
1
1
1
1
1
1
1
1
1
1
1
1
1
1
1
1
1
1
1
1
1
1
1
1
1
1
1
1
1
1
1.03611
1.9014
2.25944
2.26855
2.26151
2.25446
2.24728
2.23957
2.23125
2.2217
2.21044
2.19732
2.18957
1
1
1
1
1
1
1
1
1
1
1
1
1
1
1
1
1
1
1
1
1
1
1
1
1
1
1
1
1
1
1
1
1
1
1
1.00033
1.31013
2.0978
2.25694
2.24843
2.2431
2.23668
2.22948
2.22133
2.2114
2.19879
2.19828
2.20879
1
1
1
1
1
1
1
1
1
1
1
1
1
1
1
1
1
1
1
1
1
1
1
1
1
1
1
1
1
1
1
1
1
1
1
1
1.02167
1.74098
2.19548
2.24023
2.23169
2.2257
2.21917
2.21043
2.20011
2.19942
2.21946
2.27164
1
1
1
1
1
1
1
1
1
1
1
1
1
1
1
1
1
1
1
1
1
1
1
1
1
1
1
1
1
1
1
1
1
1
1
1
1.00017
1.18965
2.00547
2.22804
2.2189
2.21552
2.20811
2.19997
2.20201
2.22988
2.29202
2.34424
1
1
1
1
1
1
1
1
1
1
1
1
1
1
1
1
1
1
1
1
1
1
1
1
1
1
1
1
1
1
1
1
1
1
1
1
1
1.00786
1.53425
2.11052
2.20611
2.19997
2.19297
2.19508
2.23297
2.30968
2.36051
2.38213
1
1
1
1
1
1
1
1
1
1
1
1
1
1
1
1
1
1
1
1
1
1
1
1
1
1
1
1
1
1
1
1
1
1
1
1
1
1.00005
1.0841
1.86129
2.19299
2.18155
2.18636
2.2356
2.3252
2.37967
2.39683
2.38462
1
1
1
1
1
1
1
1
1
1
1
1
1
1
1
1
1
1
1
1
1
1
1
1
1
1
1
1
1
1
1
1
1
1
1
1
1
1
1.0017
1.32416
2.04669
2.14562
2.2236
2.32985
2.38191
2.39647
2.38796
2.37444
1
1
1
1
1
1
1
1
1
1
1
1
1
1
1
1
1
1
1
1
1
1
1
1
1
1
1
1
1
1
1
1
1
1
1
1
1
1
1.00001
1.02562
1.64866
2.09575
2.33551
2.38892
2.39333
2.38565
2.37252
2.35984
1
1
1
1
1
1
1
1
1
1
1
1
1
1
1
1
1
1
1
1
1
1
1
1
1
1
1
1
1
1
1
1
1
1
1
1
1
1
1
1.00028
1.13583
2.12098
2.4565
2.42974
2.40278
2.38216
2.36667
2.35402
1
1
1
1
1
1
1
1
1
1
1
1
1
1
1
1
1
1
1
1
1
1
1
1
1
1
1
1
1
1
1
1
1
1
1
1
1
1
1
1
1.00426
2.15184
2.56364
2.50058
2.44278
2.4051
2.38271
2.36204
1
1
1
1
1
1
1
1
1
1
1
1
1
1
1
1
1
1
1
1
1
1
1
1
1
1
1
1
1
1
1
1
1
1
1
1
1
1
1
1
1.00002
2.12287
2.63621
2.58272
2.52565
2.47388
2.43322
2.40176
1
1
1
1
1
1
1
1
1
1
1
1
1
1
1
1
1
1
1
1
1
1
1
1
1
1
1
1
1
1
1
1
1
1
1
1
1
1
1
1
1
2.05977
2.67064
2.64898
2.61232
2.56923
2.52351
2.47887
1
1
1
1
1
1
1
1
1
1
1
1
1
1
1
1
1
1
1
1
1
1
1
1
1
1
1
1
1
1
1
1
1
1
1
1
1
1
1
1
1
1.91508
2.65602
2.66652
2.65617
2.63394
2.60039
2.55984
1
1
1
1
1
1
1
1
1
1
1
1
1
1
1
1
1
1
1
1
1
1
1
1
1
1
1
1
1
1
1
1
1
1
1
1
1
1
1
1
1
1.73059
2.59427
2.67069
2.66031
2.65026
2.63655
2.61475
1
1
1
1
1
1
1
1
1
1
1
1
1
1
1
1
1
1
1
1
1
1
1
1
1
1
1
1
1
1
1
1
1
1
1
1
1
1
1
1
1
1.49511
2.49556
2.66514
2.65622
2.64961
2.64006
2.62985
1
1
1
1
1
1
1
1
1
1
1
1
1
1
1
1
1
1
1
1
1
1
1
1
1
1
1
1
1
1
1
1
1
1
1
1
1
1
1
1
1
1.23173
2.3948
2.65465
2.646
2.64298
2.63855
2.63347
1
1
1
1
1
1
1
1
1
1
1
1
1
1
1
1
1
1
1
1
1
1
1
1
1
1
1
1
1
1
1
1
1
1
1
1
1
1
1
1
1
1.0513
2.34182
2.6591
2.6453
2.63949
2.63554
2.63128
1
1
1
1
1
1
1
1
1
1
1
1
1
1
1
1
1
1
1
1
1
1
1
1
1
1
1
1
1
1
1
1
1
1
1
1
1
1
1
1
1
1.00097
2.27152
2.66489
2.65391
2.64623
2.63953
2.63327
1
1
1
1
1
1
1
1
1
1
1
1
1
1
1
1
1
1
1
1
1
1
1
1
1
1
1
1
1
1
1
1
1
1
1
1
1
1
1
1
1
1
2.17348
2.67005
2.66601
2.65541
2.64683
2.63892
1
1
1
1
1
1
1
1
1
1
1
1
1
1
1
1
1
1
1
1
1
1
1
1
1
1
1
1
1
1
1
1
1
1
1
1
1
1
1
1
1
1
2.06788
2.65938
2.66846
2.66022
2.65345
2.64572
1
1
1
1
1
1
1
1
1
1
1
1
1
1
1
1
1
1
1
1
1
1
1
1
1
1
1
1
1
1
1
1
1
1
1
1
1
1
1
1
1
1
1.95027
2.63595
2.67098
2.66282
2.65726
2.65016
1
1
1
1
1
1
1
1
1
1
1
1
1
1
1
1
1
1
1
1
1
1
1
1
1
1
1
1
1
1
1
1
1
1
1
1
1
1
1
1
1
1
1.83097
2.60747
2.67081
2.66167
2.65676
2.65036
1
1
1
1
1
1
1
1
1
1
1
1
1
1
1
1
1
1
1
1
1
1
1
1
1
1
1
1
1
1
1
1
1
1
1
1
1
1
1
1
1
1
1.71524
2.58016
2.67102
2.66009
2.65514
2.649
1
1
1
1
1
1
1
1
1
1
1
1
1
1
1
1
1
1
1
1
1
1
1
1
1
1
1
1
1
1
1
1
1
1
1
1
1
1
1
1
1
1
1.59544
2.5525
2.67193
2.65945
2.65411
2.64787
1
1
1
1
1
1
1
1
1
1
1
1
1
1
1
1
1
1
1
1
1
1
1
1
1
1
1
1
1
1
1
1
1
1
1
1
1
1
1
1
1
1
1.47248
2.52252
2.67314
2.66025
2.65453
2.64802
1
1
1
1
1
1
1
1
1
1
1
1
1
1
1
1
1
1
1
1
1
1
1
1
1
1
1
1
1
1
1
1
1
1
1
1
1
1
1
1
1
1
1.37047
2.49187
2.67655
2.66322
2.65695
2.65006
1
1
1
1
1
1
1
1
1
1
1
1
1
1
1
1
1
1
1
1
1
1
1
1
1
1
1
1
1
1
1
1
1
1
1
1
1
1
1
1
1
1
1.29327
2.46257
2.6802
2.66718
2.66076
2.65378
1
1
1
1
1
1
1
1
1
1
1
1
1
1
1
1
1
1
1
1
1
1
1
1
1
1
1
1
1
1
1
1
1
1
1
1
1
1
1
1
1
1
1.22782
2.4304
2.6819
2.67036
2.66419
2.6575
1
1
1
1
1
1
1
1
1
1
1
1
1
1
1
1
1
1
1
1
1
1
1
1
1
1
1
1
1
1
1
1
1
1
1
1
1
1
1
1
1
1
1.17085
2.39636
2.68145
2.67218
2.6664
2.66005
1
1
1
1
1
1
1
1
1
1
1
1
1
1
1
1
1
1
1
1
1
1
1
1
1
1
1
1
1
1
1
1
1
1
1
1
1
1
1
1
1
1
1.12678
2.36739
2.68054
2.67294
2.66715
2.66106
1
1
1
1
1
1
1
1
1
1
1
1
1
1
1
1
1
1
1
1
1
1
1
1
1
1
1
1
1
1
1
1
1
1
1
1
1
1
1
1
1
1
1.08147
2.33987
2.68006
2.6736
2.66753
2.66137
1
1
1
1
1
1
1
1
1
1
1
1
1
1
1
1
1
1
1
1
1
1
1
1
1
1
1
1
1
1
1
1
1
1
1
1
1
1
1
1
1
1
1.03412
2.31948
2.68005
2.67406
2.6671
2.66088
1
1
1
1
1
1
1
1
1
1
1
1
1
1
1
1
1
1
1
1
1
1
1
1
1
1
1
1
1
1
1
1
1
1
1
1
1
1
1
1
1
1
1.00115
2.29461
2.67919
2.67402
2.66614
2.66023
1
1
1
1
1
1
1
1
1
1
1
1
1
1
1
1
1
1
1
1
1
1
1
1
1
1
1
1
1
1
1
1
1
1
1
1
1
1
1
1
1
1
1.00001
2.27421
2.67772
2.67374
2.66517
2.66012
1
1
1
1
1
1
1
1
1
1
1
1
1
1
1
1
1
1
1
1
1
1
1
1
1
1
1
1
1
1
1
1
1
1
1
1
1
1
1
1
1
1
1
2.26105
2.67645
2.67373
2.66473
2.66052
1
1
1
1
1
1
1
1
1
1
1
1
1
1
1
1
1
1
1
1
1
1
1
1
1
1
1
1
1
1
1
1
1
1
1
1
1
1
1
1
1
1
1
2.25559
2.67525
2.6739
2.66473
2.661
1.46546
0.725873
0.349617
0.302415
0.567621
0.864849
0.969843
1.06588
1.11877
1.12732
1.13384
1.17801
1.23493
1.29973
1.36986
1.44362
1.47698
1.48543
1.50706
1.53801
1.55714
1.55226
1.53947
1.53348
1.52132
1.53018
1.57265
1.60498
1.61199
1.60648
1.57357
1.55638
1.55834
1.58344
1.62172
1.62689
2.24374
2.62873
2.6452
2.6696
2.68179
2.67886
2.67419
2.68028
2.68634
2.69086
2.68866
2.68337
2.67898
2.67614
2.67417
2.67096
2.66656
2.66195
2.6583
2.65649
2.65753
2.66065
2.6625
2.66125
2.65623
2.64965
2.64381
2.63916
2.63455
2.62902
2.62245
2.61514
2.60762
2.60036
2.59373
2.58793
2.58282
2.57793
2.57279
2.56725
2.56157
2.55599
2.55046
2.5447
2.53854
2.5321
2.52569
2.51949
2.51338
2.50711
2.50056
2.49383
2.48709
2.48051
2.47411
2.46782
2.4616
2.45543
2.44943
2.44377
2.43856
2.43374
2.42912
2.42435
2.41911
2.41329
2.40715
2.40106
2.39521
2.38957
2.38393
2.37807
2.37191
2.36551
2.359
2.35256
2.34644
2.3408
2.3354
2.3299
2.32401
2.31758
2.31063
2.30332
2.29599
2.28896
2.28254
2.27697
2.27226
2.26783
2.26297
2.2573
2.2508
2.24379
2.23672
2.22991
2.22357
2.21799
2.21283
2.20751
2.20173
2.19532
2.18838
2.18131
2.1745
2.16859
2.16402
2.15955
2.15456
2.14902
2.14286
2.13644
2.13008
2.12423
2.11968
2.11713
2.11473
2.11024
2.10398
2.09486
2.08484
2.07681
2.07127
2.06763
2.06564
2.06275
2.05838
2.05246
2.04426
2.03572
2.02946
2.02529
2.02208
2.01839
2.01373
2.00795
2.00189
1.99667
1.99255
1.98903
1.98514
1.97975
1.97129
1.9622
1.95566
1.95116
1.94733
1.94391
1.94057
1.93698
1.93279
1.9281
1.9243
1.92566
1.93863
1.97664
1.75017
1.38652
1.24644
0.97285
0.79046
0.791796
0.869012
0.884306
0.873933
0.898931
0.941679
0.981057
1.03429
1.09173
1.15716
1.2252
1.26931
1.30361
1.34097
1.37939
1.42159
1.46058
1.48547
1.49862
1.50972
1.52385
1.54094
1.55703
1.55744
1.55099
1.54876
1.55298
1.56603
1.58052
1.58608
1.58088
1.99511
2.57711
2.65554
2.66289
2.67333
2.6762
2.67375
2.67394
2.6765
2.68161
2.68416
2.68182
2.67779
2.67384
2.6692
2.66455
2.66015
2.65633
2.65309
2.65055
2.64898
2.64798
2.64701
2.64561
2.64398
2.64107
2.63747
2.63349
2.62841
2.62247
2.61624
2.60996
2.6037
2.59741
2.59109
2.58499
2.5794
2.57435
2.56955
2.56453
2.55882
2.55241
2.54572
2.53929
2.53344
2.52809
2.52285
2.51731
2.51124
2.50471
2.49802
2.49145
2.48507
2.47878
2.47247
2.46611
2.45978
2.45365
2.44784
2.44238
2.43717
2.43205
2.42689
2.42159
2.41615
2.41055
2.40485
2.39919
2.39354
2.38774
2.38174
2.37551
2.36916
2.36279
2.35658
2.35074
2.34527
2.33982
2.33412
2.32817
2.32203
2.31565
2.3091
2.30249
2.29581
2.2892
2.28299
2.27728
2.27183
2.26639
2.26077
2.25492
2.24886
2.24258
2.23628
2.23014
2.22393
2.21774
2.21185
2.20598
2.19994
2.19373
2.18753
2.18158
2.17562
2.16909
2.16271
2.15721
2.15169
2.14619
2.1409
2.1359
2.13155
2.12773
2.12366
2.11879
2.11307
2.10612
2.0982
2.09071
2.08471
2.07965
2.07464
2.06998
2.06566
2.0609
2.05525
2.04899
2.04331
2.03868
2.03376
2.02775
2.02196
2.01655
2.01109
2.00612
2.00192
1.99812
1.99408
1.98956
1.98439
1.97796
1.97056
1.96398
1.95817
1.95247
1.94747
1.94339
1.93958
1.9369
1.93456
1.93141
1.92913
1.92595
1.93223
1.98245
1.87612
1.61974
1.48375
1.36175
1.22857
1.06436
1.02917
1.02875
1.02437
1.01362
1.00206
1.0091
1.0242
1.03023
1.04715
1.07294
1.09312
1.11222
1.1555
1.20963
1.26991
1.33442
1.37739
1.40845
1.44368
1.47023
1.48349
1.49386
1.50166
1.51142
1.52266
1.53004
1.53114
1.52912
1.52794
1.52894
1.65371
2.42207
2.67369
2.66732
2.65903
2.65777
2.65448
2.64667
2.64665
2.64818
2.65283
2.65577
2.65514
2.65228
2.64774
2.64206
2.63607
2.63104
2.6268
2.62262
2.61773
2.61229
2.60725
2.60455
2.60455
2.60561
2.60587
2.60385
2.60058
2.5967
2.59261
2.58861
2.58484
2.58071
2.57551
2.56904
2.56225
2.55597
2.55041
2.54512
2.53943
2.53299
2.5264
2.52054
2.51595
2.51234
2.50853
2.50353
2.49741
2.49079
2.4843
2.47834
2.47288
2.46746
2.46171
2.45559
2.44932
2.44318
2.43736
2.43178
2.42631
2.42082
2.41532
2.40988
2.40466
2.3999
2.39541
2.39069
2.38534
2.37902
2.37213
2.36518
2.35829
2.35184
2.34634
2.34183
2.33756
2.33241
2.32659
2.32059
2.31433
2.30806
2.30206
2.29633
2.29074
2.28511
2.27941
2.27367
2.26779
2.26184
2.25587
2.24994
2.24407
2.23839
2.23294
2.22741
2.22153
2.21521
2.20871
2.20235
2.19625
2.19057
2.18547
2.18043
2.17482
2.16794
2.1597
2.15265
2.14739
2.14281
2.13875
2.13549
2.13241
2.12841
2.1234
2.11603
2.1067
2.09886
2.0933
2.08924
2.08579
2.08203
2.07721
2.07092
2.06375
2.05742
2.05215
2.0479
2.04429
2.04048
2.03526
2.02734
2.01883
2.01308
2.0089
2.00533
2.00232
1.99935
1.99575
1.99125
1.98504
1.9775
1.97051
1.96476
1.9594
1.95378
1.94826
1.94385
1.94048
1.93824
1.93658
1.9344
1.93036
1.92855
1.94146
2.01565
1.96956
1.80343
1.63733
1.51871
1.44048
1.33958
1.2424
1.21925
1.19467
1.14954
1.09818
1.08342
1.09028
1.08619
1.07322
1.07886
1.09821
1.10095
1.09907
1.10405
1.12299
1.17252
1.23389
1.28591
1.34582
1.39342
1.41179
1.41925
1.42764
1.44588
1.46319
1.47894
1.48188
1.48158
1.48644
1.49871
1.53512
2.19551
2.61131
2.63144
2.61371
2.60873
2.59944
2.58455
2.57674
2.57789
2.58229
2.58811
2.59074
2.59096
2.59026
2.58776
2.58377
2.57972
2.57504
2.56957
2.56273
2.55498
2.54803
2.54278
2.541
2.54156
2.54351
2.54523
2.54639
2.54694
2.54677
2.54609
2.54445
2.54187
2.53778
2.53206
2.5253
2.51833
2.51174
2.50583
2.50055
2.49535
2.49022
2.48565
2.48182
2.47833
2.47409
2.46878
2.46322
2.45803
2.45352
2.44973
2.44602
2.44164
2.43648
2.43078
2.42479
2.41878
2.41297
2.4073
2.40163
2.39602
2.39058
2.38554
2.38131
2.37795
2.37451
2.36962
2.36352
2.35669
2.34933
2.34239
2.33621
2.33103
2.3271
2.32332
2.31843
2.31295
2.30718
2.30131
2.29557
2.29018
2.2853
2.28074
2.27612
2.27105
2.2655
2.2599
2.25442
2.24892
2.24329
2.23757
2.23204
2.22687
2.22187
2.21671
2.211
2.20461
2.19811
2.19207
2.18667
2.18189
2.17732
2.17248
2.16694
2.16007
2.15179
2.14441
2.13968
2.13601
2.13294
2.1304
2.12684
2.1224
2.11668
2.10837
2.09858
2.09183
2.08822
2.08515
2.08174
2.07772
2.07301
2.0669
2.05928
2.05237
2.04795
2.04435
2.0405
2.03625
2.03071
2.02242
2.01346
2.00846
2.00547
2.00291
2.00048
1.9973
1.99356
1.98837
1.98009
1.97115
1.96497
1.96027
1.95614
1.95265
1.94972
1.94702
1.94397
1.94011
1.93487
1.92925
1.93005
1.94842
1.99446
2.0733
2.04473
1.90648
1.77198
1.66714
1.58936
1.5007
1.39498
1.34598
1.3277
1.29756
1.23957
1.18858
1.185
1.18081
1.15869
1.15258
1.15668
1.15294
1.13688
1.12215
1.1229
1.12571
1.13286
1.14933
1.1833
1.23443
1.28287
1.31779
1.34512
1.37756
1.40548
1.43084
1.44434
1.45172
1.4666
1.49729
1.53842
1.89256
2.47018
2.58062
2.54207
2.53734
2.52544
2.50676
2.49816
2.49964
2.50563
2.51277
2.51518
2.51551
2.5135
2.51266
2.51262
2.51249
2.51125
2.50778
2.50113
2.49365
2.48749
2.48338
2.48242
2.48378
2.48651
2.48761
2.48804
2.48824
2.48768
2.48722
2.48753
2.48718
2.48603
2.48375
2.47908
2.47208
2.46486
2.45821
2.4525
2.44787
2.44397
2.44053
2.43724
2.43378
2.42998
2.42595
2.42209
2.41873
2.41604
2.41335
2.40978
2.40557
2.40099
2.39617
2.3912
2.38581
2.37993
2.37382
2.36774
2.362
2.35699
2.35301
2.35026
2.3477
2.34362
2.33847
2.33258
2.32625
2.3203
2.315
2.31046
2.30637
2.3016
2.29618
2.29033
2.28449
2.27944
2.27506
2.27089
2.26661
2.26207
2.25721
2.25199
2.24651
2.24129
2.23667
2.23226
2.22772
2.2229
2.21781
2.21262
2.20749
2.20246
2.19724
2.19149
2.1854
2.17965
2.17449
2.16969
2.16501
2.16038
2.15568
2.15059
2.14473
2.13815
2.13158
2.12619
2.12222
2.1187
2.11543
2.11175
2.10765
2.10265
2.09629
2.08905
2.0821
2.07705
2.07339
2.0697
2.06584
2.06159
2.05661
2.05067
2.04397
2.03795
2.03327
2.02884
2.02444
2.01962
2.01346
2.00631
2.00064
1.99724
1.99445
1.99166
1.98868
1.98512
1.97967
1.97118
1.96261
1.95728
1.95367
1.9507
1.94858
1.94682
1.9437
1.93966
1.93333
1.92619
1.92712
1.94759
1.99811
2.06105
2.10191
2.09611
1.98317
1.86283
1.76171
1.69611
1.63009
1.54606
1.45102
1.40879
1.38591
1.35585
1.3128
1.28189
1.26548
1.23851
1.21655
1.21821
1.21772
1.20127
1.17368
1.16357
1.16246
1.15651
1.15085
1.15415
1.16396
1.17645
1.19253
1.21758
1.25091
1.29864
1.34297
1.38434
1.42425
1.46
1.53194
1.59768
1.69206
2.24283
2.51309
2.50066
2.47705
2.45701
2.43952
2.43391
2.43705
2.44408
2.45082
2.4532
2.4532
2.45224
2.45406
2.45772
2.45938
2.45934
2.4585
2.45568
2.45302
2.45115
2.4505
2.45063
2.44907
2.44595
2.44269
2.43944
2.43742
2.43713
2.43825
2.44086
2.44282
2.44313
2.4417
2.43668
2.42867
2.42141
2.41581
2.41134
2.40851
2.40673
2.4051
2.40274
2.39945
2.39591
2.39232
2.38863
2.38524
2.3823
2.37898
2.37524
2.37161
2.36791
2.36382
2.35916
2.35364
2.34737
2.34111
2.33566
2.33103
2.32738
2.32493
2.32247
2.3186
2.31399
2.30883
2.30356
2.29876
2.29431
2.28997
2.28515
2.27978
2.27365
2.26717
2.26156
2.25713
2.25351
2.25052
2.24697
2.24268
2.23712
2.23044
2.224
2.21873
2.21463
2.21103
2.20748
2.20378
2.19984
2.19552
2.19065
2.18513
2.17916
2.17311
2.16728
2.16199
2.15735
2.15301
2.14854
2.14371
2.13867
2.13376
2.12901
2.12417
2.11936
2.11457
2.10946
2.10406
2.09938
2.0957
2.09217
2.08807
2.08347
2.07877
2.07399
2.0687
2.06273
2.0571
2.05292
2.04926
2.04525
2.04079
2.03584
2.03031
2.02424
2.0184
2.01361
2.00927
2.00463
1.99987
1.9951
1.99045
1.98595
1.98218
1.97915
1.97569
1.97053
1.96393
1.95747
1.95219
1.9487
1.94594
1.9439
1.9421
1.93907
1.9347
1.92674
1.92127
1.92431
1.9491
2.00173
2.05822
2.09957
2.0983
2.12923
2.03416
1.93756
1.84846
1.76921
1.70224
1.64097
1.57643
1.50488
1.45157
1.42459
1.39475
1.36935
1.3543
1.33311
1.29205
1.26952
1.26592
1.25433
1.23067
1.21953
1.21673
1.21059
1.1962
1.18398
1.1844
1.18294
1.17785
1.17568
1.17825
1.19161
1.21651
1.27062
1.35126
1.44555
1.55231
1.62831
1.65778
1.8651
2.37673
2.48754
2.46207
2.44125
2.42845
2.42254
2.42376
2.42712
2.42974
2.42958
2.42852
2.42958
2.43178
2.43411
2.43439
2.43449
2.43463
2.43456
2.43488
2.43496
2.43431
2.43177
2.4272
2.42156
2.41675
2.41338
2.41242
2.41366
2.41635
2.41702
2.4165
2.41435
2.41021
2.4038
2.39814
2.39429
2.39113
2.38966
2.38924
2.38743
2.3845
2.38112
2.37683
2.37242
2.36853
2.36475
2.36148
2.35833
2.35468
2.3509
2.3472
2.34338
2.33908
2.33423
2.32899
2.32377
2.31907
2.31499
2.31178
2.3092
2.30588
2.30145
2.2965
2.2911
2.28607
2.28157
2.27718
2.27258
2.26766
2.26232
2.25661
2.25084
2.24549
2.24102
2.23737
2.23433
2.2309
2.22682
2.22186
2.21531
2.20821
2.20194
2.19687
2.19277
2.18925
2.18597
2.18266
2.17917
2.17538
2.17093
2.16514
2.15802
2.15083
2.1449
2.14037
2.13646
2.13258
2.12839
2.12359
2.11795
2.11187
2.10648
2.10241
2.09905
2.0957
2.09181
2.08682
2.08074
2.07484
2.06985
2.06546
2.06167
2.0585
2.0555
2.05209
2.04724
2.04021
2.0334
2.02868
2.02477
2.02103
2.01739
2.0137
2.00931
2.00327
1.99626
1.99026
1.98565
1.98229
1.97943
1.97654
1.97263
1.96716
1.96153
1.95658
1.95156
1.94576
1.94152
1.93914
1.93708
1.93513
1.93305
1.93003
1.9259
1.91936
1.91436
1.91824
1.94623
2.00156
2.05798
2.08851
2.09109
2.08423
2.15466
2.07307
1.98793
1.91024
1.84036
1.76902
1.70257
1.65043
1.58977
1.53895
1.50862
1.46892
1.42965
1.41619
1.39971
1.373
1.34196
1.31693
1.29626
1.27383
1.26375
1.2639
1.26202
1.25369
1.23572
1.22287
1.21489
1.20412
1.19562
1.19199
1.19555
1.20763
1.23334
1.28697
1.39709
1.47687
1.54472
1.57695
1.61046
2.08449
2.46808
2.47956
2.45239
2.43981
2.43348
2.43183
2.43104
2.43013
2.42862
2.42867
2.42961
2.42961
2.42911
2.42811
2.42651
2.42636
2.42654
2.42671
2.42659
2.42555
2.42254
2.41803
2.41352
2.4093
2.40621
2.40565
2.40687
2.40701
2.40462
2.40162
2.3974
2.39145
2.38722
2.38449
2.38261
2.38171
2.38045
2.3777
2.3743
2.37008
2.3656
2.36178
2.35838
2.35513
2.35212
2.34916
2.34536
2.34076
2.33624
2.33174
2.32726
2.32286
2.31859
2.3146
2.31088
2.30747
2.30424
2.30067
2.29631
2.29134
2.28571
2.28016
2.27526
2.27078
2.26623
2.26129
2.25607
2.25074
2.24547
2.24056
2.23627
2.23246
2.22893
2.22509
2.22071
2.21588
2.21061
2.20487
2.19887
2.19336
2.18844
2.18365
2.17885
2.17433
2.17049
2.16709
2.16369
2.15986
2.15484
2.14853
2.14143
2.13443
2.12866
2.12417
2.12019
2.11626
2.11209
2.10732
2.10163
2.09523
2.08943
2.0854
2.08236
2.07927
2.07563
2.07089
2.06473
2.05753
2.05134
2.0474
2.04432
2.04146
2.03887
2.03599
2.03186
2.02468
2.01573
2.00987
2.0067
2.00403
2.0014
1.99847
1.99485
1.98934
1.98132
1.97466
1.97133
1.96892
1.96674
1.96386
1.95929
1.95241
1.94457
1.93816
1.93343
1.93055
1.92884
1.92802
1.9268
1.92415
1.92034
1.9146
1.90646
1.90476
1.91212
1.9434
1.9997
2.05031
2.08394
2.08855
2.08529
2.07112
2.17723
2.10427
2.02847
1.96067
1.89279
1.82233
1.76754
1.71548
1.65693
1.60587
1.58156
1.5472
1.50298
1.47347
1.45286
1.42302
1.393
1.37256
1.35552
1.32908
1.31319
1.31044
1.30836
1.30181
1.28732
1.26231
1.24559
1.23595
1.22741
1.22593
1.23501
1.26766
1.32216
1.38863
1.4455
1.44488
1.45282
1.47952
1.49553
1.61631
2.27593
2.49415
2.47821
2.46993
2.46223
2.45312
2.44428
2.4387
2.43582
2.43574
2.43676
2.43583
2.43221
2.42873
2.42572
2.42412
2.42365
2.42367
2.4234
2.42226
2.41966
2.41579
2.41185
2.40797
2.40459
2.40263
2.40242
2.40106
2.39728
2.39236
2.38718
2.38346
2.38059
2.37896
2.37786
2.37563
2.37212
2.36812
2.36347
2.35884
2.35526
2.35231
2.34984
2.34788
2.34565
2.34179
2.3367
2.33123
2.32565
2.32049
2.31604
2.31228
2.30903
2.30618
2.30333
2.29989
2.29561
2.29058
2.28485
2.279
2.27366
2.26893
2.2647
2.26071
2.25592
2.25049
2.2446
2.23888
2.23403
2.23
2.22666
2.22381
2.22035
2.21601
2.21047
2.20373
2.19702
2.1914
2.18704
2.18313
2.1793
2.17509
2.1703
2.16487
2.15932
2.15435
2.14991
2.14543
2.14055
2.13511
2.12942
2.1238
2.1181
2.11244
2.10741
2.10309
2.0989
2.09435
2.08938
2.08413
2.0786
2.07307
2.06838
2.0646
2.06085
2.05663
2.05172
2.04596
2.03969
2.03471
2.03139
2.02886
2.02635
2.02287
2.01817
2.01172
2.00431
1.99731
1.99265
1.98985
1.98727
1.98457
1.98129
1.97718
1.97154
1.96494
1.95958
1.95615
1.95309
1.94956
1.94535
1.93941
1.93167
1.92457
1.9208
1.91873
1.9179
1.91807
1.91642
1.91302
1.90707
1.89745
1.89461
1.90314
1.93756
1.99534
2.04329
2.07524
2.08256
2.08199
2.07473
2.0585
2.19522
2.1282
2.06219
2.00227
1.93652
1.87095
1.82361
1.77714
1.7194
1.66787
1.63827
1.60907
1.5694
1.53046
1.50252
1.47266
1.43582
1.41975
1.40845
1.38926
1.36467
1.34835
1.34374
1.34002
1.33077
1.31187
1.28462
1.26939
1.26632
1.27373
1.30531
1.36525
1.43018
1.47409
1.47563
1.47537
1.48192
1.49891
1.51196
1.51398
1.71633
2.31786
2.49251
2.49051
2.47866
2.46671
2.45586
2.44816
2.44306
2.44069
2.44083
2.44035
2.43635
2.43138
2.42677
2.42278
2.42112
2.42075
2.42098
2.42025
2.41786
2.41427
2.41036
2.40628
2.40223
2.39844
2.39478
2.39135
2.38812
2.38493
2.38132
2.37833
2.37637
2.37431
2.37145
2.36768
2.36353
2.35918
2.35442
2.34996
2.34663
2.34403
2.34235
2.34108
2.33814
2.33334
2.32773
2.32145
2.31545
2.31045
2.30636
2.30325
2.30101
2.2986
2.29522
2.29094
2.2856
2.27944
2.27336
2.26807
2.26345
2.25944
2.25616
2.25224
2.24728
2.24162
2.23532
2.22964
2.2251
2.22134
2.21814
2.21479
2.21099
2.20647
2.20052
2.19313
2.18633
2.18143
2.17741
2.17389