/*--------------------------------*- C++ -*----------------------------------*\
  =========                 |
  \\      /  F ield         | OpenFOAM: The Open Source CFD Toolbox
   \\    /   O peration     | Website:  https://openfoam.org
    \\  /    A nd           | Version:  10
     \\/     M anipulation  |
\*---------------------------------------------------------------------------*/
FoamFile
{
    format      ascii;
    class       volVectorField;
    location    "7";
    object      U;
}
// * * * * * * * * * * * * * * * * * * * * * * * * * * * * * * * * * * * * * //

dimensions      [0 1 -1 0 0 0 0];

internalField   nonuniform List<vector> 
16128
(
(3 -2.32505e-15 0)
(3 -7.57072e-15 0)
(3 1.53177e-15 0)
(3 -2.58518e-14 0)
(3 -2.68607e-14 0)
(3 -9.11313e-15 0)
(3 -1.28143e-14 0)
(3 -2.35393e-14 0)
(3 -8.51161e-14 0)
(3 -9.65169e-14 0)
(3 -1.74213e-14 0)
(3 4.83922e-14 0)
(3 3.08545e-14 0)
(3 -1.32557e-14 0)
(3 -2.49119e-14 0)
(3 -2.76185e-14 0)
(3 -4.45042e-14 0)
(3 -6.54396e-14 0)
(3 -7.08067e-14 0)
(3 7.66327e-15 0)
(3 1.29148e-14 0)
(3 1.38965e-15 0)
(3 6.41627e-14 0)
(3 9.19415e-14 0)
(1.44982 0.00830664 0)
(0.769438 0.00886666 0)
(0.723407 0.0111015 0)
(0.696936 0.0120165 0)
(0.66714 0.0125169 0)
(0.637844 0.0130248 0)
(0.607877 0.0134702 0)
(0.577553 0.0137434 0)
(0.547141 0.0138143 0)
(0.517079 0.013772 0)
(0.487492 0.0138171 0)
(0.457802 0.0141514 0)
(0.427207 0.0146646 0)
(0.395654 0.0150919 0)
(0.363724 0.0154149 0)
(0.331562 0.0158157 0)
(0.298648 0.0163121 0)
(0.264382 0.0169 0)
(0.228607 0.0175752 0)
(0.191385 0.0184221 0)
(0.15295 0.0191985 0)
(0.112558 0.020649 0)
(0.0687204 0.0220974 0)
(0.0238456 0.0225645 0)
(3 -3.33166e-15 0)
(3 -1.7408e-15 0)
(3 4.62237e-15 0)
(3 -1.64456e-14 0)
(3 1.9721e-15 0)
(3 1.16644e-16 0)
(3 2.68803e-14 0)
(3 -3.11126e-15 0)
(3 -1.0921e-13 0)
(3 -1.07934e-13 0)
(3 -3.17643e-14 0)
(3 2.52178e-14 0)
(3 3.71955e-14 0)
(3 -5.72109e-14 0)
(3 -6.19819e-14 0)
(3 -3.87667e-14 0)
(3 -4.78937e-14 0)
(3 -7.8078e-14 0)
(3 -6.8437e-14 0)
(3 -3.05538e-14 0)
(3 8.20358e-15 0)
(3 3.99141e-14 0)
(3 8.17139e-14 0)
(3 9.65131e-14 0)
(1.46478 0.038436 0)
(0.765356 0.0357448 0)
(0.715921 0.0328589 0)
(0.689161 0.0346639 0)
(0.659368 0.0360934 0)
(0.630108 0.0376933 0)
(0.600183 0.0391549 0)
(0.569874 0.0400986 0)
(0.539434 0.0404106 0)
(0.509295 0.0403145 0)
(0.4796 0.0404349 0)
(0.449844 0.0414567 0)
(0.4193 0.0431066 0)
(0.387894 0.0445801 0)
(0.356143 0.0457446 0)
(0.324179 0.0470614 0)
(0.291599 0.0485864 0)
(0.257989 0.0504327 0)
(0.223321 0.0526061 0)
(0.187581 0.0554241 0)
(0.150565 0.0580882 0)
(0.111294 0.0629028 0)
(0.0680527 0.0673427 0)
(0.0244879 0.0686976 0)
(3 -1.74579e-14 0)
(3 -2.18843e-14 0)
(3 -2.88926e-14 0)
(3 -3.36867e-15 0)
(3 3.50749e-14 0)
(3 1.74952e-14 0)
(3 2.61029e-14 0)
(3 2.28529e-14 0)
(3 4.2022e-14 0)
(3 7.12723e-14 0)
(3 1.49984e-14 0)
(3 -2.50134e-15 0)
(3 4.00609e-15 0)
(3 2.25407e-14 0)
(3 9.42724e-15 0)
(3 -5.89152e-14 0)
(3 -8.81619e-14 0)
(3 -8.17853e-14 0)
(3 1.84675e-14 0)
(3 3.14487e-14 0)
(3 7.46307e-14 0)
(3 9.84099e-14 0)
(3 8.96941e-14 0)
(3 7.57764e-14 0)
(1.51259 0.0677676 0)
(0.771874 0.0623482 0)
(0.717981 0.0569244 0)
(0.689679 0.0592374 0)
(0.658895 0.0613404 0)
(0.628935 0.0637861 0)
(0.598532 0.0661197 0)
(0.567832 0.0676915 0)
(0.536965 0.0682464 0)
(0.506265 0.0680543 0)
(0.475892 0.0681405 0)
(0.445511 0.0697298 0)
(0.414502 0.0724109 0)
(0.38265 0.074766 0)
(0.350289 0.0764737 0)
(0.317563 0.0783292 0)
(0.284306 0.0805119 0)
(0.250423 0.0832604 0)
(0.216048 0.0864678 0)
(0.181115 0.0908071 0)
(0.145009 0.0950202 0)
(0.107094 0.103325 0)
(0.0653241 0.110671 0)
(0.0258295 0.113693 0)
(3 -1.66181e-14 0)
(3 -3.28941e-14 0)
(3 -2.27685e-14 0)
(3 -3.42636e-14 0)
(3 -2.66063e-14 0)
(3 9.51228e-15 0)
(3 -2.85224e-15 0)
(3 7.93461e-14 0)
(3 9.37026e-14 0)
(3 4.72412e-14 0)
(3 5.49784e-14 0)
(3 5.84596e-14 0)
(3 4.57011e-14 0)
(3 1.05055e-13 0)
(3 1.18157e-13 0)
(3 1.54997e-14 0)
(3 -3.27506e-14 0)
(3 -9.50091e-15 0)
(3 4.95881e-14 0)
(3 1.42924e-13 0)
(3 1.92314e-13 0)
(3 1.57414e-13 0)
(3 5.50741e-14 0)
(3 8.07168e-14 0)
(1.58511 0.0941998 0)
(0.780073 0.0888441 0)
(0.72108 0.0818884 0)
(0.692152 0.0839673 0)
(0.661333 0.0864373 0)
(0.631607 0.0895553 0)
(0.601608 0.0927431 0)
(0.571285 0.0950667 0)
(0.54061 0.0960883 0)
(0.509803 0.0960443 0)
(0.479049 0.0962975 0)
(0.448213 0.0986243 0)
(0.416804 0.102506 0)
(0.38443 0.105941 0)
(0.351234 0.108411 0)
(0.317356 0.11102 0)
(0.282823 0.113993 0)
(0.247789 0.117575 0)
(0.212455 0.121328 0)
(0.176782 0.126536 0)
(0.139862 0.13143 0)
(0.102358 0.14287 0)
(0.0614429 0.152319 0)
(0.0297297 0.156956 0)
(3 1.7254e-14 0)
(3 1.62244e-14 0)
(3 1.53167e-14 0)
(3 -2.01916e-15 0)
(3 -3.71071e-14 0)
(3 -3.86544e-14 0)
(3 -2.51179e-14 0)
(3 -1.50636e-14 0)
(3 -3.61707e-14 0)
(3 -7.38776e-14 0)
(3 -3.60916e-14 0)
(3 -1.36179e-14 0)
(3 4.99694e-14 0)
(3 6.94838e-14 0)
(3 5.77697e-14 0)
(3 3.60322e-14 0)
(3 4.0045e-14 0)
(3 3.99036e-14 0)
(3 3.00901e-14 0)
(3 1.00781e-13 0)
(3 8.29746e-14 0)
(3 3.59665e-14 0)
(3 1.11008e-14 0)
(3 5.84279e-14 0)
(1.68458 0.120556 0)
(0.790338 0.115863 0)
(0.723194 0.108373 0)
(0.693182 0.109224 0)
(0.662099 0.111597 0)
(0.6325 0.115066 0)
(0.602913 0.11898 0)
(0.573085 0.12211 0)
(0.542836 0.123775 0)
(0.512279 0.124048 0)
(0.481628 0.12448 0)
(0.450961 0.127463 0)
(0.419946 0.13252 0)
(0.388 0.137126 0)
(0.355059 0.140515 0)
(0.321197 0.144083 0)
(0.286462 0.148116 0)
(0.25105 0.152836 0)
(0.215023 0.157241 0)
(0.178385 0.163405 0)
(0.139861 0.168743 0)
(0.101859 0.183042 0)
(0.060065 0.193854 0)
(0.0314958 0.198045 0)
(3 3.21198e-15 0)
(3 -6.66234e-16 0)
(3 -9.37376e-15 0)
(3 -1.31653e-14 0)
(3 -8.17979e-16 0)
(3 -1.59111e-14 0)
(3 -1.04723e-14 0)
(3 -2.51507e-15 0)
(3 -1.74538e-14 0)
(3 -4.93265e-14 0)
(3 -9.20496e-14 0)
(3 -7.59968e-14 0)
(3 6.69937e-15 0)
(3 1.66059e-14 0)
(3 -8.04173e-15 0)
(3 8.85186e-15 0)
(3 4.01502e-14 0)
(3 4.29469e-14 0)
(3 9.54641e-15 0)
(3 -1.14924e-14 0)
(3 -1.93809e-14 0)
(3 -1.12099e-14 0)
(3 3.40476e-14 0)
(3 4.403e-14 0)
(1.81963 0.145226 0)
(0.806227 0.143552 0)
(0.727331 0.136589 0)
(0.696115 0.135171 0)
(0.664575 0.137056 0)
(0.634851 0.140633 0)
(0.605362 0.145155 0)
(0.575721 0.149142 0)
(0.545627 0.151638 0)
(0.515085 0.152446 0)
(0.484297 0.153087 0)
(0.453518 0.156599 0)
(0.422597 0.162751 0)
(0.390796 0.168603 0)
(0.357883 0.173048 0)
(0.323922 0.177708 0)
(0.28896 0.182911 0)
(0.25322 0.188897 0)
(0.216606 0.193961 0)
(0.179412 0.201209 0)
(0.140228 0.206907 0)
(0.10291 0.22374 0)
(0.0616005 0.236681 0)
(0.0241587 0.238258 0)
(3 -6.16974e-15 0)
(3 -6.47643e-16 0)
(3 2.55761e-14 0)
(3 5.71863e-14 0)
(3 7.89441e-14 0)
(3 9.28756e-14 0)
(3 8.31412e-14 0)
(3 9.61926e-14 0)
(3 1.00308e-14 0)
(3 -6.7678e-14 0)
(3 -8.67519e-14 0)
(3 -6.98093e-14 0)
(3 -3.6541e-14 0)
(3 -1.79325e-14 0)
(3 7.12321e-15 0)
(3 2.29036e-14 0)
(3 9.39339e-14 0)
(3 9.24154e-14 0)
(3 3.29018e-15 0)
(3 -3.59386e-14 0)
(3 1.22703e-15 0)
(3 -2.79281e-15 0)
(3 9.45102e-15 0)
(3 -1.439e-15 0)
(1.99056 0.164532 0)
(0.828581 0.171626 0)
(0.733232 0.165649 0)
(0.701758 0.161108 0)
(0.670422 0.162156 0)
(0.641333 0.165575 0)
(0.612739 0.170489 0)
(0.584088 0.175241 0)
(0.554883 0.178637 0)
(0.524951 0.180197 0)
(0.494431 0.181141 0)
(0.463705 0.185115 0)
(0.432815 0.192368 0)
(0.400926 0.199692 0)
(0.367702 0.205526 0)
(0.333255 0.211587 0)
(0.297565 0.218199 0)
(0.260844 0.225724 0)
(0.222821 0.231669 0)
(0.184263 0.240183 0)
(0.143552 0.245867 0)
(0.105359 0.26444 0)
(0.0639767 0.28025 0)
(0.0245095 0.280754 0)
(3 1.07275e-14 0)
(3 2.11551e-14 0)
(3 3.71491e-14 0)
(3 3.17857e-14 0)
(3 3.40191e-14 0)
(3 4.37762e-14 0)
(3 4.52348e-14 0)
(3 2.17192e-14 0)
(3 3.56656e-14 0)
(3 -6.31996e-16 0)
(3 -4.41337e-14 0)
(3 -6.96024e-14 0)
(3 -5.05247e-14 0)
(3 1.09542e-14 0)
(3 4.50691e-14 0)
(3 5.56146e-14 0)
(3 7.77436e-14 0)
(3 4.67768e-14 0)
(3 -3.37411e-14 0)
(3 -3.2486e-14 0)
(3 4.40065e-14 0)
(3 3.18701e-14 0)
(3 6.04189e-14 0)
(3 -6.01552e-14 0)
(2.19313 0.177957 0)
(0.852703 0.203955 0)
(0.732562 0.196017 0)
(0.701184 0.187796 0)
(0.669633 0.187811 0)
(0.64067 0.190791 0)
(0.61242 0.195838 0)
(0.584381 0.201299 0)
(0.556003 0.205733 0)
(0.527009 0.208337 0)
(0.497435 0.209744 0)
(0.467734 0.214075 0)
(0.438129 0.22234 0)
(0.407566 0.231248 0)
(0.375404 0.23869 0)
(0.341707 0.246381 0)
(0.306246 0.254624 0)
(0.269205 0.26406 0)
(0.22997 0.271367 0)
(0.189716 0.281747 0)
(0.146254 0.287817 0)
(0.105627 0.307979 0)
(0.063869 0.322682 0)
(0.036905 0.32395 0)
(3 1.1912e-14 0)
(3 2.40216e-17 0)
(3 -2.80436e-14 0)
(3 -2.10342e-14 0)
(3 -2.28652e-14 0)
(3 -2.72756e-14 0)
(3 -5.62357e-14 0)
(3 -3.56036e-14 0)
(3 6.11204e-14 0)
(3 1.43239e-13 0)
(3 9.89961e-14 0)
(3 6.24427e-14 0)
(3 8.7339e-15 0)
(3 -3.26016e-14 0)
(3 -2.0998e-15 0)
(3 1.98766e-14 0)
(3 -2.26552e-14 0)
(3 -4.72272e-14 0)
(3 -3.92832e-14 0)
(3 1.48207e-14 0)
(3 4.28163e-14 0)
(3 2.57073e-14 0)
(3 5.53381e-14 0)
(3 -1.31705e-13 0)
(2.43054 0.189025 0)
(0.891248 0.243831 0)
(0.743057 0.225726 0)
(0.714748 0.216406 0)
(0.681979 0.215582 0)
(0.65158 0.21794 0)
(0.621706 0.222723 0)
(0.592384 0.228301 0)
(0.563122 0.233156 0)
(0.533578 0.236409 0)
(0.503683 0.237962 0)
(0.473959 0.242111 0)
(0.444948 0.250957 0)
(0.415525 0.261443 0)
(0.384554 0.270796 0)
(0.35199 0.280579 0)
(0.317277 0.290942 0)
(0.28062 0.302874 0)
(0.240959 0.312162 0)
(0.200207 0.325208 0)
(0.155014 0.332733 0)
(0.112521 0.354669 0)
(0.0669067 0.365766 0)
(0.0445625 0.370096 0)
(3 -5.7715e-15 0)
(3 8.50256e-15 0)
(3 7.17217e-15 0)
(3 2.50684e-14 0)
(3 4.01955e-14 0)
(3 3.90439e-14 0)
(3 4.99774e-14 0)
(3 4.20576e-14 0)
(3 4.00264e-14 0)
(3 6.91616e-14 0)
(3 9.40406e-14 0)
(3 8.39004e-14 0)
(3 3.94242e-14 0)
(3 -3.88569e-15 0)
(3 -8.39696e-14 0)
(3 -9.17316e-14 0)
(3 -6.68147e-14 0)
(3 -6.85984e-14 0)
(3 -2.18958e-14 0)
(3 7.40823e-14 0)
(3 -8.52019e-15 0)
(3 -9.92442e-15 0)
(3 -5.08937e-15 0)
(3 -1.29045e-13 0)
(2.70095 0.185444 0)
(0.964258 0.279445 0)
(0.776979 0.241074 0)
(0.750203 0.239675 0)
(0.71422 0.241533 0)
(0.680721 0.244819 0)
(0.64722 0.249983 0)
(0.614391 0.256122 0)
(0.581924 0.26181 0)
(0.549635 0.266008 0)
(0.51737 0.26781 0)
(0.48567 0.271305 0)
(0.455409 0.279972 0)
(0.425792 0.291516 0)
(0.395202 0.302553 0)
(0.363464 0.314498 0)
(0.329507 0.327275 0)
(0.293441 0.342335 0)
(0.2533 0.354355 0)
(0.212015 0.37063 0)
(0.165254 0.38042 0)
(0.120827 0.404579 0)
(0.0715467 0.413746 0)
(0.0473116 0.419856 0)
(3 -8.32232e-15 0)
(3 -4.87875e-16 0)
(3 1.89036e-15 0)
(3 -1.47487e-14 0)
(3 -1.09489e-14 0)
(3 6.47042e-16 0)
(3 8.67884e-14 0)
(3 1.01043e-13 0)
(3 7.70804e-14 0)
(3 3.78625e-14 0)
(3 4.2195e-14 0)
(3 1.36493e-14 0)
(3 -4.1964e-14 0)
(3 -4.71172e-14 0)
(3 -4.52558e-14 0)
(3 -3.80561e-14 0)
(3 -3.79125e-14 0)
(3 -6.11116e-14 0)
(3 -4.39668e-14 0)
(3 -7.93158e-15 0)
(3 2.38185e-14 0)
(3 5.93388e-14 0)
(3 7.65664e-14 0)
(3 4.58493e-14 0)
(2.9528 0.078787 0)
(1.06103 0.292541 0)
(0.806507 0.257102 0)
(0.789474 0.263131 0)
(0.753137 0.26841 0)
(0.717777 0.273799 0)
(0.6814 0.280194 0)
(0.645707 0.287008 0)
(0.61047 0.293089 0)
(0.575318 0.298033 0)
(0.540035 0.300269 0)
(0.505315 0.302894 0)
(0.472358 0.310624 0)
(0.441094 0.322485 0)
(0.409668 0.334598 0)
(0.377892 0.348411 0)
(0.344274 0.363587 0)
(0.309188 0.382121 0)
(0.269456 0.397343 0)
(0.228749 0.416981 0)
(0.181254 0.430086 0)
(0.134385 0.457798 0)
(0.080285 0.467073 0)
(0.0533434 0.475153 0)
(3 3.4341e-15 0)
(3 -7.92348e-15 0)
(3 -2.18053e-14 0)
(3 -2.50131e-14 0)
(3 -4.42194e-14 0)
(3 -3.19535e-14 0)
(3 2.64676e-14 0)
(3 9.01547e-14 0)
(3 7.37546e-14 0)
(3 6.90809e-14 0)
(3 9.9615e-14 0)
(3 4.80779e-14 0)
(3 -7.07661e-15 0)
(3 1.39116e-15 0)
(3 2.38576e-14 0)
(3 3.80024e-14 0)
(3 2.16415e-14 0)
(3 -3.95803e-15 0)
(3 -4.95985e-14 0)
(3 -7.15239e-14 0)
(3 2.74896e-14 0)
(3 9.3365e-14 0)
(3 1.23732e-13 0)
(3 9.91351e-14 0)
(3.01782 0.00719144 0)
(1.14974 0.28804 0)
(0.808192 0.270981 0)
(0.79844 0.29307 0)
(0.769492 0.300824 0)
(0.74064 0.305377 0)
(0.709479 0.310682 0)
(0.67677 0.317765 0)
(0.642509 0.325579 0)
(0.607039 0.332208 0)
(0.570285 0.335578 0)
(0.533047 0.337771 0)
(0.496971 0.344116 0)
(0.463044 0.355618 0)
(0.429674 0.368075 0)
(0.396961 0.383149 0)
(0.363083 0.400104 0)
(0.328798 0.421941 0)
(0.288959 0.441171 0)
(0.247348 0.465722 0)
(0.196651 0.484635 0)
(0.14708 0.518159 0)
(0.0863381 0.528978 0)
(0.0557897 0.538666 0)
(3 1.44271e-14 0)
(3 4.8002e-14 0)
(3 2.46457e-14 0)
(3 1.42492e-14 0)
(3 1.81185e-14 0)
(3 3.5034e-14 0)
(3 1.87224e-14 0)
(3 3.20604e-14 0)
(3 6.29296e-14 0)
(3 4.95218e-14 0)
(3 4.88783e-14 0)
(3 5.61571e-14 0)
(3 4.9767e-14 0)
(3 3.6923e-15 0)
(3 -3.28419e-14 0)
(3 -9.4063e-15 0)
(3 -1.02e-14 0)
(3 9.53697e-15 0)
(3 1.07802e-13 0)
(3 8.41035e-14 0)
(3 6.78095e-14 0)
(3 4.13559e-14 0)
(3 -9.10914e-15 0)
(3 -6.38085e-14 0)
(3.0006 1.71368e-05 0)
(1.28134 0.306808 0)
(0.797908 0.278321 0)
(0.78137 0.308463 0)
(0.759127 0.325132 0)
(0.73675 0.332684 0)
(0.715026 0.339128 0)
(0.692842 0.346659 0)
(0.667678 0.355291 0)
(0.637719 0.364463 0)
(0.603508 0.371064 0)
(0.56646 0.374831 0)
(0.52865 0.380575 0)
(0.492226 0.391692 0)
(0.456432 0.403901 0)
(0.422015 0.419532 0)
(0.386863 0.437702 0)
(0.352662 0.462809 0)
(0.313092 0.487036 0)
(0.272089 0.517253 0)
(0.222069 0.542128 0)
(0.172546 0.582704 0)
(0.10426 0.598387 0)
(0.0701257 0.612144 0)
(3 1.19483e-14 0)
(3 8.21917e-16 0)
(3 1.53835e-14 0)
(3 1.86101e-16 0)
(3 -1.91333e-14 0)
(3 8.94381e-15 0)
(3 -4.28398e-14 0)
(3 -3.45909e-14 0)
(3 6.50112e-14 0)
(3 6.48105e-14 0)
(3 -5.26661e-15 0)
(3 -1.58124e-14 0)
(3 5.79693e-14 0)
(3 1.04152e-14 0)
(3 -1.62017e-14 0)
(3 -1.51289e-14 0)
(3 4.6293e-14 0)
(3 5.37351e-14 0)
(3 1.90747e-14 0)
(3 2.17251e-14 0)
(3 1.38925e-14 0)
(3 -1.1713e-14 0)
(3 -5.76753e-15 0)
(3 -2.35808e-14 0)
(3 -6.40115e-08 0)
(1.49937 0.335711 0)
(0.808332 0.309093 0)
(0.753038 0.317971 0)
(0.736498 0.332071 0)
(0.719375 0.34211 0)
(0.704413 0.35323 0)
(0.688434 0.365225 0)
(0.672799 0.379249 0)
(0.653899 0.392605 0)
(0.628833 0.403633 0)
(0.597629 0.411336 0)
(0.56248 0.418467 0)
(0.526478 0.430148 0)
(0.489533 0.442175 0)
(0.45351 0.458331 0)
(0.417182 0.476908 0)
(0.383324 0.504358 0)
(0.344726 0.532985 0)
(0.304854 0.569553 0)
(0.251906 0.605074 0)
(0.196952 0.660414 0)
(0.116971 0.687773 0)
(0.0717842 0.708948 0)
(3 -1.21759e-14 0)
(3 -5.32713e-14 0)
(3 -5.52475e-14 0)
(3 -4.44649e-14 0)
(3 -2.43886e-14 0)
(3 -3.80966e-14 0)
(3 -3.41993e-14 0)
(3 -4.04723e-14 0)
(3 5.5177e-15 0)
(3 2.79046e-14 0)
(3 -9.69191e-17 0)
(3 -5.21273e-15 0)
(3 5.08496e-14 0)
(3 6.2346e-14 0)
(3 7.77078e-14 0)
(3 4.6171e-14 0)
(3 4.24533e-14 0)
(3 6.08774e-14 0)
(3 1.21045e-14 0)
(3 8.70889e-15 0)
(3 -4.5194e-15 0)
(3 -2.93198e-14 0)
(3 3.64588e-14 0)
(3 1.45011e-14 0)
(3 -8.28569e-08 0)
(1.83237 0.374463 0)
(0.836015 0.368506 0)
(0.74502 0.347886 0)
(0.725875 0.349435 0)
(0.710744 0.356553 0)
(0.696327 0.3655 0)
(0.682464 0.377241 0)
(0.668994 0.392304 0)
(0.65639 0.410576 0)
(0.641079 0.428307 0)
(0.619258 0.442502 0)
(0.591333 0.453962 0)
(0.560381 0.468397 0)
(0.525325 0.482271 0)
(0.490323 0.499499 0)
(0.453717 0.518026 0)
(0.419954 0.547129 0)
(0.382517 0.580728 0)
(0.344979 0.626377 0)
(0.295963 0.674727 0)
(0.250351 0.744001 0)
(0.167813 0.788778 0)
(0.111145 0.822429 0)
(3 -1.40489e-14 0)
(3 -7.88413e-15 0)
(3 -2.85115e-14 0)
(3 -5.58677e-15 0)
(3 1.09181e-14 0)
(3 -1.36626e-14 0)
(3 -3.09581e-14 0)
(3 -4.19203e-14 0)
(3 -3.82105e-14 0)
(3 -3.61897e-14 0)
(3 9.03551e-15 0)
(3 2.68936e-14 0)
(3 -4.75599e-14 0)
(3 3.91857e-14 0)
(3 7.47952e-14 0)
(3 9.02232e-14 0)
(3 2.35357e-14 0)
(3 6.6559e-15 0)
(3 -1.71003e-14 0)
(3 -3.08687e-16 0)
(3 8.80722e-15 0)
(3 -8.02942e-15 0)
(3 -2.46644e-14 0)
(3 4.65445e-15 0)
(3 -1.773e-08 0)
(2.31824 0.375291 0)
(0.909127 0.437639 0)
(0.785293 0.376165 0)
(0.753469 0.37348 0)
(0.726077 0.376612 0)
(0.703999 0.383805 0)
(0.686267 0.394339 0)
(0.670988 0.407689 0)
(0.658282 0.425007 0)
(0.646534 0.44518 0)
(0.632866 0.46534 0)
(0.613159 0.482949 0)
(0.589855 0.501931 0)
(0.561327 0.520161 0)
(0.530499 0.540373 0)
(0.495776 0.559978 0)
(0.463744 0.590818 0)
(0.429324 0.628161 0)
(0.39982 0.679969 0)
(0.356868 0.737014 0)
(0.316353 0.835412 0)
(0.206562 0.944941 0)
(0.160637 1.03843 0)
(3 9.18636e-15 0)
(3 3.19655e-14 0)
(3 3.91545e-14 0)
(3 4.3007e-14 0)
(3 -1.18686e-14 0)
(3 -5.19645e-14 0)
(3 -1.07155e-13 0)
(3 -9.78913e-14 0)
(3 -6.57923e-14 0)
(3 -7.39428e-14 0)
(3 -3.99891e-14 0)
(3 2.11915e-15 0)
(3 -3.99004e-14 0)
(3 2.54428e-14 0)
(3 7.60861e-14 0)
(3 1.42884e-13 0)
(3 1.37831e-13 0)
(3 1.00137e-13 0)
(3 9.89814e-15 0)
(3 -6.21567e-14 0)
(3 -2.72054e-14 0)
(3 4.60946e-14 0)
(3 6.26275e-14 0)
(3 1.06767e-13 0)
(3 -1.84178e-09 0)
(2.91061 0.190005 0)
(1.0762 0.464294 0)
(0.861292 0.399119 0)
(0.824336 0.395112 0)
(0.777784 0.400344 0)
(0.739128 0.40533 0)
(0.709621 0.413453 0)
(0.686632 0.425154 0)
(0.669073 0.441117 0)
(0.655628 0.460911 0)
(0.64417 0.48303 0)
(0.630467 0.505455 0)
(0.613818 0.529464 0)
(0.593762 0.553541 0)
(0.57014 0.579019 0)
(0.540782 0.601723 0)
(0.513602 0.634533 0)
(0.4835 0.673149 0)
(0.462584 0.73106 0)
(0.427091 0.80971 0)
(0.410652 0.944492 0)
(0.395079 1.09474 0)
(0.539136 1.34756 0)
(3 -1.69983e-15 0)
(3 1.4859e-14 0)
(3 1.25226e-14 0)
(3 -7.20947e-15 0)
(3 -1.64024e-14 0)
(3 -3.30154e-14 0)
(3 -6.63461e-14 0)
(3 -8.03731e-14 0)
(3 -1.6019e-13 0)
(3 -1.75042e-13 0)
(3 -1.75572e-13 0)
(3 -7.28192e-14 0)
(3 -4.2105e-14 0)
(3 2.74806e-14 0)
(3 7.50988e-14 0)
(3 1.05671e-13 0)
(3 1.6641e-13 0)
(3 1.30763e-13 0)
(3 2.24611e-14 0)
(3 -6.14327e-14 0)
(3 1.27952e-14 0)
(3 3.80637e-14 0)
(3 5.07998e-14 0)
(3 5.20159e-14 0)
(3 -7.54331e-11 0)
(3.04681 0.0116331 0)
(1.26787 0.427812 0)
(0.883662 0.430281 0)
(0.857946 0.447691 0)
(0.822032 0.445473 0)
(0.782877 0.442245 0)
(0.746347 0.443646 0)
(0.715295 0.449239 0)
(0.690693 0.460369 0)
(0.672839 0.477404 0)
(0.659696 0.499076 0)
(0.64812 0.523351 0)
(0.636883 0.550661 0)
(0.623576 0.579606 0)
(0.609065 0.611011 0)
(0.587624 0.639014 0)
(0.568199 0.67492 0)
(0.544964 0.715263 0)
(0.53332 0.777653 0)
(0.523857 0.869303 0)
(0.537963 1.00915 0)
(0.624667 1.16056 0)
(0.929909 1.35178 0)
(3 -1.04181e-14 0)
(3 -5.42112e-15 0)
(3 2.58921e-15 0)
(3 9.49972e-15 0)
(3 6.61717e-14 0)
(3 8.90061e-14 0)
(3 5.14816e-14 0)
(3 -1.1393e-14 0)
(3 -8.39833e-14 0)
(3 -1.17323e-13 0)
(3 -1.19877e-13 0)
(3 -1.25985e-13 0)
(3 -8.95871e-14 0)
(3 -1.87257e-14 0)
(3 1.7119e-14 0)
(3 3.28166e-15 0)
(3 4.10937e-14 0)
(3 5.54117e-14 0)
(3 5.51415e-14 0)
(3 4.79259e-14 0)
(3 1.63147e-14 0)
(3 7.15377e-15 0)
(3 2.61539e-14 0)
(3 1.02195e-13 0)
(3 -1.56893e-12 0)
(3.0017 -7.81438e-06 0)
(1.49252 0.424749 0)
(0.866042 0.459978 0)
(0.844728 0.470625 0)
(0.823353 0.474378 0)
(0.801197 0.475458 0)
(0.774858 0.477282 0)
(0.745985 0.480436 0)
(0.719018 0.486694 0)
(0.696505 0.498727 0)
(0.680562 0.51743 0)
(0.667985 0.540654 0)
(0.659879 0.568952 0)
(0.650844 0.600796 0)
(0.64509 0.636761 0)
(0.633228 0.67108 0)
(0.623968 0.710882 0)
(0.611366 0.753567 0)
(0.61069 0.815563 0)
(0.625738 0.905902 0)
(0.672904 1.02864 0)
(0.822786 1.16499 0)
(1.16328 1.27712 0)
(3 2.2345e-15 0)
(3 -2.01242e-14 0)
(3 -1.73701e-14 0)
(3 -2.42201e-14 0)
(3 3.70166e-14 0)
(3 6.64099e-14 0)
(3 5.113e-14 0)
(3 -4.70986e-14 0)
(3 -6.19811e-14 0)
(3 -5.74291e-14 0)
(3 -5.20239e-14 0)
(3 -6.94686e-14 0)
(3 8.87824e-15 0)
(3 -1.69665e-14 0)
(3 1.81157e-14 0)
(3 5.44381e-14 0)
(3 8.79304e-14 0)
(3 1.35592e-13 0)
(3 1.48314e-13 0)
(3 1.47607e-13 0)
(3 1.69626e-14 0)
(3 -4.38459e-15 0)
(3 1.96342e-14 0)
(3 5.42452e-14 0)
(3 9.25257e-15 0)
(3 -1.94797e-07 0)
(1.93243 0.452083 0)
(0.894832 0.491516 0)
(0.831496 0.477226 0)
(0.82596 0.487684 0)
(0.812432 0.495888 0)
(0.795524 0.502728 0)
(0.774046 0.508373 0)
(0.750776 0.514388 0)
(0.727431 0.522473 0)
(0.70918 0.537604 0)
(0.693924 0.557695 0)
(0.686342 0.584548 0)
(0.679645 0.616572 0)
(0.67972 0.654704 0)
(0.676969 0.694587 0)
(0.678809 0.738292 0)
(0.67897 0.78388 0)
(0.690918 0.842319 0)
(0.722087 0.923599 0)
(0.798461 1.02964 0)
(0.969424 1.13826 0)
(1.25252 1.20812 0)
(3 -1.83346e-15 0)
(3 -1.04608e-15 0)
(3 -5.7823e-15 0)
(3 -3.08715e-14 0)
(3 -5.22303e-14 0)
(3 -4.97397e-14 0)
(3 -1.2229e-14 0)
(3 1.64667e-14 0)
(3 -1.43208e-15 0)
(3 5.52917e-15 0)
(3 5.12777e-14 0)
(3 4.81234e-14 0)
(3 7.41043e-14 0)
(3 5.87084e-14 0)
(3 6.41902e-14 0)
(3 9.50564e-14 0)
(3 1.11906e-13 0)
(3 1.20391e-13 0)
(3 1.21213e-13 0)
(3 1.18752e-13 0)
(3 5.14861e-14 0)
(3 7.35182e-14 0)
(3 -3.67316e-14 0)
(3 -5.18283e-14 0)
(3 -5.73542e-14 0)
(3 -2.47617e-07 0)
(2.60887 0.357695 0)
(1.01466 0.546283 0)
(0.873983 0.484766 0)
(0.855264 0.494597 0)
(0.83757 0.509193 0)
(0.820632 0.52165 0)
(0.801883 0.532026 0)
(0.78273 0.541597 0)
(0.76148 0.549579 0)
(0.74272 0.562713 0)
(0.725838 0.578782 0)
(0.716455 0.602487 0)
(0.710854 0.632136 0)
(0.713898 0.669006 0)
(0.718175 0.711079 0)
(0.729874 0.757615 0)
(0.743273 0.806192 0)
(0.767788 0.861144 0)
(0.811497 0.930846 0)
(0.903765 1.01671 0)
(1.06886 1.09682 0)
(1.30508 1.14441 0)
(3 -4.4961e-15 0)
(3 2.23801e-14 0)
(3 5.45254e-14 0)
(3 2.75123e-14 0)
(3 -6.84738e-14 0)
(3 -6.05078e-14 0)
(3 6.50912e-14 0)
(3 1.17629e-13 0)
(3 6.67408e-14 0)
(3 5.03152e-14 0)
(3 7.82452e-14 0)
(3 1.31189e-13 0)
(3 1.36297e-13 0)
(3 1.40247e-13 0)
(3 8.23716e-14 0)
(3 -7.07488e-16 0)
(3 -9.81963e-15 0)
(3 1.15182e-14 0)
(3 7.30114e-14 0)
(3 5.12449e-14 0)
(3 7.37015e-15 0)
(3 2.12799e-14 0)
(3 1.00672e-14 0)
(3 7.6471e-15 0)
(3 1.5918e-14 0)
(3 -5.22346e-08 0)
(3.08189 0.0484728 0)
(1.26857 0.525267 0)
(0.929716 0.513737 0)
(0.897176 0.523476 0)
(0.872463 0.531321 0)
(0.851411 0.540334 0)
(0.833171 0.550872 0)
(0.816914 0.562715 0)
(0.798509 0.572624 0)
(0.781239 0.586162 0)
(0.764443 0.600034 0)
(0.752808 0.620391 0)
(0.746588 0.646523 0)
(0.749855 0.680122 0)
(0.758155 0.72058 0)
(0.776261 0.767074 0)
(0.800807 0.817326 0)
(0.836498 0.870459 0)
(0.891011 0.930738 0)
(0.988371 0.996961 0)
(1.13604 1.05218 0)
(1.32435 1.08361 0)
(3 9.00057e-16 0)
(3 1.77402e-14 0)
(3 4.14448e-15 0)
(3 1.16829e-14 0)
(3 4.99079e-14 0)
(3 8.30477e-14 0)
(3 1.04515e-13 0)
(3 1.0442e-13 0)
(3 6.4581e-14 0)
(3 -1.76937e-14 0)
(3 -2.48734e-14 0)
(3 6.61177e-14 0)
(3 1.05709e-13 0)
(3 1.4714e-13 0)
(3 1.08435e-13 0)
(3 -2.40506e-14 0)
(3 -8.23864e-14 0)
(3 -5.7741e-14 0)
(3 -3.26444e-14 0)
(3 2.51542e-14 0)
(3 9.02437e-14 0)
(3 2.35542e-14 0)
(3 7.04299e-15 0)
(3 -3.06279e-14 0)
(3 -1.33978e-14 0)
(3 -5.3313e-09 0)
(3.00935 0.000127995 0)
(1.49707 0.507387 0)
(0.919104 0.571055 0)
(0.89267 0.556149 0)
(0.876884 0.557845 0)
(0.862206 0.564166 0)
(0.849227 0.573948 0)
(0.838312 0.586509 0)
(0.825728 0.597909 0)
(0.813947 0.612164 0)
(0.801223 0.625639 0)
(0.79115 0.643031 0)
(0.785114 0.664598 0)
(0.787942 0.693474 0)
(0.798407 0.729379 0)
(0.819593 0.771799 0)
(0.850865 0.819772 0)
(0.895273 0.871009 0)
(0.958548 0.925477 0)
(1.05563 0.977556 0)
(1.18514 1.01551 0)
(1.34253 1.03583 0)
(3 5.49069e-15 0)
(3 2.10349e-15 0)
(3 -2.14149e-14 0)
(3 7.32816e-15 0)
(3 4.59203e-14 0)
(3 9.8589e-14 0)
(3 4.99762e-14 0)
(3 2.64996e-14 0)
(3 1.2687e-14 0)
(3 -8.84613e-15 0)
(3 9.56969e-16 0)
(3 2.639e-14 0)
(3 3.53966e-14 0)
(3 -2.59238e-15 0)
(3 -7.93574e-14 0)
(3 -1.1522e-13 0)
(3 -1.2883e-13 0)
(3 -1.42244e-13 0)
(3 -9.07288e-14 0)
(3 -4.0633e-14 0)
(3 -1.04883e-14 0)
(3 -1.19695e-14 0)
(3 -2.14349e-14 0)
(3 -2.47776e-14 0)
(3 -2.74294e-14 0)
(3 -1.7004e-10 0)
(3.00006 -2.49713e-06 0)
(2.06304 0.51172 0)
(0.966425 0.602976 0)
(0.90462 0.567156 0)
(0.894639 0.572586 0)
(0.882528 0.579822 0)
(0.871357 0.588896 0)
(0.862492 0.601714 0)
(0.853371 0.614562 0)
(0.845984 0.630109 0)
(0.838001 0.645254 0)
(0.831465 0.662594 0)
(0.826913 0.681312 0)
(0.829052 0.70597 0)
(0.839964 0.737049 0)
(0.861757 0.773976 0)
(0.895099 0.81657 0)
(0.943482 0.863021 0)
(1.01119 0.91159 0)
(1.10484 0.954768 0)
(1.22164 0.983712 0)
(1.3536 0.995854 0)
(3 -3.93635e-15 0)
(3 -1.95509e-14 0)
(3 -6.13811e-15 0)
(3 1.63013e-14 0)
(3 1.18275e-14 0)
(3 -1.84543e-14 0)
(3 -9.42681e-14 0)
(3 -1.12464e-13 0)
(3 -5.69885e-14 0)
(3 3.72857e-14 0)
(3 3.10837e-14 0)
(3 -3.81665e-14 0)
(3 -3.81284e-14 0)
(3 -4.19004e-14 0)
(3 -6.99309e-14 0)
(3 -5.96734e-14 0)
(3 -8.67802e-14 0)
(3 -7.77658e-14 0)
(3 -9.81268e-14 0)
(3 -1.65349e-13 0)
(3 -1.82325e-13 0)
(3 -1.38606e-13 0)
(3 -7.77002e-14 0)
(3 -6.18837e-14 0)
(3 -9.66702e-15 0)
(3 -4.42251e-13 0)
(3.00001 -3.2843e-06 0)
(2.87606 0.246303 0)
(1.15425 0.61654 0)
(0.962053 0.572945 0)
(0.937936 0.580234 0)
(0.917493 0.593377 0)
(0.901173 0.603868 0)
(0.889925 0.617148 0)
(0.880578 0.63047 0)
(0.875132 0.64659 0)
(0.870901 0.663256 0)
(0.868857 0.681615 0)
(0.868072 0.699799 0)
(0.871257 0.720736 0)
(0.882328 0.746944 0)
(0.903861 0.778165 0)
(0.937241 0.814093 0)
(0.986131 0.853855 0)
(1.05366 0.894737 0)
(1.14315 0.932461 0)
(1.24893 0.95697 0)
(1.36362 0.96592 0)
(3 -2.77846e-15 0)
(3 -2.19653e-14 0)
(3 -1.94286e-14 0)
(3 -8.4281e-15 0)
(3 -3.13893e-14 0)
(3 -1.28177e-13 0)
(3 -2.19378e-13 0)
(3 -2.21316e-13 0)
(3 -1.93822e-13 0)
(3 -5.39048e-14 0)
(3 -5.49238e-14 0)
(3 -1.14803e-13 0)
(3 -1.18721e-13 0)
(3 -7.36723e-14 0)
(3 -6.13078e-14 0)
(3 -9.23152e-14 0)
(3 -7.74255e-14 0)
(3 -4.82604e-14 0)
(3 -5.79694e-14 0)
(3 -9.73045e-14 0)
(3 -1.34615e-13 0)
(3 -1.02886e-13 0)
(3 -4.5991e-14 0)
(3 -7.05939e-15 0)
(3 8.06865e-15 0)
(3 9.56325e-14 0)
(3 -6.95402e-07 0)
(3.05641 0.0129434 0)
(1.40344 0.574096 0)
(0.992081 0.624035 0)
(0.963968 0.620668 0)
(0.939065 0.623468 0)
(0.923496 0.627122 0)
(0.912987 0.636807 0)
(0.904818 0.647607 0)
(0.901144 0.661867 0)
(0.900159 0.677974 0)
(0.902294 0.69633 0)
(0.906477 0.715204 0)
(0.912905 0.73435 0)
(0.924744 0.756313 0)
(0.945745 0.78212 0)
(0.978178 0.811415 0)
(1.02476 0.843516 0)
(1.08735 0.876145 0)
(1.16919 0.907897 0)
(1.26265 0.928598 0)
(1.36679 0.935935 0)
(3 1.40493e-15 0)
(3 -9.8068e-15 0)
(3 -4.25668e-15 0)
(3 -1.0267e-14 0)
(3 -2.64748e-14 0)
(3 -3.32044e-14 0)
(3 -4.43109e-14 0)
(3 -5.03873e-14 0)
(3 -4.2777e-14 0)
(3 -2.06144e-14 0)
(3 4.21926e-14 0)
(3 6.79151e-14 0)
(3 2.66534e-14 0)
(3 -7.64453e-14 0)
(3 -4.44899e-14 0)
(3 -3.98357e-14 0)
(3 -3.90473e-14 0)
(3 -8.53811e-14 0)
(3 -4.99026e-14 0)
(3 -3.48237e-15 0)
(3 3.35958e-14 0)
(3 5.12814e-14 0)
(3 5.29438e-14 0)
(3 3.78717e-14 0)
(3 3.13602e-14 0)
(3 9.87727e-14 0)
(3 -7.06185e-08 0)
(3.00184 -1.15394e-06 0)
(1.86652 0.566195 0)
(0.999774 0.661033 0)
(0.96568 0.638557 0)
(0.958408 0.643726 0)
(0.949279 0.645856 0)
(0.939655 0.653287 0)
(0.932058 0.662057 0)
(0.928294 0.674537 0)
(0.928539 0.689632 0)
(0.932887 0.707415 0)
(0.940666 0.726866 0)
(0.951572 0.746444 0)
(0.965165 0.766154 0)
(0.986683 0.788501 0)
(1.01884 0.812636 0)
(1.06262 0.838289 0)
(1.11964 0.864342 0)
(1.19371 0.88931 0)
(1.27676 0.905302 0)
(1.37201 0.912241 0)
(3 4.81513e-16 0)
(3 1.46022e-14 0)
(3 1.28979e-14 0)
(3 5.51333e-14 0)
(3 8.94776e-14 0)
(3 9.20381e-14 0)
(3 5.95737e-14 0)
(3 6.06989e-14 0)
(3 7.43967e-14 0)
(3 4.51504e-14 0)
(3 6.21426e-14 0)
(3 8.58445e-14 0)
(3 7.09246e-14 0)
(3 -3.6542e-14 0)
(3 -2.46248e-14 0)
(3 -6.64765e-14 0)
(3 1.7178e-14 0)
(3 1.99122e-14 0)
(3 9.44889e-14 0)
(3 1.54521e-13 0)
(3 2.01017e-13 0)
(3 8.95226e-14 0)
(3 6.16434e-14 0)
(3 2.7358e-14 0)
(3 1.7451e-14 0)
(3 2.79088e-14 0)
(3 -2.24272e-09 0)
(3 -1.6717e-07 0)
(2.73915 0.329378 0)
(1.15138 0.674149 0)
(1.00133 0.638216 0)
(0.990408 0.64981 0)
(0.979866 0.659441 0)
(0.969444 0.668777 0)
(0.961218 0.677229 0)
(0.956616 0.688089 0)
(0.956484 0.701284 0)
(0.96173 0.717519 0)
(0.970796 0.735699 0)
(0.985539 0.755544 0)
(1.00208 0.77411 0)
(1.02547 0.792574 0)
(1.05729 0.812522 0)
(1.0977 0.832533 0)
(1.14896 0.852564 0)
(1.21469 0.870803 0)
(1.28672 0.882098 0)
(1.37257 0.888117 0)
(3 1.97787e-15 0)
(3 -3.9934e-15 0)
(3 1.17426e-14 0)
(3 3.87241e-14 0)
(3 1.0992e-13 0)
(3 1.24956e-13 0)
(3 9.92715e-14 0)
(3 9.98727e-14 0)
(3 7.87674e-14 0)
(3 4.26308e-14 0)
(3 1.09042e-14 0)
(3 1.31823e-14 0)
(3 -6.31753e-15 0)
(3 -1.48022e-14 0)
(3 -5.36583e-14 0)
(3 -3.46986e-14 0)
(3 -3.77582e-14 0)
(3 1.0377e-13 0)
(3 8.70907e-14 0)
(3 7.90759e-15 0)
(3 3.5039e-14 0)
(3 1.02987e-14 0)
(3 6.66538e-15 0)
(3 1.75722e-14 0)
(3 -2.54233e-14 0)
(3 -2.07388e-14 0)
(3 -5.34512e-12 0)
(3 -2.20069e-07 0)
(3.06969 0.0243145 0)
(1.44182 0.640859 0)
(1.04705 0.682468 0)
(1.01535 0.679476 0)
(1.0006 0.683525 0)
(0.990828 0.690135 0)
(0.984898 0.695442 0)
(0.982361 0.703725 0)
(0.983407 0.713633 0)
(0.989231 0.727204 0)
(0.998982 0.743263 0)
(1.01501 0.761476 0)
(1.03459 0.77997 0)
(1.06044 0.798048 0)
(1.09261 0.815775 0)
(1.13083 0.832276 0)
(1.1786 0.848196 0)
(1.23719 0.861426 0)
(1.30112 0.868739 0)
(1.37805 0.873598 0)
(3 7.83213e-15 0)
(3 1.32373e-14 0)
(3 1.18963e-14 0)
(3 -3.11919e-14 0)
(3 -1.11652e-14 0)
(3 -1.68959e-14 0)
(3 -1.90466e-14 0)
(3 -8.91514e-15 0)
(3 -1.3662e-14 0)
(3 7.50077e-15 0)
(3 2.3479e-14 0)
(3 4.66805e-15 0)
(3 -6.98386e-14 0)
(3 -5.63091e-14 0)
(3 -6.49176e-14 0)
(3 -3.30674e-14 0)
(3 -1.88958e-15 0)
(3 2.86527e-15 0)
(3 -1.5275e-14 0)
(3 -3.20287e-14 0)
(3 -4.6342e-14 0)
(3 -6.23897e-14 0)
(3 -1.17808e-13 0)
(3 -1.39314e-13 0)
(3 -1.28401e-13 0)
(3 -7.71592e-14 0)
(3 -2.93483e-14 0)
(3 -4.72117e-08 0)
(3.0035 7.66484e-05 0)
(2.00053 0.609664 0)
(1.07343 0.727983 0)
(1.03566 0.699185 0)
(1.03104 0.698196 0)
(1.02229 0.704061 0)
(1.01512 0.708651 0)
(1.01238 0.716381 0)
(1.01323 0.724932 0)
(1.0183 0.736762 0)
(1.02747 0.74958 0)
(1.04257 0.766272 0)
(1.06361 0.782422 0)
(1.09044 0.798804 0)
(1.12255 0.81442 0)
(1.15953 0.828221 0)
(1.20516 0.840811 0)
(1.25751 0.85055 0)
(1.31537 0.855504 0)
(1.38383 0.858506 0)
(3 4.15997e-15 0)
(3 1.6866e-14 0)
(3 -6.63202e-15 0)
(3 -3.57044e-14 0)
(3 -6.23304e-14 0)
(3 -6.22969e-14 0)
(3 -3.99486e-14 0)
(3 -2.08647e-14 0)
(3 3.52997e-14 0)
(3 6.35527e-14 0)
(3 8.9821e-14 0)
(3 6.7574e-14 0)
(3 3.03371e-14 0)
(3 -1.01555e-14 0)
(3 3.00739e-15 0)
(3 -8.58741e-15 0)
(3 1.82979e-15 0)
(3 -4.25237e-14 0)
(3 -6.53785e-15 0)
(3 3.98111e-14 0)
(3 1.48373e-14 0)
(3 -9.94812e-14 0)
(3 -1.41875e-13 0)
(3 -1.25241e-13 0)
(3 -7.99664e-14 0)
(3 -6.79888e-14 0)
(3 -1.61002e-14 0)
(3 -4.0464e-09 0)
(3.00001 -2.05217e-07 0)