/*--------------------------------*- C++ -*----------------------------------*\
  =========                 |
  \\      /  F ield         | OpenFOAM: The Open Source CFD Toolbox
   \\    /   O peration     | Website:  https://openfoam.org
    \\  /    A nd           | Version:  10
     \\/     M anipulation  |
\*---------------------------------------------------------------------------*/
FoamFile
{
    format      ascii;
    class       volScalarField;
    location    "52";
    object      p;
}
// * * * * * * * * * * * * * * * * * * * * * * * * * * * * * * * * * * * * * //

dimensions      [0 2 -2 0 0 0 0];

internalField   nonuniform List<scalar> 
8800
(
0.786309
0.738521
0.699831
0.670835
0.649969
0.635137
0.624538
0.617056
0.612233
0.610172
0.611437
0.615623
0.622266
0.63158
0.644358
0.66209
0.686866
0.720806
0.763355
0.822057
0.617561
0.62524
0.632713
0.636021
0.634516
0.629436
0.622947
0.616867
0.61214
0.609294
0.609011
0.611513
0.615998
0.62194
0.628707
0.634985
0.638624
0.637887
0.632466
0.623774
0.59597
0.602129
0.606255
0.609197
0.611243
0.611845
0.610735
0.608627
0.606607
0.605696
0.606653
0.60903
0.611825
0.614002
0.614606
0.613405
0.611061
0.607666
0.603107
0.599346
0.59017
0.59282
0.59557
0.59797
0.599601
0.600759
0.601495
0.601608
0.601308
0.601253
0.602
0.603164
0.603999
0.604058
0.603445
0.60235
0.600531
0.597958
0.595553
0.594049
0.584804
0.586228
0.588004
0.590032
0.591812
0.593148
0.59413
0.594922
0.59553
0.596088
0.596732
0.59722
0.597312
0.597017
0.596314
0.59506
0.59336
0.591508
0.5902
0.589368
0.579745
0.580665
0.581903
0.583465
0.585091
0.58661
0.587887
0.588946
0.589902
0.590787
0.591467
0.591784
0.591731
0.591281
0.590392
0.589185
0.587852
0.586587
0.585762
0.585211
0.574862
0.575531
0.57649
0.577786
0.579187
0.580637
0.582067
0.583378
0.584566
0.585661
0.586469
0.586822
0.586723
0.5862
0.585382
0.584425
0.583404
0.582475
0.581887
0.581482
0.570107
0.570623
0.571402
0.572525
0.573794
0.575157
0.576591
0.57805
0.579463
0.580783
0.58177
0.58222
0.582174
0.58177
0.581151
0.580412
0.579627
0.578935
0.578498
0.578182
0.565411
0.565821
0.566472
0.56747
0.568665
0.56998
0.571409
0.572947
0.574549
0.576124
0.577343
0.577972
0.578108
0.577913
0.577508
0.576973
0.576387
0.575884
0.575558
0.575301
0.560689
0.561023
0.561585
0.562503
0.563647
0.564943
0.566404
0.568035
0.569814
0.571666
0.573187
0.574094
0.574492
0.574537
0.574351
0.574031
0.573632
0.573285
0.573042
0.572827
0.555855
0.556132
0.556632
0.557503
0.558627
0.559945
0.561474
0.563236
0.565234
0.567403
0.569306
0.570573
0.571286
0.571605
0.571657
0.571549
0.571335
0.571123
0.570948
0.570763
0.550823
0.551055
0.551516
0.55237
0.553513
0.554895
0.556534
0.558481
0.560759
0.563325
0.565696
0.567397
0.568477
0.569107
0.569424
0.569535
0.569502
0.569415
0.569294
0.56913
0.545504
0.545702
0.546143
0.547009
0.548213
0.549703
0.551507
0.553706
0.556344
0.559411
0.56235
0.564564
0.566071
0.567055
0.567665
0.568003
0.568167
0.568195
0.568121
0.567972
0.539803
0.539972
0.54041
0.541318
0.542625
0.544274
0.54631
0.548839
0.551937
0.555626
0.559255
0.56208
0.56409
0.565479
0.566421
0.567036
0.56739
0.567526
0.56749
0.567351
0.533605
0.53375
0.534201
0.535179
0.536635
0.538501
0.540845
0.543798
0.547477
0.551933
0.5564
0.559958
0.562562
0.564426
0.565744
0.566654
0.567224
0.567474
0.567476
0.567342
0.526779
0.526899
0.527376
0.528458
0.530113
0.532268
0.535006
0.538497
0.542897
0.54829
0.553773
0.558214
0.561525
0.563949
0.565709
0.566955
0.567769
0.568137
0.568173
0.568041
0.519156
0.519251
0.51977
0.52099
0.522902
0.525424
0.528668
0.532841
0.538142
0.544688
0.551399
0.55689
0.561037
0.56412
0.566407
0.568049
0.569129
0.56962
0.569688
0.569555
0.510506
0.510605
0.511178
0.512555
0.514796
0.517793
0.521682
0.526714
0.533137
0.541099
0.54929
0.55603
0.56116
0.565018
0.567933
0.570033
0.571417
0.572041
0.57214
0.572002
0.500538
0.500618
0.501279
0.502878
0.50555
0.509161
0.513869
0.519984
0.527805
0.5375
0.547469
0.555687
0.561978
0.566749
0.570387
0.573032
0.574759
0.575524
0.575653
0.575506
0.488888
0.488951
0.48971
0.491621
0.494845
0.499241
0.504995
0.512482
0.522043
0.533852
0.545954
0.55592
0.563573
0.569416
0.57389
0.57717
0.579281
0.580195
0.580351
0.580191
0.475018
0.47507
0.475971
0.478293
0.482247
0.487679
0.494802
0.504059
0.515813
0.530206
0.544836
0.556834
0.56605
0.573125
0.578576
0.582574
0.585102
0.586166
0.586342
0.586167
0.458173
0.458211
0.459328
0.46223
0.467184
0.474019
0.482967
0.494528
0.509051
0.526591
0.544185
0.558514
0.569507
0.577989
0.584535
0.589347
0.592314
0.593519
0.593706
0.593512
0.437235
0.437272
0.438728
0.442496
0.448889
0.4577
0.469152
0.483756
0.501765
0.523082
0.54411
0.561071
0.574054
0.584099
0.591848
0.59755
0.600955
0.602278
0.602461
0.602244
0.410467
0.410522
0.412559
0.417732
0.426349
0.438061
0.453039
0.471691
0.49407
0.519873
0.54479
0.564631
0.579773
0.59152
0.600574
0.607195
0.610996
0.612387
0.612545
0.612305
0.374864
0.375016
0.378245
0.386013
0.3984
0.41455
0.434564
0.458543
0.486282
0.517261
0.546454
0.569361
0.586759
0.600287
0.610725
0.618215
0.622303
0.62368
0.623785
0.623522
0.324689
0.325644
0.33207
0.345161
0.364096
0.387096
0.414039
0.444732
0.478777
0.515519
0.549259
0.575335
0.595029
0.610345
0.622166
0.630393
0.634599
0.635857
0.635883
0.635599
0.251061
0.258232
0.273121
0.296184
0.324897
0.357078
0.392509
0.430968
0.472054
0.515093
0.553735
0.583246
0.605466
0.622777
0.63607
0.644995
0.649266
0.650408
0.650383
0.650136
0.17174
0.188763
0.212922
0.246618
0.285501
0.327021
0.371031
0.417469
0.466026
0.516109
0.560673
0.594575
0.620048
0.639858
0.655046
0.664624
0.668722
0.669642
0.669639
0.669494
0.105663
0.125745
0.157586
0.200279
0.248155
0.298474
0.350806
0.405082
0.46098
0.517915
0.568134
0.606135
0.63464
0.656671
0.673141
0.682965
0.686878
0.687732
0.687812
0.687733
0.051542
0.0732777
0.110619
0.159711
0.214688
0.272426
0.33213
0.393599
0.456388
0.519842
0.575426
0.617264
0.648491
0.672428
0.690088
0.700422
0.704694
0.705636
0.705719
0.705683
0.00642712
0.029358
0.0704873
0.124661
0.185349
0.249209
0.315235
0.383092
0.452186
0.521726
0.582364
0.627811
0.661621
0.687447
0.70635
0.71755
0.722154
0.723066
0.723194
0.723189
-0.0319355
-0.00831819
0.0356654
0.0938867
0.15937
0.228441
0.299959
0.373495
0.448325
0.523507
0.588884
0.637731
0.673974
0.701627
0.72175
0.733742
0.73873
0.739776
0.739936
0.739956
-0.0655548
-0.041471
0.00479095
0.0663283
0.135867
0.209465
0.285848
0.364498
0.444586
0.525022
0.594851
0.646883
0.685395
0.714659
0.735851
0.748546
0.753944
0.755227
0.755438
0.755464
-0.095905
-0.0714078
-0.0232786
0.0410935
0.114128
0.191687
0.272426
0.355737
0.440697
0.526074
0.600115
0.655136
0.695718
0.726355
0.748525
0.76178
0.767508
0.769027
0.769269
0.769297
-0.123927
-0.0990482
-0.0493052
0.0174911
0.0936055
0.17467
0.259325
0.346903
0.43641
0.526476
0.604559
0.662437
0.704932
0.736845
0.759749
0.773416
0.779389
0.781074
0.781337
0.781348
-0.150402
-0.125097
-0.0738517
-0.00496049
0.0738887
0.158079
0.246271
0.337769
0.431536
0.526095
0.608138
0.668818
0.713143
0.746231
0.76971
0.783662
0.789811
0.791593
0.791847
0.791833
-0.175678
-0.149934
-0.0975167
-0.0265799
0.0546885
0.141683
0.233077
0.328182
0.425952
0.524858
0.610832
0.674324
0.720476
0.754669
0.778696
0.79277
0.79896
0.800788
0.801006
0.800959
-0.200158
-0.173846
-0.120372
-0.0476117
0.0358128
0.125324
0.219624
0.318046
0.419574
0.522687
0.612612
0.678999
0.727043
0.762354
0.786803
0.800915
0.807097
0.808885
0.809107
0.809039
-0.223969
-0.19722
-0.142561
-0.0682037
0.0171502
0.108917
0.205842
0.307307
0.412348
0.519535
0.613454
0.682887
0.732976
0.76944
0.794236
0.808312
0.814423
0.81614
0.816305
0.816207
-0.247226
-0.219931
-0.164236
-0.0884323
-0.00134619
0.092431
0.191713
0.295943
0.404252
0.515357
0.613309
0.686009
0.738368
0.776052
0.801142
0.815109
0.821042
0.822631
0.822724
0.822585
-0.270051
-0.242161
-0.185459
-0.108325
-0.0196999
0.075871
0.177258
0.283981
0.395293
0.510119
0.612125
0.688351
0.743285
0.782317
0.80766
0.82139
0.827005
0.828389
0.828401
0.828237
-0.29245
-0.263882
-0.206237
-0.127876
-0.0378759
0.0592703
0.162524
0.271465
0.385498
0.503802
0.609846
0.689869
0.747744
0.788368
0.813979
0.827283
0.832383
0.833481
0.833414
0.833235
-0.314265
-0.285056
-0.226509
-0.147057
-0.0558373
0.0426959
0.147573
0.258472
0.374929
0.496431
0.606413
0.690473
0.751697
0.794339
0.8204
0.833059
0.837302
0.837961
0.837805
0.837629
-0.335472
-0.305655
-0.246258
-0.165818
-0.073525
0.026208
0.132498
0.245081
0.363664
0.488038
0.601784
0.690031
0.755036
0.800297
0.827299
0.839222
0.842086
0.84192
0.841609
0.841479
-0.356139
-0.325642
-0.265457
-0.184123
-0.0908759
0.00989044
0.117385
0.231398
0.351799
0.478691
0.595919
0.688394
0.757557
0.806132
0.83499
0.846633
0.84767
0.845789
0.844956
0.845086
-0.376088
-0.344991
-0.284047
-0.201907
-0.10783
-0.00617322
0.102331
0.217532
0.33945
0.468489
0.588813
0.685395
0.758983
0.81148
0.843381
0.856246
0.856107
0.851692
0.848807
0.848243
-0.395416
-0.363692
-0.302045
-0.219199
-0.12442
-0.0220261
0.0872813
0.203429
0.326551
0.457363
0.580332
0.680757
0.758997
0.815793
0.851742
0.868221
0.869699
0.863811
0.855276
0.840875
-0.414045
-0.38173
-0.319569
-0.236197
-0.140932
-0.0379995
0.0718218
0.188607
0.312568
0.444677
0.569827
0.673688
0.757001
0.81827
0.858192
0.880014
0.88396
0.871996
0.852584
0.840279
-0.431798
-0.399238
-0.336423
-0.252686
-0.157027
-0.0537486
0.0561792
0.173391
0.297808
0.430695
0.557377
0.663742
0.752241
0.817792
0.858353
0.87991
0.887
0.86457
0.796677
0.766076
-0.448005
-0.417451
-0.35227
-0.268132
-0.171944
-0.0687706
0.0406632
0.158011
0.282488
0.415542
0.542927
0.650631
0.743398
0.813741
0.847446
0.862909
0.85459
0.801503
0.732529
0.690038
-0.504157
-0.433505
-0.366712
-0.283624
-0.187267
-0.0845125
0.0252108
0.142188
0.266245
0.398773
0.52588
0.633761
0.726745
0.8037
0.809754
0.814468
0.767042
0.698077
0.621924
0.579508
-0.465211
-0.449043
-0.38824
-0.304557
-0.209776
-0.107141
0.00155709
0.117842
0.240834
0.371834
0.496796
0.602646
0.687528
0.768221
0.757206
0.646222
0.542339
0.470052
0.39716
0.428365
-0.49652
-0.466903
-0.405104
-0.322193
-0.227404
-0.124967
-0.0160203
0.0996038
0.221496
0.35066
0.472775
0.574261
0.650498
0.692936
0.645576
0.498933
0.372438
0.2819
0.18361
0.234278
-0.52063
-0.488059
-0.424959
-0.341834
-0.246955
-0.144621
-0.0357629
0.0790131
0.199484
0.326235
0.444604
0.539965
0.607075
0.61601
0.510845
0.339456
0.187905
0.0699333
-0.0606592
-0.0275406
-0.544248
-0.510099
-0.445784
-0.36174
-0.266722
-0.164521
-0.0561792
0.0576237
0.176487
0.300461
0.414196
0.502139
0.553864
0.531982
0.374993
0.179954
-0.00940821
-0.176557
-0.364679
-0.382665
-0.567252
-0.532634
-0.4674
-0.382568
-0.287353
-0.18535
-0.0776467
0.0350672
0.152076
0.272901
0.381322
0.46169
0.494593
0.436828
0.245753
0.0365183
-0.179806
-0.368372
-0.609913
-0.908695
-0.59054
-0.555908
-0.490103
-0.404751
-0.309313
-0.207454
-0.100314
0.011283
0.12634
0.243775
0.346612
0.418781
0.431368
0.322744
0.133373
-0.0752201
-0.278494
-0.450013
-0.518571
-0.597884
-0.615067
-0.580366
-0.514241
-0.428624
-0.333101
-0.231474
-0.124986
-0.0146744
0.0981231
0.21166
0.308543
0.369863
0.358025
0.215848
0.0336433
-0.155978
-0.31764
-0.409745
-0.433642
-0.44962
-0.641144
-0.606319
-0.539984
-0.454268
-0.358844
-0.257615
-0.152015
-0.0432882
0.0668363
0.175841
0.266277
0.313878
0.284662
0.116679
-0.056743
-0.221319
-0.346705
-0.385389
-0.398318
-0.399647
-0.668973
-0.633939
-0.567392
-0.481672
-0.386484
-0.285876
-0.181416
-0.0746041
0.0324132
0.136315
0.219408
0.253052
0.204733
0.0250234
-0.139472
-0.286838
-0.361937
-0.379065
-0.380466
-0.380293
-0.698609
-0.663279
-0.59648
-0.510823
-0.416028
-0.316237
-0.213182
-0.10863
-0.00513714
0.0931325
0.16799
0.190163
0.106284
-0.0587965
-0.215311
-0.336724
-0.373026
-0.37118
-0.370117
-0.369511
-0.729761
-0.694158
-0.627135
-0.541623
-0.447375
-0.348629
-0.247271
-0.145333
-0.0457828
0.0463774
0.112781
0.118371
0.0163306
-0.137127
-0.275485
-0.350056
-0.360437
-0.363231
-0.363979
-0.363625
-0.761858
-0.726105
-0.659091
-0.573832
-0.480326
-0.38288
-0.283514
-0.184569
-0.0893472
-0.00363549
0.0541071
0.0450415
-0.0645992
-0.203565
-0.319288
-0.350585
-0.358706
-0.360463
-0.36036
-0.360058
-0.794427
-0.758565
-0.691878
-0.607037
-0.514515
-0.418647
-0.32161
-0.226035
-0.135548
-0.0562734
-0.0090662
-0.025521
-0.139183
-0.257164
-0.350569
-0.365097
-0.358426
-0.357594
-0.357616
-0.357496
-0.826569
-0.790812
-0.724604
-0.640619
-0.549375
-0.45543
-0.361078
-0.269228
-0.183895
-0.111016
-0.0737509
-0.0926465
-0.205213
-0.296981
-0.353103
-0.363882
-0.359643
-0.357349
-0.356547
-0.356339
-0.856654
-0.821636
-0.756292
-0.673633
-0.584108
-0.492491
-0.401219
-0.31341
-0.233556
-0.167352
-0.13366
-0.170781
-0.262865
-0.326979
-0.338099
-0.357072
-0.361648
-0.359905
-0.359239
-0.358712
-0.88311
-0.849163
-0.785789
-0.704869
-0.617639
-0.528844
-0.441108
-0.357631
-0.283334
-0.224327
-0.191929
-0.251082
-0.328297
-0.337855
-0.354954
-0.366998
-0.374285
-0.377205
-0.378453
-0.378239
-0.903781
-0.871587
-0.810993
-0.732883
-0.648641
-0.563276
-0.479565
-0.40073
-0.3319
-0.280366
-0.253639
-0.327451
-0.414682
-0.426133
-0.402556
-0.427505
-0.434971
-0.438148
-0.436258
-0.433955
-0.916415
-0.886941
-0.83001
-0.755776
-0.675564
-0.594373
-0.515237
-0.441305
-0.377777
-0.333218
-0.314854
-0.396507
-0.54847
-0.677225
-0.621415
-0.560546
-0.531137
-0.516941
-0.506786
-0.503894
-0.918355
-0.892955
-0.840872
-0.771702
-0.696672
-0.620716
-0.54663
-0.477757
-0.419333
-0.379706
-0.363238
-0.443664
-0.613147
-0.918207
-0.831679
-0.621143
-0.522996
-0.49073
-0.481899
-0.4793
-0.907533
-0.887011
-0.841405
-0.779034
-0.710446
-0.640679
-0.572305
-0.508513
-0.454446
-0.416577
-0.391069
-0.395464
-0.403128
-0.559163
-0.541679
-0.436234
-0.392966
-0.382022
-0.379461
-0.377075
-0.881798
-0.866221
-0.829822
-0.776566
-0.715923
-0.653261
-0.591028
-0.532222
-0.481015
-0.444493
-0.40158
-0.245683
0.0570933
0.368676
0.219161
-0.0562556
-0.210253
-0.264858
-0.281888
-0.283849
-0.843516
-0.833373
-0.806764
-0.764468
-0.713114
-0.658278
-0.602352
-0.547923
-0.499046
-0.461206
-0.408736
-0.236936
0.0976269
0.355234
0.139245
-0.148771
-0.341402
-0.409669
-0.425245
-0.433162
-0.79917
-0.793386
-0.777033
-0.745483
-0.703992
-0.656629
-0.606672
-0.556089
-0.508945
-0.471837
-0.44069
-0.51532
-0.802964
-1.07106
-1.17369
-1.19031
-1.07347
-0.935217
-0.864068
-0.873931
-0.758369
-0.754899
-0.746802
-0.725123
-0.691594
-0.650534
-0.605066
-0.556983
-0.509372
-0.472159
-0.455168
-0.724697
-1.412
-2.35209
-2.88822
-2.87835
-2.59356
-2.26589
-1.94838
-1.7761
-0.728499
-0.726292
-0.722299
-0.708259
-0.680538
-0.642979
-0.599528
-0.550532
-0.498759
-0.444359
-0.420315
-0.473957
-0.719225
-0.88909
-0.904442
-0.699687
-0.507663
-0.372318
-0.232503
-0.154846
-0.705916
-0.705121
-0.703942
-0.696568
-0.673844
-0.637626
-0.592479
-0.540175
-0.479432
-0.411536
-0.35114
-0.304719
-0.187173
0.135846
0.532847
0.888868
1.11436
1.21961
1.26941
1.2836
-0.692271
-0.691915
-0.691457
-0.68818
-0.670694
-0.634728
-0.586284
-0.528543
-0.461145
-0.381572
-0.287777
-0.184139
0.0678966
0.548108
1.03635
1.47399
1.74455
1.86999
1.91179
1.91952
-0.683154
-0.682911
-0.682357
-0.681556
-0.66934
-0.634036
-0.581988
-0.518543
-0.442172
-0.346381
-0.236482
-0.118395
0.145628
0.590461
1.0517
1.45649
1.72229
1.84774
1.89001
1.89935
-0.67716
-0.677229
-0.677214
-0.677045
-0.668387
-0.635916
-0.582057
-0.51267
-0.42708
-0.327208
-0.215941
-0.0994067
0.104125
0.492854
0.86981
1.19204
1.41396
1.52427
1.56697
1.57837
-0.674726
-0.673759
-0.670674
-0.667136
-0.664155
-0.641651
-0.588839
-0.51295
-0.421087
-0.317986
-0.213133
-0.111603
0.0412336
0.35697
0.653006
0.890248
1.06052
1.15143
1.19167
1.20411
-0.693712
-0.689183
-0.677134
-0.667031
-0.670748
-0.662746
-0.605508
-0.518566
-0.41909
-0.314738
-0.21959
-0.131795
-0.0163456
0.219167
0.45383
0.636112
0.771965
0.848827
0.884014
0.894598
-0.756739
-0.754271
-0.753855
-0.759549
-0.762503
-0.729389
-0.63555
-0.525105
-0.414771
-0.309629
-0.226196
-0.160215
-0.0749788
0.123446
0.304782
0.44502
0.552424
0.61458
0.642415
0.649792
-0.848099
-0.860802
-0.887577
-0.903076
-0.888027
-0.803535
-0.659857
-0.521726
-0.403913
-0.301455
-0.227031
-0.175768
-0.120974
0.0301289
0.175974
0.289318
0.371136
0.418227
0.438475
0.443061
-0.850216
-0.867756
-0.897365
-0.913757
-0.889793
-0.785215
-0.629819
-0.491195
-0.377807
-0.283577
-0.214275
-0.166998
-0.121933
-0.00479057
0.101654
0.178871
0.237384
0.272012
0.28765
0.291011
-0.667648
-0.684521
-0.709447
-0.724947
-0.703193
-0.621847
-0.517689
-0.418104
-0.330871
-0.254059
-0.192003
-0.143184
-0.0874362
-0.0120886
0.0601226
0.114096
0.15257
0.175576
0.185405
0.186968
-0.378312
-0.387
-0.4022
-0.41809
-0.420234
-0.39836
-0.361074
-0.316006
-0.267551
-0.214652
-0.162631
-0.11294
-0.0637104
-0.0142341
0.0300124
0.0672273
0.0978082
0.117333
0.125491
0.125675
-0.133229
-0.136863
-0.147102
-0.166054
-0.190332
-0.2108
-0.220829
-0.218502
-0.203047
-0.174529
-0.136675
-0.0941788
-0.0548223
-0.0250114
0.00810629
0.0374219
0.0624538
0.0782046
0.0845483
0.08347
0.00119306
-0.000783966
-0.00902578
-0.0288263
-0.061073
-0.0968671
-0.126616
-0.145256
-0.150503
-0.140607
-0.117048
-0.0871975
-0.0615782
-0.0505011
-0.0296372
-0.00411835
0.0194286
0.03137
0.0339125
0.0324254
0.0487642
0.0472718
0.0405523
0.0236058
-0.00500673
-0.0391279
-0.0718818
-0.0979754
-0.113637
-0.116562
-0.106822
-0.0917466
-0.0788907
-0.0778904
-0.0658441
-0.0468613
-0.0312254
-0.0226185
-0.0205961
-0.0223855
0.0522191
0.0510683
0.04606
0.0334135
0.0116824
-0.0157649
-0.0446947
-0.0709686
-0.0912878
-0.103331
-0.1054
-0.10236
-0.101521
-0.107693
-0.101554
-0.0898997
-0.0815338
-0.079114
-0.0790008
-0.0804031
0.0387779
0.0379485
0.034425
0.0255298
0.00993953
-0.0107668
-0.0343929
-0.0581405
-0.0797603
-0.0978503
-0.110411
-0.119933
-0.129401
-0.138773
-0.137045
-0.131694
-0.128948
-0.129599
-0.130715
-0.131501
0.0214218
0.0208422
0.0184119
0.0122743
0.00127832
-0.0140399
-0.0327687
-0.0533949
-0.0749831
-0.0976172
-0.119822
-0.141984
-0.158873
-0.166393
-0.165582
-0.16359
-0.164532
-0.16674
-0.168087
-0.168615
0.0055483
0.00514387
0.0034642
-0.000775153
-0.0085376
-0.0198616
-0.0345841
-0.052317
-0.0732109
-0.0987293
-0.129469
-0.163852
-0.188801
-0.191757
-0.187641
-0.186116
-0.187643
-0.190329
-0.191341
-0.191673
-0.0068854
-0.00719318
-0.00834134
-0.0112609
-0.0167393
-0.0251127
-0.0366475
-0.051645
-0.0711734
-0.0977177
-0.133543
-0.175424
-0.208008
-0.204765
-0.197112
-0.19579
-0.198027
-0.200591
-0.201366
-0.201474
-0.0152605
-0.0155071
-0.0163063
-0.0183083
-0.0221403
-0.0282622
-0.0371526
-0.0494544
-0.0664055
-0.0920127
-0.128892
-0.17409
-0.201786
-0.194622
-0.188133
-0.187926
-0.192042
-0.195285
-0.195956
-0.19586
-0.0198139
-0.0199913
-0.0205587
-0.0218528
-0.0244194
-0.028754
-0.035379
-0.0450253
-0.0590535
-0.080393
-0.111955
-0.150362
-0.169161
-0.161799
-0.158178
-0.16299
-0.168888
-0.172537
-0.173196
-0.173041
-0.0209419
-0.0210818
-0.0214429
-0.0222127
-0.0237883
-0.0266376
-0.0312417
-0.0381664
-0.0483118
-0.0634993
-0.0846302
-0.109016
-0.119254
-0.114004
-0.115897
-0.124156
-0.131645
-0.135332
-0.135955
-0.135887
-0.0190913
-0.0192024
-0.0194147
-0.0197926
-0.0206246
-0.0223038
-0.0251899
-0.0296045
-0.0358499
-0.0439947
-0.052144
-0.0581933
-0.0554271
-0.0543018
-0.06561
-0.0784332
-0.0869318
-0.0903655
-0.0910197
-0.0910139
-0.014891
-0.0149763
-0.0150912
-0.0152238
-0.0155026
-0.0163267
-0.0178802
-0.0202524
-0.0232601
-0.0255304
-0.022108
-0.0098432
0.00843935
-0.000257819
-0.0190199
-0.0341259
-0.0420115
-0.0438683
-0.044857
-0.0452317
-0.00892277
-0.00898475
-0.00903535
-0.00903177
-0.00907054
-0.00934977
-0.00998719
-0.0109438
-0.0118745
-0.0109942
-0.00272372
0.0174172
0.0375607
0.0268693
0.00885094
-0.00404435
-0.0078545
-0.00854711
-0.00920182
-0.0101827
-0.00180214
-0.00181042
-0.00182614
-0.00185482
-0.00183409
-0.00177184
-0.00184505
-0.00196923
-0.00207642
-0.00179851
-0.000171394
0.00614653
0.0155085
0.0173973
0.0101445
0.00938299
0.00889908
0.00731124
0.00301167
0.00167513
-0.135127
0.0319956
0.227226
0.397702
0.534118
0.641803
0.730995
0.80691
0.841443
0.818157
0.168524
0.289456
0.419635
0.532232
0.627239
0.705943
0.76969
0.814941
0.837595
0.849666
0.388052
0.471072
0.560088
0.638756
0.706457
0.763117
0.80818
0.841101
0.864885
0.882861
0.549318
0.608725
0.670603
0.727863
0.777685
0.820003
0.854761
0.882486
0.905311
0.923609
0.675092
0.718332
0.764412
0.808335
0.847136
0.881033
0.910044
0.934187
0.954594
0.972429
0.779623
0.812575
0.850767
0.886386
0.919082
0.948388
0.973998
0.995523
1.01339
1.03074
0.872302
0.90104
0.935064
0.967247
0.997238
1.02445
1.04823
1.06797
1.08349
1.10056
0.96097
0.990202
1.02424
1.05632
1.08595
1.11256
1.13544
1.15394
1.16732
1.18436
1.05633
1.08956
1.12622
1.15982
1.18988
1.21608
1.23805
1.25534
1.26721
1.28461
1.17136
1.2092
1.24785
1.28211
1.31147
1.33622
1.3566
1.3725
1.38397
1.40204
1.31632
1.35487
1.39102
1.42171
1.44739
1.4695
1.48856
1.50409
1.51652
1.53452
1.49141
1.52303
1.54922
1.57167
1.59165
1.61037
1.62809
1.64457
1.65992
1.67799
1.68003
1.69723
1.71227
1.7285
1.74441
1.75895
1.77215
1.78608
1.80362
1.82378
1.86175
1.87129
1.88283
1.89364
1.90293
1.91251
1.9233
1.93466
1.94603
1.96138
2.06899
2.07265
2.05771
2.0429
2.03662
2.0423
2.06078
2.09109
2.12327
2.14992
2.37531
2.24044
2.16381
2.12143
2.10401
2.10797
2.13537
2.19178
2.2944
2.51877
0.676909
0.67478
0.670296
0.661671
0.649444
0.637312
0.627078
0.619178
0.613553
0.61029
0.609923
0.61265
0.617744
0.624959
0.634341
0.645876
0.658524
0.669556
0.675667
0.67872
0.601366
0.607213
0.613545
0.618035
0.620502
0.620174
0.617433
0.613617
0.610099
0.607829
0.60767
0.609854
0.613506
0.617786
0.621586
0.623464
0.622524
0.619039
0.613875
0.607254
0.592945
0.595241
0.598644
0.601638
0.60371
0.605201
0.605951
0.605628
0.604594
0.6037
0.603861
0.605272
0.607075
0.60837
0.608542
0.607645
0.60609
0.603751
0.600485
0.597563
0.587443
0.588529
0.59036
0.592735
0.594754
0.596177
0.597191
0.597934
0.598326
0.598535
0.599009
0.599798
0.60038
0.600433
0.60001
0.599153
0.597677
0.595588
0.593498
0.592114
0.58225
0.582912
0.584018
0.585719
0.587496
0.589121
0.590409
0.591415
0.592285
0.593059
0.593768
0.594297
0.594471
0.594287
0.593707
0.592641
0.591204
0.589654
0.588332
0.587551
0.577287
0.577747
0.578531
0.579825
0.581306
0.582814
0.584269
0.585555
0.586675
0.587711
0.588601
0.589141
0.589262
0.588966
0.588252
0.587248
0.586111
0.58497
0.584049
0.583531
0.572474
0.572819
0.573428
0.574491
0.575777
0.577141
0.578567
0.579998
0.581352
0.582608
0.583687
0.584343
0.584488
0.584185
0.583564
0.582768
0.581902
0.581025
0.580346
0.579967
0.567759
0.568027
0.568518
0.569421
0.570581
0.571866
0.573246
0.574716
0.576233
0.577723
0.579031
0.579855
0.580116
0.57996
0.579538
0.578955
0.578286
0.577633
0.577135
0.576845
0.563061
0.563275
0.563682
0.564474
0.565552
0.566786
0.568154
0.569666
0.571308
0.573026
0.574609
0.575681
0.576167
0.576241
0.576039
0.575667
0.575199
0.574733
0.574372
0.574145
0.558294
0.558466
0.558815
0.559533
0.560563
0.561773
0.563165
0.564755
0.566546
0.568507
0.570416
0.571827
0.57262
0.572966
0.573004
0.57285
0.572585
0.572286
0.572039
0.571858
0.553372
0.553511
0.553818
0.554491
0.555503
0.556735
0.558188
0.559898
0.561889
0.564146
0.566455
0.568289
0.56945
0.570111
0.570419
0.570497
0.570431
0.570292
0.57014
0.569995
0.548209
0.548321
0.5486
0.549252
0.550281
0.551579
0.553139
0.555021
0.557278
0.559912
0.562715
0.565058
0.566651
0.567676
0.568288
0.568614
0.56875
0.568771
0.568704
0.568586
0.542712
0.542801
0.543063
0.54372
0.544802
0.546208
0.547928
0.550051
0.552653
0.555768
0.559181
0.562133
0.564236
0.565678
0.566631
0.567246
0.567607
0.567775
0.56778
0.567684
0.536777
0.536845
0.537101
0.537785
0.538957
0.540519
0.542463
0.544905
0.547947
0.551665
0.555824
0.559509
0.562219
0.564152
0.565494
0.56643
0.567035
0.567362
0.567436
0.567358
0.530281
0.53033
0.530587
0.53132
0.532623
0.534396
0.536637
0.539489
0.543089
0.547552
0.55262
0.557191
0.560625
0.563137
0.564935
0.566226
0.567114
0.567612
0.567755
0.567691
0.523078
0.523107
0.523369
0.524176
0.525654
0.527702
0.530324
0.533696
0.537998
0.543381
0.549557
0.555197
0.559492
0.562689
0.565025
0.566736
0.567947
0.568628
0.568839
0.568787
0.514981
0.514999
0.515261
0.516165
0.517871
0.520262
0.523375
0.527411
0.532594
0.539115
0.54664
0.553559
0.558877
0.562875
0.565847
0.568065
0.569637
0.570519
0.570799
0.570757
0.505684
0.50567
0.505995
0.507035
0.509027
0.511868
0.515609
0.520485
0.526773
0.534706
0.543871
0.552313
0.558836
0.563781
0.567499
0.570313
0.572304
0.573408
0.57376
0.573724
0.494915
0.494876
0.495244
0.496477
0.498837
0.502261
0.506803
0.512741
0.520412
0.53008
0.541229
0.551491
0.559439
0.565503
0.570099
0.5736
0.576073
0.577421
0.577846
0.577814
0.482203
0.482137
0.482582
0.484063
0.486903
0.491086
0.496665
0.503973
0.513398
0.52522
0.538764
0.551174
0.560774
0.568132
0.573757
0.578048
0.58107
0.582679
0.583175
0.583143
0.46691
0.466815
0.467382
0.469211
0.472697
0.477897
0.484854
0.493954
0.505622
0.520112
0.536525
0.551444
0.562947
0.571779
0.578594
0.58378
0.587409
0.589289
0.589848
0.589809
0.448117
0.447994
0.448757
0.451094
0.455489
0.462101
0.470942
0.482435
0.496994
0.514789
0.534607
0.552397
0.566057
0.576555
0.584682
0.590888
0.595166
0.597309
0.597915
0.597863
0.424429
0.424288
0.42538
0.428507
0.434268
0.442945
0.454453
0.469195
0.487483
0.509312
0.533109
0.554154
0.570201
0.582539
0.592099
0.599418
0.604358
0.606733
0.607359
0.607285
0.393545
0.393423
0.39512
0.399616
0.407657
0.419545
0.434973
0.454189
0.477275
0.503989
0.532331
0.556926
0.575513
0.589797
0.600908
0.609388
0.614928
0.617457
0.61806
0.617956
0.351361
0.351399
0.354429
0.361776
0.374037
0.391176
0.412402
0.437637
0.466678
0.499073
0.532444
0.560835
0.582078
0.59838
0.611068
0.6207
0.626691
0.629236
0.629759
0.629619
0.290193
0.291371
0.298794
0.3125
0.332462
0.357939
0.38732
0.42022
0.456323
0.495081
0.533789
0.566041
0.589926
0.608205
0.62241
0.633007
0.639264
0.6416
0.641949
0.641774
0.217442
0.219165
0.233394
0.256975
0.287763
0.3231
0.361412
0.40252
0.446231
0.492043
0.537
0.574104
0.6015
0.622384
0.638493
0.650284
0.656773
0.659018
0.659346
0.659261
0.142264
0.148371
0.169406
0.203133
0.244246
0.289163
0.336368
0.385736
0.43715
0.490155
0.541574
0.583725
0.614766
0.63847
0.656762
0.669506
0.675857
0.677765
0.678002
0.677973
0.0807765
0.0891729
0.114775
0.155485
0.204657
0.257751
0.312983
0.370092
0.428866
0.488795
0.546399
0.593307
0.627703
0.653846
0.673763
0.687263
0.693645
0.695407
0.695792
0.695828
0.030742
0.0397331
0.0688776
0.114807
0.170094
0.229777
0.291795
0.355733
0.421213
0.487614
0.55106
0.602454
0.639974
0.668371
0.689829
0.704248
0.710929
0.713164
0.713652
0.713723
-0.0112124
-0.00193316
0.0296691
0.0795935
0.139888
0.205038
0.272807
0.342714
0.414223
0.48658
0.555493
0.611108
0.651573
0.682143
0.705208
0.720594
0.728007
0.730601
0.731165
0.731255
-0.0474329
-0.038029
-0.00456749
0.0485609
0.112987
0.1828
0.25558
0.330769
0.407727
0.485567
0.559587
0.619166
0.662405
0.694999
0.719551
0.73591
0.744027
0.746852
0.747509
0.747602
-0.0795741
-0.070117
-0.0352207
0.0206138
0.0885076
0.162335
0.239542
0.319478
0.40142
0.484353
0.563177
0.626485
0.672301
0.706698
0.732505
0.749719
0.758502
0.761599
0.762277
0.762362
-0.108893
-0.0993787
-0.0633066
-0.00513428
0.0657459
0.143084
0.224222
0.308462
0.394997
0.48271
0.566093
0.632949
0.681162
0.717205
0.744052
0.761943
0.771199
0.774524
0.775253
0.775324
-0.136235
-0.126661
-0.089531
-0.0293649
0.0441798
0.124622
0.209274
0.297424
0.388216
0.480442
0.568216
0.638517
0.689027
0.726578
0.754366
0.772764
0.78228
0.785783
0.786556
0.786612
-0.162155
-0.152499
-0.114377
-0.0525127
0.0234273
0.106632
0.194446
0.28616
0.380901
0.477416
0.56948
0.643198
0.695979
0.734975
0.763631
0.782386
0.792028
0.795617
0.7964
0.79643
-0.18713
-0.177287
-0.138313
-0.074824
0.00322647
0.0888984
0.179568
0.274533
0.372947
0.473547
0.569828
0.647005
0.702095
0.742547
0.771979
0.790991
0.800662
0.80423
0.804996
0.804989
-0.211387
-0.20131
-0.16156
-0.0965027
-0.0165874
0.0712892
0.164531
0.262464
0.364278
0.468768
0.569219
0.649941
0.707464
0.749453
0.779618
0.798778
0.808419
0.811928
0.812641
0.812604
-0.235021
-0.224724
-0.184127
-0.117702
-0.0361095
0.0537452
0.149289
0.249911
0.354859
0.463031
0.5676
0.652004
0.71216
0.755819
0.786693
0.805924
0.81547
0.818855
0.819487
0.819425
-0.258171
-0.247557
-0.206201
-0.138482
-0.0553784
0.0362356
0.133836
0.236878
0.344694
0.456322
0.56492
0.653163
0.716231
0.76175
0.793344
0.812565
0.821902
0.82508
0.825592
0.825485
-0.280809
-0.269904
-0.227787
-0.158866
-0.0743965
0.018779
0.118209
0.223404
0.333809
0.448634
0.561136
0.653365
0.719687
0.767334
0.799721
0.818823
0.827762
0.830612
0.830978
0.830835
-0.302979
-0.291754
-0.248826
-0.178832
-0.0931384
0.00141414
0.102452
0.209554
0.322262
0.439993
0.556215
0.652542
0.722472
0.772627
0.806033
0.824935
0.833203
0.83553
0.835714
0.835542
-0.324499
-0.313026
-0.269313
-0.198337
-0.111551
-0.0157843
0.086636
0.195401
0.310128
0.430461
0.550145
0.65061
0.724474
0.777633
0.812525
0.831293
0.838515
0.839951
0.839839
0.839649
-0.345509
-0.333678
-0.289227
-0.217354
-0.129599
-0.0327751
0.0708544
0.181029
0.2975
0.42012
0.542941
0.647468
0.725532
0.782238
0.819357
0.838464
0.844369
0.844236
0.843432
0.843216
-0.36584
-0.353683
-0.308536
-0.235834
-0.147202
-0.0494717
0.0551909
0.166561
0.28449
0.409041
0.534652
0.643018
0.725439
0.786188
0.826431
0.84702
0.852093
0.849684
0.84705
0.845995
-0.385551
-0.373082
-0.327182
-0.253722
-0.164321
-0.0658031
0.0397308
0.152078
0.27121
0.397364
0.525354
0.637171
0.72397
0.789086
0.833189
0.856912
0.863203
0.859539
0.85295
0.844266
-0.404557
-0.391832
-0.34526
-0.271173
-0.181163
-0.0820449
0.0241395
0.137181
0.257212
0.384584
0.51451
0.62935
0.720595
0.7905
0.838845
0.867214
0.877847
0.874985
0.864936
0.859078
-0.422807
-0.409852
-0.362758
-0.288152
-0.197728
-0.0981942
0.00843389
0.121852
0.242452
0.370589
0.50193
0.619179
0.714562
0.789655
0.841334
0.873303
0.886455