/*--------------------------------*- C++ -*----------------------------------*\
  =========                 |
  \\      /  F ield         | OpenFOAM: The Open Source CFD Toolbox
   \\    /   O peration     | Website:  https://openfoam.org
    \\  /    A nd           | Version:  10
     \\/     M anipulation  |
\*---------------------------------------------------------------------------*/
FoamFile
{
    format      ascii;
    class       volScalarField;
    location    "66";
    object      p;
}
// * * * * * * * * * * * * * * * * * * * * * * * * * * * * * * * * * * * * * //

dimensions      [0 2 -2 0 0 0 0];

internalField   nonuniform List<scalar> 
2200
(
0.771073
0.749574
0.73367
0.718007
0.703403
0.690894
0.680553
0.672467
0.666789
0.663868
0.664401
0.668237
0.674598
0.683172
0.693864
0.706646
0.721445
0.737382
0.75343
0.774927
0.703495
0.700237
0.697315
0.693202
0.687746
0.681281
0.674675
0.668741
0.664263
0.66192
0.662427
0.665788
0.670992
0.677473
0.684472
0.691233
0.696897
0.700991
0.703839
0.707203
0.663555
0.663776
0.66584
0.66719
0.667587
0.666744
0.664777
0.662118
0.659601
0.658147
0.658738
0.661233
0.664555
0.667807
0.670157
0.671166
0.670904
0.669907
0.668267
0.668019
0.641048
0.6425
0.645099
0.647557
0.650009
0.652042
0.653215
0.653471
0.653132
0.652883
0.653573
0.654989
0.656224
0.656641
0.655976
0.654314
0.652166
0.649993
0.647391
0.645986
0.626672
0.628645
0.631468
0.634312
0.637182
0.640027
0.642504
0.644391
0.645655
0.646505
0.6473
0.647823
0.647623
0.646553
0.644718
0.642361
0.639818
0.637094
0.634303
0.63238
0.619293
0.620892
0.623101
0.62564
0.62832
0.631007
0.633624
0.636074
0.638136
0.639711
0.640639
0.640722
0.639937
0.638457
0.636594
0.63448
0.632169
0.629832
0.627734
0.62616
0.615821
0.616843
0.618119
0.619996
0.622156
0.624344
0.626569
0.628905
0.631176
0.633083
0.634194
0.63428
0.633567
0.632411
0.631052
0.629522
0.627845
0.626281
0.625173
0.624156
0.613111
0.613779
0.614418
0.615732
0.617365
0.619077
0.620865
0.622836
0.62497
0.627024
0.628359
0.628757
0.628501
0.627932
0.627196
0.626283
0.625253
0.624344
0.623904
0.623227
0.609802
0.610247
0.61065
0.611659
0.612941
0.614353
0.615893
0.617617
0.619543
0.621618
0.623239
0.624117
0.62446
0.624474
0.624245
0.623814
0.623266
0.622756
0.622577
0.622112
0.605679
0.605975
0.606338
0.607218
0.608347
0.609647
0.611121
0.612789
0.614679
0.616815
0.618817
0.620259
0.621135
0.621592
0.621738
0.621654
0.621396
0.621095
0.620978
0.620652
0.60087
0.601071
0.601448
0.602291
0.603407
0.604747
0.606318
0.608123
0.610184
0.612557
0.614985
0.616952
0.618281
0.619096
0.619512
0.619661
0.61959
0.619444
0.619351
0.619111
0.595564
0.595708
0.596084
0.596907
0.598072
0.599537
0.601298
0.603357
0.605743
0.608556
0.61153
0.614016
0.615762
0.616893
0.617562
0.6179
0.61804
0.618042
0.617983
0.617789
0.589834
0.589944
0.590327
0.591159
0.592404
0.594029
0.596028
0.59843
0.601295
0.60468
0.608303
0.611375
0.613572
0.615042
0.615999
0.616592
0.616946
0.617087
0.617073
0.6169
0.583666
0.583733
0.584121
0.584985
0.58634
0.58815
0.590426
0.593223
0.596662
0.600793
0.605225
0.608966
0.611682
0.613602
0.614947
0.615853
0.616454
0.616746
0.616773
0.616607
0.576937
0.576973
0.577399
0.578321
0.579841
0.581887
0.584486
0.587764
0.591878
0.596902
0.602255
0.606811
0.610202
0.612682
0.614498
0.615784
0.616648
0.617095
0.61717
0.617005
0.569616
0.569578
0.570013
0.571035
0.57276
0.575063
0.578027
0.581839
0.586703
0.592726
0.599248
0.604872
0.609118
0.612324
0.614721
0.61645
0.617617
0.618231
0.618355
0.618183
0.561341
0.561339
0.561774
0.56288
0.56486
0.567486
0.570931
0.575419
0.581214
0.588474
0.596365
0.603225
0.608546
0.612588
0.615639
0.61789
0.619402
0.620195
0.620376
0.620193
0.551949
0.551967
0.552427
0.553694
0.555972
0.559045
0.563128
0.568464
0.57537
0.584094
0.593649
0.602049
0.608574
0.613572
0.617403
0.620216
0.622131
0.623114
0.623346
0.623143
0.541046
0.541019
0.541587
0.543077
0.545712
0.549362
0.554262
0.560682
0.568993
0.5795
0.591076
0.601215
0.609161
0.615311
0.619994
0.623491
0.625849
0.627018
0.627299
0.627072
0.528066
0.527995
0.528677
0.530542
0.533766
0.538225
0.544213
0.552058
0.562201
0.574946
0.588823
0.600997
0.610536
0.617931
0.623599
0.627816
0.630652
0.632016
0.632328
0.632071
0.512802
0.512699
0.513471
0.51568
0.519623
0.525158
0.532594
0.542311
0.55478
0.570249
0.586901
0.601383
0.61263
0.621408
0.628149
0.633227
0.636576
0.638109
0.638437
0.638147
0.494132
0.494055
0.49508
0.497869
0.502808
0.509801
0.519223
0.531471
0.546947
0.565688
0.585463
0.602427
0.615634
0.625878
0.633815
0.63976
0.643589
0.645284
0.645597
0.645276
0.471113
0.470958
0.472283
0.47592
0.482397
0.491573
0.503749
0.51929
0.538437
0.561053
0.584405
0.604226
0.619514
0.631354
0.640529
0.64737
0.651666
0.653459
0.653714
0.653367
0.441526
0.441557
0.44366
0.448726
0.457489
0.469798
0.485811
0.505649
0.529293
0.556453
0.583814
0.60664
0.624122
0.637693
0.648211
0.655943
0.660588
0.662436
0.662601
0.662234
0.40239
0.402639
0.406202
0.414226
0.427054
0.444343
0.465685
0.490969
0.519995
0.552288
0.584016
0.610037
0.629835
0.645087
0.656846
0.665325
0.670176
0.671934
0.671983
0.671616
0.350384
0.350825
0.357896
0.371229
0.390609
0.415178
0.443587
0.475526
0.51075
0.548726
0.585023
0.614304
0.636347
0.653312
0.666286
0.675304
0.679984
0.681362
0.68126
0.680961
0.282303
0.285067
0.30029
0.321964
0.350273
0.383751
0.420343
0.459759
0.501873
0.546174
0.587611
0.620529
0.645389
0.664388
0.678628
0.688122
0.692468
0.693279
0.693185
0.692977
0.204802
0.214508
0.239975
0.271408
0.30992
0.352577
0.397429
0.444618
0.494045
0.545015
0.592021
0.629304
0.657211
0.678297
0.69404
0.703795
0.707672
0.707957
0.707984
0.707865
0.135841
0.150516
0.182384
0.222904
0.27112
0.322676
0.375666
0.430584
0.487211
0.544866
0.597448
0.638742
0.669261
0.692374
0.709072
0.718857
0.722439
0.722459
0.722609
0.722569
0.0833066
0.0967532
0.133482
0.180108
0.235794
0.294991
0.355414
0.417596
0.48116
0.545307
0.603213
0.648181
0.681476
0.706288
0.724046
0.734241
0.737506
0.737737
0.73816
0.738067
0.0398176
0.0524972
0.0931678
0.14377
0.204912
0.270063
0.336946
0.40569
0.475586
0.545554
0.60841
0.657204
0.693196
0.71985
0.738882
0.749519
0.753358
0.753999
0.754037
0.754098
0.00291911
0.0157004
0.0590357
0.112505
0.178017
0.248058
0.320432
0.39477
0.47022
0.545741
0.613729
0.666244
0.704529
0.732872
0.753253
0.764611
0.768667
0.76935
0.769385
0.76945
-0.0293368
-0.0163317
0.0292153
0.0852882
0.154451
0.228488
0.305461
0.384674
0.465331
0.546403
0.619212
0.674793
0.71534
0.745305
0.766871
0.77852
0.782948
0.783695
0.783763
0.783809
-0.0577659
-0.0448451
0.0023785
0.0608825
0.133235
0.210758
0.291802
0.375467
0.460993
0.547006
0.6239
0.682558
0.725375
0.756529
0.778905
0.791212
0.795846
0.796726
0.796785
0.796818
-0.0837393
-0.0707825
-0.0222784
0.0385928
0.113783
0.194406
0.2791
0.366745
0.456521
0.546805
0.62775
0.68962
0.734347
0.766793
0.789539
0.802308
0.807317
0.808296
0.80838
0.808394
-0.107662
-0.094591
-0.045311
0.017807
0.0955147
0.178953
0.266895
0.357963
0.451474
0.545968
0.63116
0.696008
0.742426
0.775852
0.798981
0.812298
0.817396
0.818499
0.818582
0.818573
-0.130241
-0.116832
-0.0669008
-0.00177831
0.0781025
0.164026
0.254776
0.348866
0.445902
0.544538
0.633761
0.701576
0.749774
0.784349
0.807676
0.821092
0.826321
0.827457
0.827529
0.827496
-0.151504
-0.137883
-0.0872984
-0.0204892
0.061204
0.149311
0.242568
0.339455
0.43979
0.542242
0.635455
0.706549
0.75677
0.792141
0.81575
0.829046
0.834111
0.835284
0.835336
0.835273
-0.171639
-0.158023
-0.106723
-0.0385308
0.0446883
0.134733
0.230258
0.32973
0.433105
0.539154
0.636422
0.710916
0.763343
0.799871
0.823434
0.836085
0.841112
0.842093
0.842138
0.84203
-0.191011
-0.177166
-0.125364
-0.0560438
0.0284835
0.120253
0.217838
0.319676
0.425815
0.53521
0.636481
0.714686
0.769836
0.807493
0.830885
0.842943
0.847241
0.848069
0.84803
0.847958
-0.210029
-0.195597
-0.143375
-0.0730699
0.0126086
0.105907
0.205316
0.309246
0.417846
0.530373
0.635701
0.717894
0.776231
0.815658
0.838828
0.849653
0.852943
0.853257
0.853268
0.853276
-0.228605
-0.213441
-0.160851
-0.0896352
-0.00293677
0.0916808
0.192652
0.298406
0.409243
0.524704
0.633933
0.720378
0.782555
0.824357
0.847769
0.857331
0.858438
0.85804
0.857809
0.857652
-0.246741
-0.230893
-0.177855
-0.105757
-0.0181593
0.0775803
0.179868
0.287213
0.40008
0.518214
0.631102
0.722048
0.788546
0.833866
0.858608
0.866524
0.864898
0.863228
0.86301
0.864026
-0.264238
-0.247889
-0.194381
-0.121449
-0.0330639
0.0636148
0.167001
0.275738
0.39045
0.510968
0.627111
0.722609
0.794112
0.843974
0.871612
0.878994
0.87473
0.86778
0.863035
0.862179
-0.281156
-0.26442
-0.210404
-0.136701
-0.0476333
0.0498345
0.154144
0.264091
0.380425
0.502982
0.621957
0.721867
0.798611
0.85446
0.88701
0.89597
0.891454
0.880883
0.88118
0.885337
-0.297422
-0.280349
-0.225854
-0.151477
-0.0618181
0.0363096
0.141384
0.252348
0.370048
0.494328
0.615672
0.71947
0.801741
0.864265
0.903728
0.917648
0.912691
0.883456
0.845945
0.813379
-0.313047
-0.295725
-0.240766
-0.165826
-0.075696
0.0229455
0.128604
0.240346
0.359099
0.484795
0.608062
0.715061
0.802333
0.872494
0.921168
0.943089
0.951647
0.925575
0.943139
1.00524
-0.327949
-0.31052
-0.255202
-0.179879
-0.0894311
0.00953201
0.11553
0.227731
0.347136
0.473802
0.598467
0.70775
0.79937
0.876142
0.931094
0.957865
0.95831
0.929677
0.885255
0.902599
-0.342136
-0.324767
-0.269134
-0.193571
-0.102942
-0.00383806
0.102273
0.214632
0.334281
0.461413
0.586852
0.697369
0.790618
0.870565
0.927123
0.954472
0.933554
0.874098
0.807798
0.794707
-0.35557
-0.338398
-0.282538
-0.206908
-0.116232
-0.0171686
0.0888347
0.201062
0.320563
0.447599
0.573038
0.683417
0.775729
0.852205
0.903743
0.904685
0.864605
0.78315
0.706365
0.680726
-0.368307
-0.351466
-0.295453
-0.219907
-0.129329
-0.0304849
0.0752103
0.187043
0.306013
0.432367
0.556943
0.665654
0.753219
0.818201
0.845027
0.827605
0.762916
0.658129
0.568709
0.544336
-0.38077
-0.364303
-0.308237
-0.232936
-0.142584
-0.0440928
0.0611348
0.172347
0.290448
0.415561
0.538345
0.643422
0.723822
0.772508
0.765599
0.727169
0.610359
0.484808
0.375287
0.346148
-0.393825
-0.377763
-0.321606
-0.246591
-0.156543
-0.058462
0.0462128
0.156655
0.273617
0.396985
0.516947
0.616338
0.689477
0.712693
0.678255
0.58577
0.426372
0.271127
0.139626
0.110281
-0.407965
-0.392112
-0.335812
-0.261112
-0.171385
-0.073709
0.0303675
0.139915
0.255512
0.376632
0.492672
0.585287
0.64763
0.64161
0.588603
0.435004
0.233076
0.0187587
-0.162594
-0.212638
-0.423333
-0.407598
-0.350987
-0.2765
-0.187075
-0.0898075
0.0136261
0.122176
0.236195
0.354608
0.465557
0.551737
0.598744
0.560842
0.472102
0.282146
0.0501249
-0.239327
-0.560315
-0.709954
-0.439979
-0.424141
-0.367165
-0.292875
-0.203692
-0.106817
-0.00407651
0.10336
0.215609
0.330906
0.435823
0.515261
0.543952
0.475602
0.337193
0.131014
-0.102753
-0.44637
-1.03109
-1.60176
-0.458021
-0.442037
-0.384522
-0.310268
-0.221243
-0.124745
-0.0227181
0.0835545
0.19392
0.305938
0.404712
0.475844
0.485128
0.400681
0.207624
-0.0259173
-0.228162
-0.461961
-1.01329
-2.51523
-0.477454
-0.461126
-0.403044
-0.328848
-0.239915
-0.143784
-0.0425316
0.0624676
0.170786
0.279309
0.371953
0.433122
0.421348
0.341792
0.114134
-0.123071
-0.270835
-0.307979
-0.296751
-0.681226
-0.498237
-0.48184
-0.423049
-0.348864
-0.260079
-0.164446
-0.0641508
0.0393456
0.145284
0.249737
0.336574
0.386937
0.358907
0.291235
0.0645298
-0.137158
-0.247827
-0.25596
-0.20308
-0.243072
-0.520236
-0.503721
-0.444364
-0.370443
-0.281868
-0.186853
-0.0877322
0.0139905
0.117184
0.217007
0.298636
0.338891
0.304175
0.23674
0.0320969
-0.127621
-0.209954
-0.218124
-0.265913
-0.269936
-0.543409
-0.527058
-0.467109
-0.393509
-0.305226
-0.211047
-0.113339
-0.0136477
0.0864766
0.18152
0.258124
0.288635
0.256521
0.175311
0.00389625
-0.118422
-0.188648
-0.165797
-0.186196
-0.18785
-0.567464
-0.550858
-0.490913
-0.418054
-0.330078
-0.236945
-0.14089
-0.0434766
0.0532764
0.143639
0.215284
0.235033
0.215334
0.10734
-0.0316437
-0.11375
-0.152587
-0.200965
-0.175048
-0.183722
-0.592354
-0.575351
-0.515864
-0.443796
-0.356114
-0.264407
-0.170218
-0.0752756
0.0177536
0.10374
0.171046
0.180287
0.17222
0.0465007
-0.0684769
-0.132214
-0.109545
-0.169253
-0.149917
-0.154909
-0.616881
-0.599656
-0.541619
-0.470495
-0.383109
-0.293208
-0.201044
-0.108727
-0.0198965
0.0621515
0.126613
0.128308
0.120414
-0.004561
-0.0954385
-0.146565
-0.134422
-0.149685
-0.154973
-0.153201
-0.640854
-0.623752
-0.567682
-0.497336
-0.410589
-0.322984
-0.232958
-0.143422
-0.0591262
0.0192366
0.0822913
0.0803188
0.0630187
-0.0469317
-0.108666
-0.140242
-0.178949
-0.150219
-0.155956
-0.150318
-0.663043
-0.646684
-0.592652
-0.523544
-0.438417
-0.353245
-0.265491
-0.178859
-0.0991439
-0.0247591
0.0378947
0.0368459
0.00753191
-0.0817578
-0.12175
-0.114737
-0.187637
-0.130308
-0.145384
-0.13757
-0.683002
-0.66776
-0.615819
-0.547965
-0.46594
-0.383141
-0.297901
-0.214413
-0.138922
-0.0692064
-0.00703881
-0.00353085
-0.0374
-0.100345
-0.129085
-0.0884057
-0.13412
-0.116614
-0.122736
-0.119537
-0.698944
-0.685321
-0.636048
-0.570375
-0.4923
-0.411827
-0.329543
-0.249398
-0.177583
-0.11346
-0.0523393
-0.0413212
-0.0685565
-0.101081
-0.117478
-0.0952511
-0.109139
-0.11323
-0.114368
-0.114587
-0.7102
-0.698729
-0.652806
-0.589692
-0.515563
-0.438203
-0.359276
-0.282786
-0.214282
-0.156165
-0.0966512
-0.0767674
-0.091333
-0.097782
-0.110039
-0.12088
-0.112986
-0.11641
-0.114749
-0.115811
-0.715238
-0.706177
-0.664438
-0.604931
-0.534949
-0.461356
-0.386339
-0.31375
-0.248323
-0.19582
-0.137542
-0.110391
-0.119127
-0.0983109
-0.106134
-0.142045
-0.118626
-0.125901
-0.118986
-0.120104
-0.714234
-0.707301
-0.669946
-0.614361
-0.548727
-0.479652
-0.40909
-0.340755
-0.278845
-0.230337
-0.174034
-0.14303
-0.141044
-0.105877
-0.0959384
-0.12402
-0.106211
-0.128309
-0.126776
-0.129237
-0.706176
-0.698886
-0.666597
-0.616797
-0.556623
-0.492554
-0.426899
-0.362757
-0.304184
-0.258309
-0.204617
-0.173229
-0.158783
-0.117479
-0.0601789
-0.052159
-0.0680796
-0.0781338
-0.0818345
-0.0852463
-0.685464
-0.677107
-0.653048
-0.610715
-0.556854
-0.498472
-0.438146
-0.377969
-0.322161
-0.277572
-0.227302
-0.194604
-0.183165
-0.197038
-0.231637
-0.286771
-0.296542
-0.282584
-0.266507
-0.253858
-0.642694
-0.634817
-0.626328
-0.596292
-0.550679
-0.498481
-0.443182
-0.385937
-0.330954
-0.285692
-0.236755
-0.198647
-0.257658
-0.372489
-0.588075
-0.758457
-0.770893
-0.750884
-0.684713
-0.624092
-0.601931
-0.599134
-0.597914
-0.574745
-0.538272
-0.492891
-0.441921
-0.386338
-0.329337
-0.280001
-0.230911
-0.164948
-0.185798
-0.270496
-0.378843
-0.407726
-0.344975
-0.277479
-0.23534
-0.209485
-0.579066
-0.580817
-0.57059
-0.556767
-0.527908
-0.486538
-0.436571
-0.380768
-0.318335
-0.256513
-0.198245
-0.0837619
0.0562465
0.265786
0.467744
0.660351
0.80342
0.88892
0.93323
0.972692
-0.547813
-0.547488
-0.544325
-0.543086
-0.518721
-0.480384
-0.430766
-0.372806
-0.304309
-0.225567
-0.144032
-0.00905435
0.204701
0.525557
0.836144
1.09371
1.2738
1.38111
1.43384
1.45049
-0.535893
-0.533989
-0.536779
-0.529612
-0.512535
-0.476999
-0.425649
-0.363781
-0.29077
-0.200125
-0.100164
0.026576
0.261218
0.58123
0.893667
1.15554
1.3486
1.46278
1.51361
1.52942
-0.523988
-0.522414
-0.525646
-0.517559
-0.512014
-0.476633
-0.423996
-0.358894
-0.281456
-0.184577
-0.077291
0.0273717
0.246286
0.523951
0.796938
1.03302
1.21708
1.32808
1.37705
1.39061
-0.513822
-0.513981
-0.514195
-0.51393
-0.511389
-0.475108
-0.423344
-0.357901
-0.279072
-0.18209
-0.0771833
0.00438254
0.188733
0.423764
0.647648
0.840774
0.995795
1.08987
1.13054
1.14063
-0.504907
-0.506133
-0.50419
-0.508934
-0.504124
-0.47545
-0.426155
-0.36054
-0.282722
-0.190407
-0.0909815
-0.0268221
0.118592
0.315319
0.494028
0.642598
0.761524
0.834863
0.866011
0.873768
-0.492744
-0.49262
-0.488674
-0.489381
-0.48232
-0.47002
-0.42966
-0.36537
-0.290056
-0.204571
-0.110801
-0.0570708
0.0506562
0.211516
0.352056
0.46395
0.552343
0.607802
0.630897
0.63577
-0.495873
-0.492628
-0.487185
-0.483197
-0.47877
-0.475087
-0.433112
-0.369046
-0.296136
-0.219054
-0.131264
-0.0832538
-0.00841543
0.120882
0.230765
0.314704
0.379165
0.420351
0.435974
0.440413
-0.523979
-0.521198
-0.519446
-0.520203
-0.521835
-0.507838
-0.443222
-0.372611
-0.298615
-0.229232
-0.148599
-0.103823
-0.0549054
0.0474467
0.131899
0.194296
0.242511
0.272875
0.284814
0.288879
-0.576153
-0.578999
-0.586831
-0.595289
-0.588699
-0.54758
-0.45844
-0.3761
-0.295645
-0.232818
-0.160679
-0.118529
-0.0865482
-0.00635645
0.0569395
0.102673
0.139938
0.163319
0.172556
0.174973
-0.572978
-0.578421
-0.591301
-0.60472
-0.596103
-0.542063
-0.451904
-0.365931
-0.285331
-0.227411
-0.165648
-0.127219
-0.103783
-0.0413112
0.00484576
0.0380152
0.0645385
0.0805601
0.0874009
0.0891156
-0.465173
-0.471626
-0.487793
-0.497934
-0.494998
-0.456304
-0.393954
-0.328177
-0.261856
-0.210215
-0.16194
-0.129208
-0.109014
-0.0619044
-0.0290234
-0.00589275
0.0108458
0.0204101
0.0239524
0.024188
-0.298613
-0.304125
-0.311614
-0.319348
-0.321288
-0.308861
-0.285225
-0.255059
-0.216363
-0.180814
-0.148626
-0.124277
-0.10584
-0.0727062
-0.0505605
-0.0359997
-0.0266103
-0.0221882
-0.0213639
-0.0221624
-0.141925
-0.144443
-0.149287
-0.157328
-0.165579
-0.170972
-0.173217
-0.17072
-0.158476
-0.143769
-0.12697
-0.112186
-0.0977683
-0.0769181
-0.0634587
-0.0552578
-0.0510204
-0.0501205
-0.0511907
-0.0524677
-0.0278707
-0.0292044
-0.0324852
-0.0404446
-0.0536393
-0.0694878
-0.0851326
-0.0981382
-0.103429
-0.105414
-0.100161
-0.0936986
-0.0865015
-0.0754061
-0.0685973
-0.0656079
-0.0651887
-0.066482
-0.0683375
-0.0697297
0.0371382
0.0361602
0.0337309
0.0259972
0.0108067
-0.00920658
-0.0294091
-0.0476584
-0.0603455
-0.0712887
-0.0732502
-0.0727101
-0.0726905
-0.0679846
-0.067037
-0.0682101
-0.0704072
-0.0730955
-0.0751934
-0.0765412
0.0655011
0.0648645
0.0629609
0.0561514
0.0418956
0.022124
0.00139463
-0.0179356
-0.0326818
-0.0459141
-0.0507821
-0.0542562
-0.058035
-0.0578124
-0.0614057
-0.0653997
-0.0691349
-0.0723699
-0.0744235
-0.0756457
0.0723431
0.0718572
0.0703432
0.0649007
0.0532659
0.0363803
0.0175077
-0.00125673
-0.0162886
-0.0295599
-0.0348675
-0.0400496
-0.0452919
-0.0487765
-0.0541969
-0.0592206
-0.0634291
-0.0666278
-0.0684578
-0.0695096
0.0683376
0.067991
0.0668257
0.0627112
0.0538934
0.0407697
0.0252276
0.00844729
-0.00579075
-0.0189139
-0.0243631
-0.0295317
-0.0351654
-0.0403063
-0.0462326
-0.051275
-0.0552228
-0.0580465
-0.059506
-0.0603925
0.0596897
0.0594685
0.0586228
0.0556508
0.0492381
0.0395094
0.0275958
0.0138827
0.00171347
-0.0108892
-0.0168402
-0.0216455
-0.0269136
-0.0320307
-0.0377159
-0.0423905
-0.045898
-0.0483046
-0.0493726
-0.0501044
0.0496375
0.0495158
0.0489178
0.0468487
0.0423234
0.0352961
0.0264795
0.0158948
0.0065249
-0.00464916
-0.0106315
-0.0150284
-0.0198766
-0.0244514
-0.0295077
-0.0335879
-0.0366278
-0.0386832
-0.0394774
-0.0400717
0.0397099
0.0396606
0.0392432
0.0378635
0.0347442
0.0297972
0.0234092
0.0154057
0.00861409
-0.000462536
-0.00555269
-0.009211
-0.0134629
-0.0175754
-0.0220786
-0.0256061
-0.0281939
-0.0299045
-0.0304582
-0.0309353
0.0306327
0.0306097
0.0303379
0.0294538
0.0273576
0.0239506
0.0194261
0.0134808
0.00877619
0.00183031
-0.00187767
-0.0048113
-0.00827847
-0.0118078
-0.0156908
-0.0185923
-0.0207027
-0.0221067
-0.0225483
-0.0229516
0.0224502
0.0224541
0.0222603
0.0217238
0.0203613
0.0180941
0.015022
0.0106605
0.00761329
0.00248991
0.000211177
-0.0018376
-0.00457845
-0.00748176
-0.0106431
-0.0128877
-0.0144869
-0.0155492
-0.0158399
-0.0161728
0.0151268
0.0151241
0.0150052
0.0147211
0.0138954
0.0124883
0.0105943
0.00752635
0.00577472
0.00208734
0.000853919
-0.00033079
-0.00227053
-0.00437012
-0.00683719
-0.00851637
-0.00961266
-0.0102703
-0.0104659
-0.0107676
0.00854857
0.00854155
0.00851597
0.00845522
0.00809623
0.00739054
0.00653694
0.00458245
0.00389485
0.00128511
0.000707264
0.000213397
-0.00105317
-0.00230813
-0.00411941
-0.00523719
-0.00591875
-0.00633046
-0.00633167
-0.00653183
0.00274621
0.00277564
0.002839
0.00292297
0.00292048
0.00273432
0.0026453
0.00164954
0.00167863
0.000368127
0.000436084
0.000571117
-0.000359331
-0.000690604
-0.00196395
-0.0028349
-0.00360536
-0.00419975
-0.00398768
-0.00398155
-1.07648
-0.240864
0.0290283
0.30362
0.482856
0.63601
0.758051
0.882728
1.02149
1.10638
-0.100624
0.303952
0.318423
0.505358
0.626607
0.735375
0.828586
0.911939
0.938715
0.897408
0.27223
0.484438
0.517549
0.653051
0.736967
0.81512
0.879636
0.928147
0.929886
0.944395
0.498925
0.64009
0.67446
0.774531
0.830894
0.88721
0.931397
0.963405
0.972301
0.996132
0.674658
0.774623
0.804277
0.870471
0.914768
0.954909
0.986658
1.01078
1.02044
1.05214
0.816412
0.884379
0.914513
0.956689
0.992436
1.02218
1.04623
1.06694
1.08095
1.10934
0.934585
0.98468
1.01006
1.0377
1.06507
1.08866
1.1085
1.12772
1.14254
1.16912
1.03775
1.07451
1.09544
1.11592
1.13655
1.15583
1.17319
1.19129
1.20615
1.22983
1.13137
1.16036
1.17661
1.1918
1.20782
1.22384
1.23937
1.25626
1.26989
1.29221
1.21943
1.23984
1.25464
1.26777
1.28132
1.29506
1.30856
1.32315
1.33469
1.35433
1.30478
1.32054
1.33435
1.34615
1.35806
1.36969
1.38082
1.3925
1.40017
1.41697
1.38998
1.40251
1.41622
1.42796
1.4386
1.44839
1.45721
1.46547
1.46903
1.48026
1.47871
1.48954
1.50301
1.51253
1.5201
1.52739
1.53457
1.54104
1.54215
1.5495
1.57712
1.58173
1.58992
1.59465
1.59804
1.60252
1.60851
1.61617
1.62007
1.62995
1.6904
1.67729
1.67
1.66429
1.66157
1.6629
1.66922
1.68159
1.69642
1.72609
1.81237
1.75633
1.72531
1.70811
1.69989
1.69982
1.70868
1.72831
1.76009
1.82936
)
;

boundaryField
{
    wall-4
    {
        type            zeroGradient;
    }
    pressure-outlet-7
    {
        type            fixedValue;
        value           uniform 0;
    }
    velocity-inlet-6
    {
        type            zeroGradient;
    }
    velocity-inlet-5
    {
        type            zeroGradient;
    }
    frontAndBackPlanes
    {
        type            empty;
    }
}


// ************************************************************************* //
