/*--------------------------------*- C++ -*----------------------------------*\
  =========                 |
  \\      /  F ield         | OpenFOAM: The Open Source CFD Toolbox
   \\    /   O peration     | Website:  https://openfoam.org
    \\  /    A nd           | Version:  10
     \\/     M anipulation  |
\*---------------------------------------------------------------------------*/
FoamFile
{
    format      ascii;
    class       surfaceScalarField;
    location    "66";
    object      phi;
}
// * * * * * * * * * * * * * * * * * * * * * * * * * * * * * * * * * * * * * //

dimensions      [0 3 -1 0 0 0 0];

internalField   nonuniform List<scalar> 
4262
(
0.107133
0.470855
0.0955678
0.705151
0.0693823
0.858489
0.0473705
1.02078
0.0309933
1.21489
0.019781
1.44943
0.012369
1.73328
0.00716517
2.07624
0.00320893
2.4892
-0.000578848
2.98608
-0.00426355
2.98598
-0.0080571
2.48904
-0.0130715
2.07605
-0.0201999
1.73299
-0.03112
1.44914
-0.0471621
1.21456
-0.0689002
1.0205
-0.0951758
0.858579
-0.107059
0.705469
0.470929
0.112859
0.357996
0.135253
0.682757
0.120342
0.873399
0.097778
1.04334
0.0745146
1.23816
0.0527835
1.47116
0.0343829
1.75168
0.0201481
2.09047
0.00884538
2.5005
-0.00105985
2.99599
-0.0111405
2.99606
-0.0223524
2.50025
-0.0364492
2.09015
-0.0547871
1.75133
-0.0766396
1.47099
-0.100397
1.23832
-0.12358
1.04368
-0.137057
0.872055
-0.113578
0.681991
0.357351
0.0920448
0.265951
0.124967
0.649835
0.121091
0.877275
0.104804
1.05963
0.0861388
1.25682
0.0669864
1.49032
0.047996
1.77067
0.0299161
2.10855
0.0133161
2.5171
-0.00276348
3.01206
-0.018453
3.01175
-0.0343266
2.51612
-0.0517914
2.10761
-0.0701863
1.76972
-0.0884825
1.48929
-0.10566
1.25549
-0.119757
1.05778
-0.125209
0.877507
-0.0923487
0.649131
0.265002
0.063976
0.201975
0.104787
0.609024
0.106552
0.87551
0.0951602
1.07102
0.0812175
1.27076
0.0664608
1.50507
0.0503322
1.78679
0.0331547
2.12573
0.0154922
2.53476
-0.00309417
3.03065
-0.0215846
3.03024
-0.0390541
2.53359
-0.0555489
2.12411
-0.0707868
1.78496
-0.0846234
1.50313
-0.0983364
1.26921
-0.110076
1.06952
-0.10706
0.874491
-0.0649118
0.606983
0.20009
0.0374628
0.164513
0.0806733
0.565814
0.0909242
0.865259
0.0837012
1.07824
0.0710823
1.28338
0.0592234
1.51693
0.0461702
1.79985
0.0311659
2.14074
0.0141251
2.55181
-0.0051661
3.04994
-0.0239424
3.04901
-0.0397752
2.54942
-0.0536077
2.13794
-0.0656744
1.79703
-0.0768862
1.51434
-0.0888145
1.28114
-0.0951728
1.07588
-0.0833221
0.86264
-0.038445
0.562106
0.161645
0.01945
0.145063
0.0571611
0.528103
0.0725367
0.849883
0.0704268
1.08035
0.0616156
1.29219
0.0507283
1.52782
0.0395749
1.811
0.0269625
2.15335
0.0119527
2.56682
-0.00568793
3.06758
-0.023022
3.06635
-0.0374291
2.56383
-0.049005
2.14952
-0.0589539
1.80698
-0.0688003
1.52418
-0.0764231
1.28876
-0.077226
1.07668
-0.0600676
0.845482
-0.0203985
0.522436
0.141247
0.0106048
0.134458
0.0422875
0.49642
0.0583518
0.833819
0.0585799
1.08012
0.0523804
1.29839
0.0429482
1.53725
0.0324833
1.82147
0.0210069
2.16483
0.00756475
2.58026
-0.0084254
3.08357
-0.0238104
3.08173
-0.035545
2.57557
-0.0452055
2.15918
-0.0540743
1.81585
-0.0620002
1.53211
-0.0665387
1.2933
-0.0645251
1.07467
-0.0460361
0.826993
-0.0117413
0.488142
0.129505
0.00654456
0.127913
0.0328632
0.470101
0.0490822
0.8176
0.0505593
1.07865
0.0454328
1.30352
0.0370101
1.54567
0.0273378
1.83114
0.0165354
2.17563
0.00460126
2.59219
-0.00933636
3.09751
-0.0228633
3.09526
-0.0338112
2.58651
-0.0430835
2.16845
-0.0507006
1.82346
-0.0571713
1.53858
-0.0603121
1.29644
-0.0566274
1.07098
-0.0374011
0.807767
-0.00792589
0.458666
0.12158
0.00468565
0.123228
0.0264599
0.448327
0.0421942
0.801865
0.0442537
1.07659
0.0395712
1.3082
0.0318822
1.55336
0.0226689
1.84035
0.0119103
2.18639
-3.87475e-06
2.60411
-0.0131393
3.11065
-0.0249599
3.10708
-0.0344908
2.59605
-0.0426079
2.17657
-0.049507
1.83036
-0.0548672
1.54394
-0.0570404
1.29861
-0.0519072
1.06585
-0.032124
0.787984
-0.00639763
0.43294
0.115182
0.00371341
0.119514
0.0215781
0.430463
0.0366305
0.786813
0.0393068
1.07391
0.0348976
1.31261
0.0274911
1.56077
0.0186599
1.84918
0.00863478
2.19641
-0.00255861
2.6153
-0.0148086
3.1229
-0.0264848
3.11876
-0.0360969
2.60566
-0.0435649
2.18403
-0.0493641
1.83616
-0.0539224
1.5485
-0.0550633
1.29975
-0.048591
1.05938
-0.0284908
0.767883
-0.00582685
0.410276
0.109355
0.00301797
0.116496
0.0174322
0.416048
0.031285
0.77296
0.0341585
1.07104
0.0299057
1.31687
0.022657
1.56802
0.0139822
1.85786
0.00382897
2.20656
-0.00774946
2.62688
-0.0200341
3.13518
-0.0306575
3.12938
-0.038516
2.61352
-0.04495
2.19047
-0.0502381
1.84145
-0.0539863
1.55225
-0.0540187
1.29978
-0.0460912
1.05145
-0.0258158
0.747608
-0.00557664
0.390037
0.103778
0.00232857
0.114168
0.0136804
0.404696
0.0261439
0.760497
0.0291752
1.06801
0.0251379
1.3209
0.0180302
1.57512
0.00950899
1.86638
-0.000155822
2.21623
-0.0109097
2.63763
-0.0227573
3.14703
-0.0335196
3.14014
-0.041811
2.62181
-0.047617
2.19627
-0.0518194
1.84565
-0.0544545
1.55488
-0.0537558
1.29909
-0.0443959
1.04209
-0.0239535
0.727166
-0.00545568
0.371539
0.0983228
0.00164964
0.112518
0.0103861
0.39596
0.0210608
0.749822
0.0235246
1.06554
0.0192386
1.32519
0.0119705
1.58239
0.00319511
1.87515
-0.00686435
2.22629
-0.0180645
2.64883
-0.0299518
3.15892
-0.0396113
3.1498
-0.045919
2.62812
-0.0506089
2.20096
-0.0542692
1.84931
-0.0560217
1.55663
-0.0543238
1.29739
-0.043599
1.03137
-0.0228072
0.706374
-0.00541359
0.354146
0.0929092
0.00079439
0.111724
0.00695607
0.389798
0.0159842
0.740794
0.0181261
1.0634
0.0137132
1.3296
0.00635064
1.58976
-0.00242934
1.88393
-0.0122393
2.2361
-0.023098
2.65969
-0.0348225
3.17064
-0.0447061
3.15969
-0.0512737
2.63468
-0.0551319
2.20482
-0.0576837
1.85187
-0.0583062
1.55726
-0.0555552
1.29464
-0.0433941
1.0192
-0.0221435
0.685123
-0.00539671
0.337399
0.0875125
0.000121814
0.111602
0.00408217
0.385838
0.0107434
0.734132
0.0116793
1.06246
0.00665402
1.33463
-0.00128908
1.5977
-0.0109288
1.89357
-0.0218198
2.24699
-0.0334573
2.67133
-0.0445612
3.18174
-0.052832
3.16796
-0.0576125
2.63946
-0.0606211
2.20783
-0.0625256
1.85377
-0.0622366
1.55697
-0.0578811
1.29028
-0.0440265
1.00535
-0.0220161
0.663113
-0.00547003
0.320853
0.0820425
-0.000885371
0.112487
0.00033915
0.384613
0.00486261
0.729609
0.00483674
1.06249
-0.000832866
1.3403
-0.00946853
1.60633
-0.0193979
1.9035
-0.0299579
2.25755
-0.0409349
2.68231
-0.0522621
3.19307
-0.0610053
3.1767
-0.06558
2.64404
-0.0674661
2.20972
-0.0683149
1.85462
-0.0671285
1.55578
-0.0611244
1.28428
-0.0453967
0.989622
-0.0223623
0.640078
-0.00562409
0.304114
0.0764184
-0.00177472
0.114262
-0.00279942
0.385638
-0.00109612
0.727906
-0.00283131
1.06423
-0.00951636
1.34698
-0.0189783
1.6158
-0.0300241
1.91455
-0.0423461
2.26987
-0.0552218
2.69518
-0.0663362
3.20419
-0.0727011
3.18306
-0.0758392
2.64718
-0.0772416
2.21112
-0.0769107
1.85429
-0.073988
1.55286
-0.0660063
1.27629
-0.0478899
0.971506
-0.0233354
0.615524
-0.00593164
0.286711
0.0704867
-0.00310817
0.11737
-0.00650886
0.389039
-0.00837692
0.729774
-0.0119661
1.06781
-0.0198127
1.35483
-0.0305912
1.62657
-0.0426962
1.92665
-0.0551309
2.28231
-0.0669586
2.70701
-0.0775466
3.21477
-0.0849627
3.19048
-0.0877967
2.65001
-0.0871352
2.21046
-0.0857804
1.85293
-0.0821039
1.54918
-0.0719031
1.26609
-0.0511409
0.950744
-0.0247139
0.589097
-0.00629745
0.268294
0.0641893
-0.00442627
0.121796
-0.0107517
0.395364
-0.0159275
0.73495
-0.0222871
1.07417
-0.0314436
1.36398
-0.0433858
1.63852
-0.0566994
1.93997
-0.0711594
2.29677
-0.0859034
2.72175
-0.0982931
3.22716
-0.103167
3.19535
-0.103537
2.65038
-0.102661
2.20958
-0.0992859
1.84956
-0.0929828
1.54288
-0.0800582
1.25317
-0.0558886
0.926574
-0.0267682
0.559976
-0.0068181
0.248344
0.0573712
-0.00585026
0.127647
-0.0157783
0.405292
-0.0251195
0.744291
-0.0344218
1.08348
-0.0457174
1.37528
-0.0597835
1.65258
-0.0751894
1.95537
-0.0908586
2.31244
-0.104912
2.73581
-0.114826
3.23708
-0.119781
3.20031
-0.120303
2.6509
-0.117165
2.20644
-0.112917
1.84531
-0.105473
1.53544
-0.089135
1.23683
-0.0610819
0.898521
-0.0289832
0.527878
-0.00730416
0.226665
0.050067
-0.0082173
0.135864
-0.0227401
0.419815
-0.0375299
0.75908
-0.0502741
1.09622
-0.0633958
1.3884
-0.0792191
1.66841
-0.0963242
1.97248
-0.113863
2.32998
-0.130149
2.75209
-0.143002
3.24993
-0.146884
3.20419
-0.144127
2.64815
-0.139575
2.20189
-0.132333
1.83807
-0.121189
1.52429
-0.100993
1.21664
-0.0680017
0.86553
-0.0317274
0.491603
-0.00785849
0.202796
0.0422085
-0.0105923
0.146456
-0.0296809
0.438904
-0.0501638
0.779563
-0.0679995
1.11406
-0.085024
1.40543
-0.104182
1.68756
-0.124382
1.99268
-0.14404
2.34963
-0.160379
2.76843
-0.169437
3.25899
-0.169862
3.20462
-0.166508
2.64479
-0.160187
2.19557
-0.152018
1.8299
-0.138939
1.51121
-0.113706
1.1914
-0.074821
0.826645
-0.0342287
0.451011
-0.00826486
0.176832
0.0339437
-0.0153761
0.161832
-0.0422976
0.465825
-0.0699741
0.80724
-0.0926247
1.13671
-0.113082
1.42588
-0.135886
1.71037
-0.158548
2.01534
-0.179262
2.37035
-0.195297
2.78447
-0.204679
3.26837
-0.205308
3.20524
-0.198662
2.63815
-0.189377
2.18629
-0.177773
1.81829
-0.159624
1.49306
-0.12867
1.16045
-0.0829649
0.78094
-0.0367833
0.40483
-0.00857272
0.148622
0.0253709
-0.0195469
0.181379
-0.0552305
0.501509
-0.092698
0.844707
-0.123413
1.16742
-0.150074
1.45254
-0.177187
1.73748
-0.202481
2.04063
-0.224171
2.39204
-0.239887
2.80018
-0.24594
3.27442
-0.240139
3.19944
-0.229561
2.62757
-0.217813
2.17454
-0.203871
1.80435
-0.182521
1.47171
-0.144022
1.12195
-0.0896464
0.726564
-0.0382095
0.353393
-0.00841435
0.118826
0.0169566
-0.0327333
0.214113
-0.0819251
0.550701
-0.129783
0.892565
-0.166849
1.20449
-0.19878
1.48448
-0.230263
1.76897
-0.256736
2.06711
-0.277386
2.41269
-0.289361
2.81216
-0.289755
3.27482
-0.280935
3.19062
-0.268553
2.61519
-0.254578
2.16056
-0.236855
1.78663
-0.207697
1.44255
-0.160285
1.07454
-0.0970077
0.663286
-0.0395171
0.295902
-0.0081716
0.087481
0.00878499
-0.0471595
0.261272
-0.121136
0.624677
-0.185095
0.956524
-0.230843
1.25024
-0.268871
1.5225
-0.300891
1.80098
-0.324939
2.09116
-0.341642
2.42939
-0.349019
2.81953
-0.345016
3.27081
-0.330472
3.17608
-0.31164
2.59635
-0.291591
2.14051
-0.268253
1.76329
-0.232972
1.40727
-0.174347
1.01591
-0.0992415
0.588181
-0.0380487
0.234709
-0.00788585
0.0573181
0.000899148
-0.0342222
0.295494
-0.0981685
0.688624
-0.156961
1.01532
-0.205114
1.29839
-0.249003
1.56639
-0.288464
1.84045
-0.325634
2.12833
-0.359597
2.46335
-0.386376
2.84631
-0.401538
3.28598
-0.401024
3.17556
-0.392952
2.58828
-0.379775
2.12734
-0.354059
1.73758
-0.300143
1.35336
-0.213014
0.928784
-0.112519
0.487686
-0.0417997
0.16399
-0.00921415
0.0247326
-0.00831501
-0.0124967
0.307991
-0.0475927
0.72372
-0.0899809
1.0577
-0.129996
1.3384
-0.169736
1.60613
-0.205475
1.87619
-0.239082
2.16193
-0.268573
2.49284
-0.290235
2.86797
-0.29897
3.29471
-0.29475
3.17134
-0.281165
2.5747
-0.258466
2.10464
-0.225632
1.70474
-0.179251
1.30698
-0.115489
0.865022
-0.0529973
0.425194
-0.0198864
0.130879
-0.00474527
0.00959148
-0.0130603
-7.86987e-05
0.30807
-0.0245254
0.748166
-0.054225
1.0874
-0.0850082
1.36919
-0.117371
1.6385
-0.148704
1.90752
-0.177921
2.19115
-0.20245
2.51737
-0.218791
2.88432
-0.22366
3.29958
-0.214708
3.16239
-0.194502
2.55449
-0.170393
2.08053
-0.141287
1.67564
-0.10021
1.2659
-0.0527297
0.817542
-0.0195316
0.391996
-0.0079564
0.119304
-0.00247808
0.00411313
-0.0155384
0.000860307
0.307209
-0.0131699
0.762196
-0.0343895
1.10862
-0.0588151
1.39361
-0.084982
1.66466
-0.111566
1.9341
-0.136373
2.21596
-0.157032
2.53803
-0.170264
2.89755
-0.170832
3.30015
-0.155042
3.1466
-0.133097
2.53254
-0.107302
2.05473
-0.0742615
1.6426
-0.0408095
1.23245
-0.0133296
0.790062
-0.000301087
0.378967
0.000168429
0.118835
-0.000600914
0.00488249
-0.0161393
0.00474163
0.302468
-0.00376129
0.770699
-0.0221714
1.12703
-0.04362
1.41506
-0.0659045
1.68695
-0.0878885
1.95609
-0.108769
2.23684
-0.126051
2.55531
-0.135881
2.90738
-0.133682
3.29795
-0.118079
3.131
-0.0935117
2.50798
-0.0652195
2.02644
-0.03917
1.61655
-0.0101102
1.20339
0.0117343
0.768217
0.0138806
0.376821
0.00699775
0.125717
0.00157837
0.0103019
-0.0145609
0.00522514
0.297243
-0.000682843
0.776607
-0.0161618
1.14251
-0.0340592
1.43296
-0.0531917
1.70608
-0.0727453
1.97564
-0.0912249
2.25532
-0.106131
2.57022
-0.114099
2.91535
-0.110239
3.29409
-0.0917967
3.11256
-0.0678266
2.48401
-0.0429153
2.00153
-0.0136109
1.58724
0.00898961
1.18079
0.0202327
0.756974
0.0190516
0.378002
0.00999317
0.134776
0.00253678
0.0177583
-0.0120241
0.0048281
0.292414
0.00115899
0.780276
-0.0120511
1.15572
-0.0289992
1.44991
-0.0466332
1.72371
-0.0638519
1.99286
-0.0799022
2.27137
-0.0929125
2.58323
-0.0997048
2.92214
-0.0955014
3.28989
-0.0784736
3.09553
-0.0552019
2.46074
-0.0278304
1.97416
-0.00555719
1.56497
0.0142491
1.16098
0.0253139
0.745909
0.0209749
0.382341
0.0111414
0.144609
0.00303016
0.0258695
-0.00899396
0.00273014
0.289684
-0.000587132
0.783594
-0.0118088
1.16694
-0.0261111
1.46421
-0.0418636
1.73947
-0.0579875
2.00898
-0.0733692
2.28675
-0.0861271
2.59599
-0.0930761
2.92909
-0.088936
3.28575
-0.0717598
3.07835
-0.0504848
2.43946
-0.0282774
1.95195
-0.00216896
1.53886
0.0163067
1.14251
0.0230826
0.739133
0.0199126
0.385511
0.0107873
0.153735
0.00306556
0.0335913
-0.0059284
0.00151456
0.28817
-0.000962679
0.786071
-0.0116519
1.17763
-0.0253349
1.47789
-0.0405267
1.75466
-0.0555979
2.02405
-0.0700145
2.30117
-0.0822354
2.60821
-0.0890247
2.93588
-0.0854192
3.28214
-0.0706959
3.06363
-0.0496096
2.41837
-0.0254971
1.92784
-0.00670255
1.52007
0.0103938
1.12541
0.0200874
0.72944
0.0167987
0.3888
0.00936076
0.161173
0.00273764
0.0402144
-0.00319076
-0.000483895
0.288654
-0.00464267
0.79023
-0.013658
1.18665
-0.0254627
1.4897
-0.0393273
1.76852
-0.0539326
2.03866
-0.0683955
2.31563
-0.0809522
2.62076
-0.0885295
2.94345
-0.0864591
3.28007
-0.0729259
3.0501
-0.0537523
2.3992
-0.0341855
1.90827
-0.0110776
1.49696
0.0057614
1.10857
0.0125214
0.72268
0.0123479
0.388973
0.00703703
0.166483
0.00220499
0.0450464
-0.00098577
-0.00112194
0.289776
-0.0054619
0.79457
-0.014546
1.19573
-0.0263269
1.50148
-0.0399743
1.78217
-0.0540097
2.05269
-0.0679654
2.32959
-0.0805994
2.6334
-0.0892849
2.95214
-0.0893387
3.28012
-0.0775081
3.03827
-0.0582496
2.37994
-0.0362717
1.88629
-0.0194887
1.48018
-0.00384621
1.09293
0.00676318
0.71207
0.0073609
0.388376
0.00474552
0.169099
0.00162645
0.0481655
0.00064068
-0.00274736
0.292523
-0.00817285
0.799995
-0.016685
1.20425
-0.027363
1.51216
-0.0399668
1.79478
-0.0536173
2.06634
-0.0678768
2.34384
-0.0813864
2.64691
-0.0913504
2.9621
-0.0931061
3.28188
-0.0828612
3.02802
-0.0663455
2.36343
-0.0483684
1.86832
-0.026302
1.45811
-0.00997937
1.0766
-0.00144078
0.703532
0.00279307
0.384142
0.00238235
0.16951
0.00102418
0.0495237
0.00166486
-0.00365426
0.296177
-0.0087337
0.805075
-0.0173517
1.21286
-0.0282071
1.52301
-0.0407841
1.80735
-0.0541559
2.07972
-0.0682458
2.35793
-0.082058
2.66072
-0.0933528
2.9734
-0.0981503
3.28668
-0.0908192
3.02069
-0.0741544
2.34676
-0.0517618
1.84593
-0.0346561
1.441
-0.018324
1.06027
-0.00555641
0.690764
-0.00123075
0.379816
0.00050844
0.16777
0.000481353
0.0495507
0.00214621
-0.00418557
0.300363
-0.0104883
0.811377
-0.0189129
1.22129
-0.0289851
1.53308
-0.0408133
1.81918
-0.0539069
2.09281
-0.0683068
2.37233
-0.0830088
2.67542
-0.0958183
2.98621
-0.102744
3.2936
-0.0975879
3.01553
-0.082916
2.33209
-0.0645935
1.8276
-0.0403688
1.41678
-0.0218191
1.04172
-0.0105331
0.679478
-0.00357633
0.372859
-0.000697099
0.164891
0.000135937
0.0487177
0.00228215
-0.00414533
0.304508
-0.010412
0.817644
-0.018976
1.22985
-0.0292327
1.54334
-0.0411445
1.83109
-0.0541276
2.10579
-0.0684592
2.38667
-0.0834312
2.69039
-0.0974873
3.00026
-0.107449
3.30356
-0.106003
3.01409
-0.0918243
2.31791
-0.0680578
1.80384
-0.0466967
1.39542
-0.0260136
1.02104
-0.0100507
0.663515
-0.00361242
0.366421
-0.000882821
0.162162
-0.000418386
0.0482533
0.00186376
-0.00432727
0.308835
-0.0113995
0.824716
-0.0197993
1.23825
-0.0294614
1.553
-0.0407902
1.84242
-0.0535104
2.11851
-0.0680075
2.40116
-0.0837043
2.70609
-0.0992503
3.01581
-0.111403
3.31572
-0.112139
3.01482
-0.100244
2.30602
-0.0808728
1.78447
-0.0509625
1.36551
-0.0252157
0.995293
-0.00867068
0.64697
0.0013349
0.356416
0.00348082
0.160016
0.00197507
0.049759
0.00383883
-0.004257
0.313092
-0.0109988
0.831458
-0.01933
1.24658
-0.029094
1.56277
-0.0404496
1.85378
-0.0530672
2.13113
-0.0674947
2.41559
-0.083407
2.722
-0.0999505
3.03235
-0.114496
3.33026
-0.119658
3.01999
-0.109573
2.29593
-0.0848066
1.7597
-0.0565722
1.33727
-0.0247197
0.963441
-0.000453768
0.622704
0.010421
0.345541
0.00711779
0.163319
-0.00121534
0.0580921
0.00262349
-0.00439696
0.317489
-0.011537
0.838598
-0.0196109
1.25466
-0.0288141
1.57197
-0.0396064
1.86457
-0.0519167
2.14344
-0.0663682
2.43004
-0.0828048
2.73844
-0.100522
3.05007
-0.117079
3.34682
-0.124785
3.02769
-0.117474
2.28862
-0.0985979
1.74082
-0.0620113
1.30069
-0.0206107
0.92204
0.0143008
0.587792
0.0392806
0.320561
0.0458222
0.156777
0.0284169
0.0754974
0.0310404
-0.00425133
0.321741
-0.0109268
0.845273
-0.0188016
1.26253
-0.0279714
1.58114
-0.0386718
1.87527
-0.050828
2.1556
-0.0651637
2.44438
-0.0816909
2.75497
-0.100069
3.06845
-0.118521
3.36527
-0.129993
3.03916
-0.126878
2.2855
-0.104286
1.71823
-0.0699946
1.2664
-0.0208709
0.872916
0.0270373
0.539884
0.0631421
0.284456
0.053791
0.166128
0.0234528
0.105836
0.0544932
-0.00420646
0.325947
-0.0111125
0.852179
-0.0186995
1.27012
-0.0272965
1.58974
-0.0374697
1.88544
-0.0492809
2.16741
-0.0635096
2.45861
-0.0803151
2.77177
-0.0995101
3.08764
-0.119658
3.38542
-0.132793
3.0523
-0.13352
2.28623
-0.12002
1.70473
-0.0812123
1.22759
-0.025841
0.817545
0.0454972
0.468546
0.141306
0.188648
0.20544
0.101994
0.185784
0.125492
0.240277
-0.00404039
0.329987
-0.0105445
0.858684
-0.0180976
1.27767
-0.026924
1.59856
-0.0374805
1.896
-0.0498301
2.17976
-0.0649523
2.47373
-0.0832094
2.79003
-0.104889
3.10932
-0.129292
3.40982
-0.148964
3.07197
-0.156234
2.2935
-0.140853
1.68935
-0.105781
1.19252
-0.0402974
0.752061
0.0187397
0.409509
-0.0473988
0.254786
-0.353487
0.408082
-0.945181
0.717185
0.90209
-1.60699
-0.00393652
0.333924
-0.0106344
0.865381
-0.0180122
1.28505
-0.0264958
1.60705
-0.0367893
1.90629
-0.0491849
2.19215
-0.0647473
2.48929
-0.0840824
2.80936
-0.107806
3.13305
-0.135774
3.43779
-0.159665
3.09586
-0.171517
2.30535
-0.174554
1.69239
-0.145901
1.16386
-0.109652
0.715812
-0.210803
0.51066
-0.693923
0.737907
-1.45332
1.16747
-2.05819
1.32206
1.21572
-2.37182
-0.00369572
0.33762
-0.00985555
0.871541
-0.0170128
1.29221
-0.0255188
1.61555
-0.0358875
1.91666
-0.0484671
2.20473
-0.064455
2.50528
-0.0846247
2.82953
-0.110098
3.15852
-0.141743
3.46944
-0.173001
3.12712
-0.194945
2.3273
-0.198094
1.69554
-0.177903
1.14367
-0.263233
0.801142
-0.752806
1.00023
-1.55803
1.54313
-2.1163
1.72575
-2.35383
1.55958
1.32929
-2.4674
-0.00358884
0.341209
-0.00973639
0.877689
-0.0166516
1.29912
-0.0247822
1.62368
-0.0348444
1.92672
-0.0474068
2.2173
-0.0637119
2.52158
-0.0848168
2.85064
-0.112266
3.18597
-0.147755
3.50492
-0.184302
3.16367
-0.212546
2.35554
-0.235044
1.71803
-0.30772
1.21635
-0.675184
1.16861
-1.44553
1.77057
-2.03141
2.12902
-2.26992
1.96426
-2.38242
1.67208
1.39273
-2.44586
-0.00326993
0.344478
-0.00879747
0.883216
-0.0153859
1.30571
-0.0234424
1.63174
-0.0335518
1.93683
-0.0462161
2.22996
-0.0628342
2.5382
-0.0846496
2.87245
-0.113723
3.21504
-0.152937
3.54414
-0.197828
3.20856
-0.240116
2.39783
-0.276637
1.75455
-0.457995
1.39771
-1.09673
1.80734
-1.79358
2.46742
-2.11036
2.4458
-2.25749
2.1114
-2.33927
1.75385
1.45881
-2.40535
-0.0032768
0.347755
-0.00901511
0.888955
-0.0156149
1.31231
-0.0235567
1.63968
-0.0337467
1.94702
-0.0466647
2.24288
-0.0637933
2.55533
-0.0866526
2.89531
-0.117749
3.24614
-0.160907
3.5873
-0.211812
3.25946
-0.256113
2.44213
-0.341884
1.84033
-0.739133
1.79496
-1.4933
2.56151
-1.96315
2.93727
-2.16277
2.64542
-2.26865
2.21728
-2.34586
1.83107
1.52199
-2.40905
-0.00333421
0.351089
-0.00898814
0.894609
-0.0159102
1.31923
-0.0244753
1.64825
-0.0353546
1.9579
-0.0490097
2.25653
-0.0670708
2.57339
-0.0911787
2.91942
-0.124256
3.27922
-0.17136
3.6344
-0.228242
3.31635
-0.289844
2.50373
-0.476065
2.02655
-1.04541
2.3643
-1.68019
3.1963
-1.95262
3.2097
-2.09898
2.79177
-2.21277
2.33107
-2.30643
1.92473
1.58354
-2.36798
-0.00347741
0.354567
-0.00988403
0.901015
-0.0172797
1.32663
-0.0261026
1.65707
-0.0373054
1.9691
-0.051548
2.27078
-0.0704672
2.59231
-0.0959508
2.9449
-0.131265
3.31453
-0.182428
3.68556
-0.24474
3.37866
-0.3286
2.58759
-0.610892
2.30884
-1.26363
3.01704
-1.75076
3.68342
-1.9578
3.41673
-2.09705
2.93103
-2.2209
2.45492
-2.33104
2.03487
1.64217
-2.38968
-0.00340871
0.357976
-0.00958843
0.907195
-0.0173806
1.33442
-0.0270201
1.66671
-0.0390495
1.98113
-0.0541025
2.28583
-0.0740393
2.61225
-0.100858
2.97172
-0.138141
3.35181
-0.192657
3.74008
-0.260456
3.44646
-0.384942
2.71208
-0.772652
2.69655
-1.40995
3.65434
-1.76032
4.0338
-1.9328
3.58921
-2.03436
3.03259
-2.12292
2.54348
-2.18962
2.10156
1.63479
-2.18223
-0.00343665
0.361412
-0.0105637
0.914322
-0.0189405
1.3428
-0.0288145
1.67658
-0.0411848
1.9935
-0.0568746
2.30152
-0.0776944
2.63307
-0.105884
2.99991
-0.145311
3.39124
-0.202313
3.79708
-0.280379
3.52452
-0.449504
2.8812
-0.903705
3.15075
-1.46047
4.2111
-1.72121
4.29454
-1.87241
3.74042
-1.96588
3.12606
-1.96665
2.54425
-1.89678
2.03169
1.59738
-1.85936
-0.00320687
0.364619
-0.00979825
0.920913
-0.0184884
1.35149
-0.0292508
1.68734
-0.0424338
2.00669
-0.0587213
2.31781
-0.0801168
2.65446
-0.108819
3.02862
-0.148694
3.43112
-0.205387
3.85377
-0.291213
3.61035
-0.495735
3.08572
-0.987267
3.64228
-1.42737
4.6512
-1.59163
4.4588
-1.65826
3.80705
-1.66256
3.13036
-1.51489
2.39658
-1.01543
1.53223
0.581947
-0.00282297
0.367442
-0.0106734
0.928764
-0.0200886
1.3609
-0.0311217
1.69838
-0.0449285
2.02049
-0.0624363
2.33531
-0.0856154
2.67764
-0.117009
3.06001
-0.160994
3.4751
-0.224619
3.9174
-0.327307
3.71304
-0.581221
3.33964
-1.12187
4.18293
-1.47906
5.00839
-1.57813
4.55787
-1.57611
3.80502
-1.47248
3.02674
-1.2337
2.1578
-0.630435
0.928963
-0.0484872
-0.00252725
0.369969
-0.00907296
0.93531
-0.0186438
1.37047
-0.0309638
1.7107
-0.0461993
2.03573
-0.0651639
2.35428
-0.0903616
2.70284
-0.124574
3.09422
-0.172909
3.52344
-0.242847
3.98734
-0.365874
3.83606
-0.68046
3.65422
-1.24054
4.74301
-1.49989
5.26774
-1.55845
4.61643
-1.53586
3.78243
-1.33401
2.82489
-0.781179
1.60496
-0.108383
0.256168
-0.15687
-0.00154154
0.371511
-0.00957297
0.943341
-0.0199028
1.3808
-0.0322831
1.72308
-0.0479302
2.05138
-0.0680722
2.37442
-0.09507
2.72984
-0.132038
3.13119
-0.184173
3.57557
-0.261965
4.06513
-0.41059
3.98469
-0.782892
4.02653
-1.31786
5.27798
-1.4937
5.44358
-1.52461
4.64734
-1.43638
3.69421
-1.09983
2.48833
-0.312436
0.817574
0.024765
-0.0810332
-0.132105
-0.000990449
0.372501
-0.00652084
0.948871
-0.0165129
1.3908
-0.0302953
1.73686
-0.047425
2.06851
-0.0689508
2.39595
-0.0979102
2.7588
-0.137545
3.17082
-0.192845
3.63087
-0.279498
4.15178
-0.455082
4.16027
-0.89296
4.4644
-1.36336
5.74838
-1.47892
5.55915
-1.48147
4.64989
-1.25722
3.46995
-0.685205
1.91632
-0.0628977
0.195266
0.0300538
-0.173985
-0.102052
8.33154e-05
0.372418
-0.00610548
0.95506
-0.0166312
1.40132
-0.0301725
1.7504
-0.0471857
2.08552
-0.0697647
2.41853
-0.100314
2.78935
-0.142111
3.21262
-0.200444
3.6892
-0.295829
4.24717
-0.496888
4.36133
-0.984875
4.95239
-1.35798
6.12149
-1.42257
5.62373
-1.37621
4.60353
-1.08812
3.18186
-0.322415
1.15062
0.00433814
-0.131487
0.0146234
-0.18427
-0.0874283
0.00323233
0.369186
0.000651917
0.957641
-0.00980874
1.41178
-0.0248394
1.76543
-0.0431132
2.10379
-0.0669076
2.44232
-0.0989544
2.82139
-0.142824
3.25649
-0.204275
3.75065
-0.308336
4.35123
-0.5363
4.5893
-1.04801
5.4641
-1.32284
6.39632
-1.36254
5.66343
-1.22288
4.46387
-0.770046
2.72902
-0.068618
0.449188
0.04412
-0.244225
0.024021
-0.164171
-0.0634072
0.00426419
0.364921
0.00214651
0.959758
-0.00785984
1.42179
-0.021556
1.77913
-0.0388459
2.12108
-0.0633825
2.46686
-0.0964381
2.85445
-0.141639
3.30169
-0.205235
3.81425
-0.31663
4.46262
-0.573907
4.84657
-1.06883
5.95902
-1.25846
6.58595
-1.26811
5.67307
-1.04854
4.24431
-0.459441
2.13992
-0.0183418
0.0080891
-0.006662
-0.255905
0.00473879
-0.175572
-0.0586685
0.00870546
0.356216
0.0103984
0.958065
0.00372456
1.42846
-0.0100887
1.79294
-0.0288576
2.13985
-0.0538955
2.49189
-0.0873545
2.88791
-0.133256
3.34759
-0.19903
3.88002
-0.317407
4.581
-0.597066
5.12623
-1.04712
6.40907
-1.17093
6.70977
-1.15403
5.65617
-0.894376
3.98465
-0.263207
1.50875
-0.0697231
-0.185395
-0.0386611
-0.286967
-0.014328
-0.199905
-0.0729964
0.0112418
0.344974
0.0156162
0.953691
0.0104411
1.43364
0.000379715
1.803
-0.0178641
2.1581
-0.0422191
2.51625
-0.0754354
2.92112
-0.121155
3.39331
-0.186869
3.94574
-0.308381
4.70251
-0.594645
5.4125
-0.982253
6.79668
-1.0462
6.77372
-0.978092
5.58806
-0.675704
3.68226
-0.0695464
0.902596
0.0158857
-0.270827
0.0008751
-0.271956
-0.00141706
-0.197613
-0.0744135
0.0185272
0.326447
0.0304992
0.941719
0.0298654
1.43427
0.0189121
1.81396
0.00119835
2.17581
-0.0212731
2.53872
-0.053131
2.95298
-0.0975696
3.43775
-0.162499
4.01067
-0.284678
4.82469
-0.565155
5.69297
-0.871431
7.10295
-0.90656
6.80885
-0.802145
5.48365
-0.442083
3.3222
0.069194
0.39132
0.0794201
-0.281053
0.0588751
-0.251411
0.0222551
-0.160993
-0.0521584
0.0241754
0.302272
0.0420297
0.923864
0.0448798
1.43142
0.0383819
1.82045
0.0262607
2.18793
0.00479929
2.56018
-0.0250548
2.98284
-0.0666054
3.4793
-0.127708
4.07177
-0.242826
4.93981
-0.491079
5.94123
-0.712806
7.32468
-0.738999
6.83504
-0.63835
5.383
-0.303386
2.98724
0.00313945
0.0847948
0.020306
-0.29822
0.031123
-0.262228
0.0150445
-0.144914
-0.0371138
0.035221
0.267051
0.0657469
0.893339
0.0775179
1.41965
0.0743627
1.82361
0.0634289
2.19886
0.0445244
2.57909
0.017898
3.00946
-0.0202994
3.5175
-0.0759354
4.12741
-0.176612
5.04049
-0.3804
6.14502
-0.534225
7.4785
-0.559419
6.86023
-0.459727
5.28331
-0.187259
2.71477
-0.0744023
-0.0280624
-0.053558
-0.319064
-0.0188999
-0.296886
-0.00105382
-0.16276
-0.0381676
0.044652
0.222399
0.0869983
0.850992
0.106922
1.39973
0.111785
1.81875
0.108132
2.20252
0.094202
2.59302
0.0728679
3.0308
0.0411205
3.54925
-0.00914536
4.17767
-0.0835075
5.11485
-0.221344
6.28285
-0.310664
7.56782
-0.31982
6.86939
-0.26543
5.22892
-0.0835565
2.5329
-0.0991326
-0.0124862
-0.0711209
-0.347076
-0.0321226
-0.335885
-0.00506208
-0.189821
-0.0432297
0.0581886
0.16421
0.1212
0.787981
0.158884
1.36204
0.171652
1.80598
0.171428
2.20274
0.161555
2.60289
0.147008
3.04534
0.124095
3.57216
0.0882847
4.21348
0.0389571
5.16418
-0.0176549
6.33946
-0.0494039
7.59957
-0.0484637
6.86845
-0.00986492
5.19032
0.055168
2.46786
-0.0768952
0.119577
-0.0868484
-0.337123
-0.0490561
-0.373677
0.000687436
-0.239564
-0.0425423
0.0601492
0.104061
0.150909
0.697221
0.207372
1.30558
0.234971
1.77838
0.247439
2.19027
0.246818
2.60351
0.240008
3.05215
0.228254
3.58391
0.210261
4.23148
0.189987
5.18445
0.236091
6.29336
0.27936
7.5563
0.297507
6.8503
0.219457
5.26837
-0.0163418
2.70366
-0.252003
0.355238
-0.300086
-0.28904
-0.223424
-0.450338
-0.0860036
-0.376985
-0.128546
0.0497494
0.0543115
0.184515
0.562456
0.281665
1.20843
0.328132
1.73191
0.347906
2.1705
0.355987
2.59543
0.355539
3.0526
0.3564
3.58305
0.35786
4.23002
0.37101
5.1713
0.520124
6.14425
0.659122
7.41731
0.646913
6.86251
0.43399
5.48129
-0.0743241
3.21198
-0.551301
0.832215
-0.618383
-0.221959
-0.482863
-0.585858
-0.241297
-0.618551
-0.369843
0.0343815
0.01993
0.219167
0.37767
0.346479
1.08112
0.425262
1.65313
0.46791
2.12785
0.49059
2.57275
0.499237
3.04396
0.514546
3.56774
0.540348
4.20421
0.593484
5.11816
0.824157
5.91357
1.17491
7.06655
1.34879
6.68863
1.40458
5.4255
0.958865
3.6577
0.193094
1.59799
-0.308006
0.279142
-0.483254
-0.41061
-0.277897
-0.823907
-0.647741
0.0306041
-0.0106741
0.23558
0.172694
0.450215
0.866481
0.566796
1.53655
0.619544
2.0751
0.65312
2.53917
0.672823
3.02425
0.695801
3.54476
0.744261
4.15575
0.85388
5.00854
1.20478
5.56267
1.81079
6.46055
2.1708
6.32862
2.42547
5.17083
2.31872
3.76444
1.61728
2.29943
0.901506
0.994914
0.359358
0.131538
0.0633156
-0.527865
-0.584425
0.0238495
-0.0345235
0.158121
0.0384223
0.494603
0.53
0.693974
1.33718
0.796161
1.97292
0.84739
2.48794
0.88534
2.9863
0.913494
3.51661
0.981849
4.0874
1.11458
4.87581
1.50421
5.17304
2.28159
5.68316
2.67121
5.939
2.85314
4.9889
2.70124
3.91634
2.19894
2.80173
1.56871
1.62514
1.03053
0.669726
0.410264
0.092397
-0.17416
0.00215425
-0.0366778
0.0779319
-0.0373553
0.411574
0.196358
0.71679
1.03196
0.860315
1.82939
0.898692
2.44957
0.904308
2.98069
0.887676
3.53324
0.887268
4.08781
0.928397
4.83468
1.08879
5.01265
1.53329
5.23866
1.70901
5.76328
1.74695
4.95095
1.65721
4.00608
1.41449
3.04446
1.01801
2.02161
0.591828
1.09591
0.249395
0.43483
0.0752345
0.00391835
-0.0405961
0.0440093
-0.0774463
0.213981
0.0263867
0.548781
0.697161
0.724025
1.65415
0.78911
2.38448
0.804275
2.96552
0.797636
3.53988
0.778651
4.10679
0.797335
4.816
0.875848
4.93414
1.18144
4.93307
1.36934
5.57538
1.38426
4.93603
1.32554
4.06481
1.163
3.20699
0.874035
2.31058
0.548596
1.42135
0.229846
0.75358
0.305081
0.00350931
-0.0441054
0.0194862
-0.0934232
0.0897466
-0.0438738
0.382715
0.404193
0.582587
1.45428
0.670975
2.29609
0.692093
2.9444
0.691043
3.54093
0.665723
4.13211
0.661571
4.82015
0.689982
4.90573
0.873637
4.74941
1.05261
5.39641
1.05283
4.93582
0.996384
4.12125
0.872662
3.33071
0.664399
2.51885
0.412098
1.67365
0.166697
0.99898
0.471778
-0.00290164
-0.0412038
0.000295145
-0.09662
0.0358746
-0.0794532
0.242839
0.197229
0.453575
1.24354
0.557048
2.19262
0.577463
2.92399
0.574039
3.54435
0.546445
4.15971
0.527221
4.83938
0.532525
4.90043
0.639183
4.64275
0.780676
5.25491
0.771295
4.9452
0.710773
4.18177
0.613323
3.42816
0.465711
2.66646
0.280209
1.85915
0.104474
1.17472
0.576252
-0.0078808
-0.033323
-0.00370716
-0.100794
0.0234635
-0.106624
0.140377
0.0803153
0.322038
1.06188
0.426497
2.08816
0.461499
2.88899
0.463677
3.54218
0.440975
4.18241
0.41603
4.86432
0.402121
4.91433
0.462342
4.58253
0.55804
5.15922
0.548476
4.95476
0.489007
4.24124
0.409854