/*--------------------------------*- C++ -*----------------------------------*\
  =========                 |
  \\      /  F ield         | OpenFOAM: The Open Source CFD Toolbox
   \\    /   O peration     | Website:  https://openfoam.org
    \\  /    A nd           | Version:  10
     \\/     M anipulation  |
\*---------------------------------------------------------------------------*/
FoamFile
{
    format      ascii;
    class       volVectorField;
    location    "66";
    object      U;
}
// * * * * * * * * * * * * * * * * * * * * * * * * * * * * * * * * * * * * * //

dimensions      [0 1 -1 0 0 0 0];

internalField   nonuniform List<vector> 
2200
(
(0.878836 -0.0304114 0)
(1.00578 -0.0512792 0)
(1.00327 -0.0353973 0)
(1.00025 -0.0244369 0)
(0.999882 -0.0166611 0)
(1.00004 -0.0107324 0)
(1.00003 -0.00683762 0)
(0.999994 -0.00419381 0)
(0.999909 -0.00219932 0)
(1.00019 -0.000644231 0)
(1.00012 0.00113071 0)
(1.00038 0.00265137 0)
(1.00037 0.0045379 0)
(1.00028 0.00712057 0)
(1.00013 0.0108417 0)
(1.00005 0.0166643 0)
(1.00037 0.0243744 0)
(1.00347 0.0348553 0)
(1.00599 0.0513831 0)
(0.879055 0.0302935 0)
(0.712032 -0.0327606 0)
(0.996649 -0.0630037 0)
(1.03333 -0.0561361 0)
(1.02491 -0.046399 0)
(1.01588 -0.0360836 0)
(1.00964 -0.0263435 0)
(1.0059 -0.0181067 0)
(1.00377 -0.0114035 0)
(1.00266 -0.00601035 0)
(1.00218 -0.00155404 0)
(1.00191 0.00251034 0)
(1.00205 0.00701874 0)
(1.00324 0.0123473 0)
(1.00546 0.0189422 0)
(1.00937 0.0272463 0)
(1.01547 0.0369896 0)
(1.02457 0.0474861 0)
(1.03315 0.0580171 0)
(0.996705 0.0631431 0)
(0.711775 0.0330391 0)
(0.535577 -0.0238928 0)
(0.969934 -0.0569264 0)
(1.05645 -0.0547223 0)
(1.05227 -0.0487401 0)
(1.03627 -0.0404005 0)
(1.02447 -0.0322256 0)
(1.01593 -0.0239405 0)
(1.0104 -0.0160374 0)
(1.00713 -0.00874549 0)
(1.00547 -0.00204738 0)
(1.00571 0.00440211 0)
(1.0074 0.0108173 0)
(1.01051 0.0177605 0)
(1.01578 0.0254505 0)
(1.02408 0.0334197 0)
(1.03612 0.0413868 0)
(1.0522 0.0493892 0)
(1.05631 0.0532734 0)
(0.969203 0.0576452 0)
(0.534375 0.0239413 0)
(0.392379 -0.013644 0)
(0.91188 -0.0463786 0)
(1.05755 -0.0468677 0)
(1.06961 -0.0442805 0)
(1.05491 -0.0381349 0)
(1.03936 -0.031448 0)
(1.02757 -0.0246499 0)
(1.01911 -0.017434 0)
(1.01382 -0.00993304 0)
(1.0113 -0.0024346 0)
(1.01088 0.00504884 0)
(1.0129 0.0125293 0)
(1.01808 0.0198964 0)
(1.02657 0.0266995 0)
(1.03849 0.0331355 0)
(1.054 0.039602 0)
(1.06822 0.045676 0)
(1.05547 0.0482978 0)
(0.909898 0.047006 0)
(0.389907 0.0137783 0)
(0.307793 -0.00451007 0)
(0.84682 -0.0323633 0)
(1.04944 -0.039899 0)
(1.07951 -0.0381382 0)
(1.06827 -0.0334754 0)
(1.05175 -0.0278662 0)
(1.03836 -0.0224623 0)
(1.02809 -0.016372 0)
(1.02092 -0.0094488 0)
(1.01686 -0.00173692 0)
(1.01685 0.00613914 0)
(1.02072 0.0134725 0)
(1.02752 0.0197849 0)
(1.0373 0.0255011 0)
(1.05019 0.0304021 0)
(1.06664 0.0357196 0)
(1.07766 0.0400863 0)
(1.04723 0.0417778 0)
(0.842913 0.0329933 0)
(0.303682 0.00474289 0)
(0.264408 0.00010305 0)
(0.789165 -0.020061 0)
(1.03353 -0.0314399 0)
(1.08367 -0.03201 0)
(1.07736 -0.0287262 0)
(1.06087 -0.0238276 0)
(1.04728 -0.019337 0)
(1.03649 -0.0142576 0)
(1.02876 -0.00820493 0)
(1.02443 -0.00128668 0)
(1.02388 0.00615029 0)
(1.02713 0.0128259 0)
(1.03434 0.0186455 0)
(1.04499 0.0231514 0)
(1.0586 0.0271298 0)
(1.07487 0.0315306 0)
(1.08034 0.0342397 0)
(1.02921 0.0333575 0)
(0.78255 0.020742 0)
(0.258662 0.000123414 0)
(0.240484 0.00107014 0)
(0.738551 -0.0122691 0)
(1.0138 -0.0249556 0)
(1.08411 -0.0267029 0)
(1.08311 -0.0243923 0)
(1.0679 -0.0202267 0)
(1.05428 -0.0162154 0)
(1.0433 -0.011637 0)
(1.03498 -0.0061846 0)
(1.02986 0.000314091 0)
(1.02949 0.00692838 0)
(1.03401 0.0129123 0)
(1.04162 0.0173968 0)
(1.05178 0.0213821 0)
(1.06473 0.0247479 0)
(1.07942 0.0282021 0)
(1.07986 0.029779 0)
(1.00747 0.0272833 0)
(0.728745 0.0131614 0)
(0.232982 -0.00083166 0)
(0.226217 0.000963921 0)
(0.695804 -0.00801333 0)
(0.993365 -0.0206888 0)
(1.08244 -0.0230475 0)
(1.08699 -0.0211841 0)
(1.07349 -0.0176144 0)
(1.06009 -0.0137507 0)
(1.0496 -0.00948307 0)
(1.04176 -0.00458263 0)
(1.03695 0.000984089 0)
(1.03607 0.00708456 0)
(1.03896 0.0122661 0)
(1.04567 0.0167948 0)
(1.05576 0.0201308 0)
(1.06919 0.02313 0)
(1.0819 0.0258691 0)
(1.07558 0.0268269 0)
(0.983183 0.0234967 0)
(0.681616 0.00914694 0)
(0.216508 -0.000706448 0)
(0.216666 0.000625083 0)
(0.660418 -0.00564864 0)
(0.972769 -0.0175644 0)
(1.07963 -0.0201237 0)
(1.09039 -0.0185327 0)
(1.07838 -0.0153592 0)
(1.0649 -0.0117145 0)
(1.05423 -0.00743989 0)
(1.04607 -0.00250379 0)
(1.04078 0.00300305 0)
(1.03997 0.0083058 0)
(1.0439 0.0130049 0)
(1.05082 0.0165501 0)
(1.06013 0.0198424 0)
(1.07254 0.0225257 0)
(1.08337 0.0246619 0)
(1.07087 0.0250874 0)
(0.959106 0.0210688 0)
(0.641457 0.00708684 0)
(0.204376 -0.000332828 0)
(0.20957 0.000303038 0)
(0.632078 -0.00418362 0)
(0.954175 -0.0149359 0)
(1.07673 -0.0178237 0)
(1.09357 -0.0164686 0)
(1.08309 -0.0135275 0)
(1.06973 -0.00987726 0)
(1.05941 -0.00582612 0)
(1.05182 -0.00118348 0)
(1.04697 0.00378288 0)
(1.04541 0.00892607 0)
(1.04739 0.0134475 0)
(1.05306 0.0173071 0)
(1.06245 0.0199984 0)
(1.07545 0.0223327 0)
(1.08429 0.0240129 0)
(1.06367 0.0239668 0)
(0.934137 0.019206 0)
(0.606378 0.00596671 0)
(0.193865 4.7572e-05 0)
(0.203748 8.69377e-05 0)
(0.608766 -0.00312738 0)
(0.936155 -0.0125082 0)
(1.07356 -0.0154989 0)
(1.09693 -0.0143089 0)
(1.08783 -0.0114776 0)
(1.07427 -0.00791611 0)
(1.06338 -0.0037928 0)
(1.05496 0.000961278 0)
(1.04937 0.00618576 0)
(1.04794 0.0109948 0)
(1.05094 0.0149599 0)
(1.0571 0.0178955 0)
(1.06594 0.0205719 0)
(1.07783 0.0226617 0)
(1.08457 0.0238774 0)
(1.05699 0.023141 0)
(0.910342 0.017686 0)
(0.576036 0.00531072 0)
(0.18419 0.000326883 0)
(0.199292 1.44409e-05 0)
(0.590836 -0.00225359 0)
(0.921025 -0.0101423 0)
(1.07082 -0.0133019 0)
(1.10039 -0.0122264 0)
(1.09277 -0.00950964 0)
(1.07914 -0.0059045 0)
(1.06831 -0.00198944 0)
(1.06029 0.00254888 0)
(1.05488 0.00735776 0)
(1.05236 0.0121377 0)
(1.05348 0.0162253 0)
(1.05853 0.0194318 0)
(1.06755 0.0214445 0)
(1.08009 0.0231484 0)
(1.08427 0.0239816 0)
(1.04758 0.0226711 0)
(0.885433 0.0165128 0)
(0.548148 0.00494919 0)
(0.174639 0.000498931 0)
(0.195747 3.53367e-05 0)
(0.576165 -0.00152768 0)
(0.906513 -0.00802604 0)
(1.06799 -0.010889 0)
(1.10394 -0.00973536 0)
(1.09778 -0.00690222 0)
(1.0841 -0.00325724 0)
(1.07262 0.000831266 0)
(1.06342 0.00549544 0)
(1.05679 0.0105635 0)
(1.05436 0.0151225 0)
(1.05652 0.0185272 0)
(1.06209 0.0207664 0)
(1.07071 0.022741 0)
(1.08149 0.0240676 0)
(1.08345 0.024476 0)
(1.03857 0.0225495 0)
(0.861421 0.0156885 0)
(0.52286 0.00479835 0)
(0.16539 0.000586748 0)
(0.193739 6.62284e-05 0)
(0.565858 -0.000741373 0)
(0.895486 -0.00583816 0)
(1.06598 -0.00859916 0)
(1.10781 -0.00733764 0)
(1.10312 -0.00449794 0)
(1.0893 -0.000761071 0)
(1.07759 0.00320476 0)
(1.06847 0.00769068 0)
(1.06206 0.0125917 0)
(1.05823 0.0172573 0)
(1.05829 0.0207857 0)
(1.06271 0.023206 0)
(1.07153 0.0243948 0)
(1.08266 0.0252971 0)
(1.08136 0.0252251 0)
(1.02631 0.0227348 0)
(0.835668 0.0152171 0)
(0.498105 0.0047467 0)
(0.15598 0.000623657 0)
(0.192925 0.000104623 0)
(0.558449 -0.000193706 0)
(0.885275 -0.00381287 0)
(1.06427 -0.0059176 0)
(1.11176 -0.00439304 0)
(1.10849 -0.00124451 0)
(1.09477 0.00268678 0)
(1.08258 0.00709327 0)
(1.07243 0.0120516 0)
(1.06424 0.0171151 0)
(1.06019 0.0211243 0)
(1.06114 0.0239907 0)
(1.066 0.0255694 0)
(1.07411 0.0267656 0)
(1.08245 0.0271366 0)
(1.07878 0.0265611 0)
(1.01428 0.0233847 0)
(0.81039 0.0150867 0)
(0.474613 0.00480958 0)
(0.146736 0.000646903 0)
(0.193583 8.81373e-05 0)
(0.554434 0.000896398 0)
(0.879271 -0.00145255 0)
(1.06394 -0.00308896 0)
(1.11636 -0.0011782 0)
(1.11438 0.00215497 0)
(1.10045 0.00636103 0)
(1.08776 0.0107048 0)
(1.07715 0.0153848 0)
(1.06879 0.0201498 0)
(1.06349 0.0246704 0)
(1.06221 0.0275196 0)
(1.06538 0.0289656 0)
(1.07355 0.0293544 0)
(1.08235 0.0294831 0)
(1.07393 0.028387 0)
(0.998547 0.0243517 0)
(0.782797 0.0153001 0)
(0.450408 0.00496725 0)
(0.137072 0.000663773 0)
(0.195782 0.000276059 0)
(0.554817 0.00155624 0)
(0.87473 0.000743806 0)
(1.06479 6.6054e-05 0)
(1.12157 0.00236875 0)
(1.12079 0.00609994 0)
(1.10685 0.0106183 0)
(1.09371 0.0156537 0)
(1.08233 0.0211634 0)
(1.07261 0.0266651 0)
(1.0662 0.030287 0)
(1.06483 0.0321297 0)
(1.06831 0.0331368 0)
(1.0753 0.0336194 0)
(1.08046 0.0327369 0)
(1.0686 0.0309742 0)
(0.982706 0.0259553 0)
(0.754952 0.0159066 0)
(0.426293 0.0052672 0)
(0.127239 0.000693501 0)
(0.200086 0.000676996 0)
(0.55766 0.00240029 0)
(0.875305 0.00345344 0)
(1.06753 0.00356875 0)
(1.12768 0.00659543 0)
(1.12781 0.010763 0)
(1.11338 0.0159618 0)
(1.09945 0.0212561 0)
(1.08697 0.026571 0)
(1.07565 0.0312599 0)
(1.06784 0.0352693 0)
(1.06491 0.0376045 0)
(1.06629 0.0380916 0)
(1.07316 0.0371697 0)
(1.0788 0.0367039 0)
(1.06066 0.0340719 0)
(0.962288 0.0278705 0)
(0.723873 0.0168659 0)
(0.400284 0.00564157 0)
(0.116594 0.000713472 0)
(0.206653 0.000883943 0)
(0.564792 0.00353794 0)
(0.879346 0.00588958 0)
(1.07249 0.00771582 0)
(1.13482 0.0112829 0)
(1.13595 0.0160745 0)
(1.12114 0.0216484 0)
(1.10624 0.0276717 0)
(1.09269 0.0340283 0)
(1.08068 0.0402215 0)
(1.07144 0.0441063 0)
(1.06695 0.0447016 0)
(1.06799 0.0445497 0)
(1.07362 0.0440104 0)
(1.07463 0.0418255 0)
(1.0515 0.0381954 0)
(0.941115 0.0307418 0)
(0.691351 0.0182612 0)
(0.373123 0.00615414 0)
(0.105401 0.000748117 0)
(0.215112 0.0010599 0)
(0.575858 0.00481673 0)
(0.887524 0.00910325 0)
(1.08022 0.0123532 0)
(1.1434 0.0170742 0)
(1.14495 0.0226226 0)
(1.12926 0.0292847 0)
(1.11337 0.0360084 0)
(1.09838 0.0426083 0)
(1.08353 0.0478287 0)
(1.07124 0.0507805 0)
(1.0658 0.0522037 0)
(1.06526 0.0516833 0)
(1.06937 0.0495668 0)
(1.07089 0.0478252 0)
(1.03918 0.0429991 0)
(0.913985 0.033727 0)
(0.654119 0.0199079 0)
(0.34292 0.00665917 0)
(0.0931024 0.000759037 0)
(0.227768 0.00143164 0)
(0.594952 0.00677628 0)
(0.903279 0.0135162 0)
(1.09144 0.0187272 0)
(1.15367 0.0242207 0)
(1.15554 0.0306637 0)
(1.13892 0.0379695 0)
(1.12129 0.0455041 0)
(1.10395 0.0528735 0)
(1.08736 0.0593448 0)
(1.07457 0.0635189 0)
(1.06673 0.0631687 0)
(1.06498 0.0614658 0)
(1.06854 0.0591575 0)
(1.06337 0.0552458 0)
(1.02436 0.0489298 0)
(0.885119 0.0379917 0)
(0.614215 0.0219616 0)
(0.310635 0.007229 0)
(0.0801332 0.000771022 0)
(0.243377 0.00196839 0)
(0.617835 0.00854809 0)
(0.923811 0.0178694 0)
(1.10692 0.0253431 0)
(1.16643 0.0328735 0)
(1.16773 0.0406105 0)
(1.14932 0.0495034 0)
(1.12986 0.0580603 0)
(1.11064 0.0661874 0)
(1.09123 0.0720462 0)
(1.07343 0.0737031 0)
(1.06402 0.0729102 0)
(1.06103 0.0710821 0)
(1.06114 0.0675969 0)
(1.05653 0.0635041 0)
(1.00575 0.0558843 0)
(0.848045 0.0421111 0)
(0.56724 0.0240129 0)
(0.274303 0.00767386 0)
(0.0660239 0.00075454 0)
(0.265689 0.00282181 0)
(0.65149 0.0124323 0)
(0.953226 0.0250278 0)
(1.12701 0.0353259 0)
(1.18189 0.0438576 0)
(1.18199 0.0536714 0)
(1.16122 0.0636685 0)
(1.13884 0.0731977 0)
(1.11573 0.0813322 0)
(1.09251 0.0870061 0)
(1.07398 0.0893748 0)
(1.06308 0.0880555 0)
(1.0584 0.0841939 0)
(1.05892 0.0797365 0)
(1.0443 0.073695 0)
(0.982441 0.0634555 0)
(0.807765 0.0474789 0)
(0.516948 0.0262777 0)
(0.235943 0.00801097 0)
(0.0516215 0.000731439 0)
(0.297093 0.0037575 0)
(0.696986 0.0155341 0)
(0.992536 0.0331064 0)
(1.15378 0.0469804 0)
(1.20114 0.0586669 0)
(1.1987 0.0705125 0)
(1.17428 0.0821929 0)
(1.14855 0.0924279 0)
(1.12263 0.100938 0)
(1.0968 0.106066 0)
(1.07374 0.106282 0)
(1.05892 0.102012 0)
(1.05226 0.0973555 0)
(1.0479 0.0914502 0)
(1.03256 0.0842778 0)
(0.954501 0.0724177 0)
(0.756508 0.0521613 0)
(0.456486 0.0279176 0)
(0.193129 0.00796992 0)
(0.0364307 0.000625282 0)
(0.333679 0.00711146 0)
(0.754899 0.0248412 0)
(1.04172 0.0466107 0)
(1.18647 0.0648181 0)
(1.22437 0.0778717 0)
(1.21751 0.0929022 0)
(1.18831 0.105612 0)
(1.15825 0.116091 0)
(1.12737 0.123532 0)
(1.09616 0.126658 0)
(1.0699 0.124653 0)
(1.05464 0.119989 0)
(1.04757 0.113772 0)
(1.04335 0.106775 0)
(1.01387 0.0973601 0)
(0.918332 0.0811194 0)
(0.699729 0.0577637 0)
(0.394123 0.0296069 0)
(0.150567 0.00774914 0)
(0.0227044 0.000576606 0)
(0.41405 0.0107745 0)
(0.842885 0.035742 0)
(1.10863 0.0677759 0)
(1.2271 0.0905461 0)
(1.25146 0.106882 6.14219e-34)
(1.23745 0.123685 -2.77605e-34)
(1.2017 0.136364 0)
(1.16656 0.145661 0)
(1.13139 0.151395 0)
(1.09701 0.152218 0)
(1.0683 0.148108 0)
(1.04933 0.140166 0)
(1.03847 0.13131 0)
(1.02714 0.121631 0)
(0.993309 0.109632 0)
(0.875869 0.0907546 0)
(0.62892 0.0613056 0)
(0.316918 0.0290044 0)
(0.101454 0.00713817 0)
(0.0077011 0.000749008 0)
(0.485408 0.0259668 4.47263e-20)
(0.945272 0.0602565 -3.39073e-20)
(1.17925 0.102266 0)
(1.26881 0.129587 2.64379e-20)
(1.2803 0.145372 -2.14393e-20)
(1.257 0.164026 2.929e-34)
(1.21442 0.174722 0)
(1.1743 0.181799 1.56701e-20)
(1.13393 0.184801 -5.14985e-20)
(1.09397 0.18242 1.05298e-20)
(1.06013 0.174256 0)
(1.03916 0.16349 -2.68222e-20)
(1.02857 0.153677 -3.22966e-20)
(1.01619 0.143325 5.6577e-20)
(0.957881 0.127724 -4.46847e-20)
(0.806055 0.100107 0)
(0.527926 0.0637679 -1.6059e-20)
(0.227035 0.027102 0)
(0.0523187 0.00675994 -8.87803e-20)
(-0.00839572 0.000364118 1.04631e-19)
(0.5218 0.0539737 -5.91243e-21)
(1.0113 0.102622 9.97247e-20)
(1.23134 0.153137 -5.09177e-21)
(1.30336 0.17757 -6.40685e-20)
(1.30554 0.195049 -4.52645e-20)
(1.27317 0.211937 7.36466e-20)
(1.22419 0.219907 0)
(1.17824 0.224379 0)
(1.13213 0.224886 8.17749e-20)
(1.08736 0.219498 0)
(1.0506 0.208391 9.65309e-20)
(1.02806 0.196686 2.87806e-20)
(1.01123 0.183995 5.5095e-22)
(0.983914 0.168181 -6.13092e-20)
(0.914372 0.146903 0)
(0.737788 0.113512 0)
(0.446352 0.0660262 -2.61197e-19)
(0.166929 0.0247681 6.56842e-19)
(0.0195316 0.00467045 -3.88251e-19)
(-0.0200752 -0.00149081 -4.57244e-19)
(0.528867 0.0770837 -5.33911e-20)
(1.04621 0.159929 2.08515e-20)
(1.26676 0.213367 1.17459e-20)
(1.32997 0.236871 1.11321e-19)
(1.32517 0.253189 1.46239e-20)
(1.28555 0.265457 -1.91456e-19)
(1.23102 0.269318 6.54972e-20)
(1.17994 0.270289 0)
(1.12867 0.266822 -1.7259e-19)
(1.07871 0.257468 1.53816e-19)
(1.03798 0.244097 -2.60468e-19)
(1.0094 0.228629 1.22142e-19)
(0.99088 0.212571 -7.92087e-20)
(0.965718 0.196582 1.78644e-19)
(0.879557 0.171045 0)
(0.687948 0.126283 -6.50213e-20)
(0.396239 0.0695814 0)
(0.143587 0.0244645 3.57883e-19)
(0.00727662 0.00265137 -8.479e-19)
(-0.0251726 -0.00346106 5.30756e-19)
(0.52597 0.108361 1.37942e-19)
(1.0707 0.218281 -6.14783e-20)
(1.29067 0.279456 -1.34788e-20)
(1.34781 0.301899 0)
(1.33788 0.315481 -8.26389e-20)
(1.29297 0.322709 1.02118e-19)
(1.23371 0.321857 -6.99317e-20)
(1.17764 0.318435 0)
(1.12146 0.311104 1.2256e-19)
(1.06716 0.297972 -1.08012e-19)
(1.02188 0.279807 2.25139e-19)
(0.992563 0.260007 0)
(0.9705 0.2428 -1.68244e-19)
(0.932125 0.222139 9.48447e-20)
(0.845746 0.189487 2.38448e-19)
(0.653342 0.140393 -2.09783e-19)
(0.374958 0.076799 3.31092e-19)
(0.138857 0.0268352 -7.3249e-19)
(0.00439559 0.00153613 4.63296e-19)
(-0.0275868 -0.00559052 -5.79478e-19)
(0.511914 0.132436 -4.05072e-20)
(1.0737 0.2703 2.86186e-20)
(1.29982 0.344112 -4.50399e-20)
(1.35671 0.367566 9.31315e-20)
(1.34367 0.379682 -8.98952e-20)
(1.29524 0.381574 3.18472e-20)
(1.23252 0.375705 3.77676e-21)
(1.17269 0.367935 -1.37426e-19)
(1.11232 0.355988 -1.28076e-19)
(1.05362 0.338086 -2.31367e-19)
(1.00498 0.316055 -4.83872e-19)
(0.971072 0.294208 -1.49336e-19)
(0.946645 0.273033 2.22838e-21)
(0.914667 0.250924 -3.24348e-19)
(0.820676 0.217098 -5.06274e-21)
(0.630693 0.156801 3.05081e-19)
(0.368269 0.0866418 -9.14922e-20)
(0.142396 0.0320661 -5.30035e-20)
(0.00973883 0.00114007 0)
(-0.0262728 -0.00666496 1.23126e-18)
(0.496781 0.153971 0)
(1.07238 0.322185 1.4457e-22)
(1.3037 0.408806 -5.98036e-21)
(1.35936 0.432033 -1.29638e-20)
(1.34386 0.442136 8.56291e-20)
(1.29298 0.439763 -7.49332e-20)
(1.22738 0.429799 7.60145e-20)
(1.16417 0.417626 2.25827e-19)
(1.10068 0.401284 -7.12121e-20)
(1.03951 0.379266 1.14166e-19)
(0.987304 0.352687 2.59979e-19)
(0.950771 0.326475 3.25631e-19)
(0.924375 0.304599 -1.96191e-19)
(0.881635 0.278534 3.51217e-19)
(0.792552 0.237359 -2.78353e-19)
(0.610629 0.176816 0)
(0.363747 0.10037 -6.9477e-19)
(0.151354 0.0396631 9.35193e-19)
(0.0197738 0.00382164 6.97889e-20)
(-0.0221082 -0.00684257 -1.30219e-18)
(0.479464 0.173126 -5.13599e-21)
(1.05963 0.367835 -2.26017e-20)
(1.29895 0.468197 4.29317e-20)
(1.35642 0.493794 -6.68207e-20)
(1.33908 0.50373 7.24437e-20)
(1.28638 0.497153 -7.18321e-20)
(1.21891 0.482777 1.49672e-19)
(1.15376 0.466345 -6.70808e-20)
(1.08757 0.445647 -2.87204e-19)
(1.02179 0.418808 -3.06563e-22)
(0.964878 0.388003 -2.82931e-19)
(0.925918 0.359794 -3.50668e-19)
(0.898437 0.334379 2.1696e-19)
(0.863165 0.30709 -1.26334e-19)
(0.770351 0.266504 3.03054e-19)
(0.595578 0.195457 0)
(0.362963 0.115563 -4.32055e-19)
(0.160859 0.0487714 6.3815e-19)
(0.0303997 0.00798653 1.2067e-18)
(-0.0171756 -0.00629581 -1.41922e-18)
(0.466563 0.19155 -1.02306e-19)
(1.05054 0.414734 4.5917e-20)
(1.29296 0.527288 -2.29254e-20)
(1.34995 0.553341 6.8407e-20)
(1.33104 0.561777 1.22108e-20)
(1.27719 0.551744 -1.3982e-19)
(1.20804 0.534147 -8.73105e-20)
(1.14047 0.51405 -8.67676e-20)
(1.07131 0.48964 -1.62851e-19)
(1.00318 0.459072 2.61763e-19)
(0.944906 0.424373 2.85532e-19)
(0.904992 0.39258 5.5638e-19)
(0.87422 0.365568 0)
(0.82956 0.335574 6.45756e-21)
(0.744427 0.286359 -8.33712e-19)
(0.57961 0.216892 1.95861e-19)
(0.361289 0.130929 9.38292e-19)
(0.169513 0.0591634 -2.76906e-19)
(0.0410433 0.0133488 5.74265e-19)
(-0.0118286 -0.00500549 -4.78518e-20)
(0.453775 0.20801 5.85527e-21)
(1.03442 0.454721 6.40948e-20)
(1.28198 0.58067 -3.52948e-21)
(1.34034 0.609551 6.3558e-20)
(1.32012 0.618169 -1.3247e-19)
(1.26507 0.604826 1.37927e-19)
(1.19458 0.583682 9.03257e-20)
(1.12555 0.560026 2.5836e-19)
(1.0545 0.531931 3.25657e-19)
(0.983621 0.497085 -3.03605e-19)
(0.922176 0.458044 0)
(0.878805 0.424044 -2.11074e-19)
(0.847821 0.393356 2.42337e-19)
(0.811077 0.361722 3.06309e-19)
(0.723233 0.315577 -1.77322e-19)
(0.565266 0.235475 -4.30668e-19)
(0.359056 0.146934 -1.28245e-19)
(0.176342 0.0698956 -2.02233e-21)
(0.050125 0.0192816 0)
(-0.00695933 -0.00339314 0)
(0.446015 0.224889 -8.92946e-20)
(1.02402 0.496731 0)
(1.27143 0.633811 1.20454e-20)
(1.32884 0.6636 -1.79207e-20)
(1.30748 0.67077 1.53048e-19)
(1.25175 0.65458 -3.83385e-20)
(1.18014 0.630957 9.18058e-20)
(1.10958 0.604409 -1.74472e-19)
(1.03677 0.573172 2.46965e-19)
(0.96423 0.534983 -1.00729e-19)
(0.901068 0.492743 1.63918e-19)
(0.856728 0.455594 6.70322e-19)
(0.824065 0.422786 1.43114e-20)
(0.778568 0.388032 -3.19898e-19)
(0.698418 0.332761 5.92248e-19)
(0.548687 0.256542 3.41111e-21)
(0.354487 0.16173 1.37205e-19)
(0.180367 0.0806598 -6.54007e-19)
(0.0568119 0.0249588 6.7389e-19)
(-0.00295979 -0.00174724 -7.93771e-19)
(0.437973 0.240659 2.52088e-23)
(1.00923 0.532276 0)
(1.25784 0.681082 0)
(1.31565 0.714114 3.5776e-21)
(1.29339 0.721476 -4.37188e-20)
(1.23678 0.70268 6.35359e-20)
(1.16437 0.676179 -1.69182e-19)
(1.09313 0.646661 0)
(1.01886 0.612515 -3.64597e-19)
(0.94316 0.570862 4.4043e-19)
(0.876853 0.525103 4.69301e-19)
(0.830221 0.484041 -2.4617e-19)
(0.79706 0.44784 -2.98639e-19)
(0.760274 0.411081 7.00605e-19)
(0.677053 0.360143 -2.10728e-19)
(0.53219 0.272583 -2.50971e-19)
(0.34768 0.175803 -1.50007e-19)
(0.181015 0.0899115 -7.0706e-19)
(0.0608579 0.0298588 1.0365e-19)
(5.7316e-05 -0.000274334 8.59903e-19)
(0.432815 0.258032 -4.28003e-20)
(0.999276 0.570021 -5.79161e-20)
(1.2453 0.728273 2.38036e-20)
(1.30161 0.762539 -2.06891e-22)
(1.2786 0.768506 -5.01585e-20)
(1.22171 0.747355 9.91363e-20)
(1.14877 0.718892 0)
(1.07638 0.687183 1.06037e-19)
(1.00042 0.65068 -8.36107e-20)
(0.923397 0.606392 7.35877e-19)
(0.855896 0.557472 -1.05818e-19)
(0.808123 0.513312 1.2201e-19)
(0.773327 0.475573 0)
(0.727633 0.434774 -3.79545e-19)
(0.651676 0.372956 4.60008e-19)
(0.513915 0.290697 0)
(0.338334 0.187288 -3.22937e-19)
(0.178958 0.0977991 9.50673e-19)
(0.0623605 0.0337314 1.1301e-19)
(0.00203824 0.000843195 -1.06047e-18)
(0.42892 0.275251 -1.05919e-19)
(0.986634 0.60215 1.34379e-19)
(1.23082 0.769849 0)
(1.28701 0.807259 2.76702e-20)
(1.26344 0.813503 0)
(1.20589 0.79037 -1.31837e-19)
(1.13238 0.759631 0)
(1.05945 0.725521 0)
(0.982243 0.686739 -1.11819e-19)
(0.902449 0.639799 -6.99783e-19)
(0.831358 0.588138 -8.68257e-19)
(0.781047 0.540263 1.43199e-19)
(0.745309 0.497231 5.17576e-19)
(0.709 0.453816 4.18558e-19)
(0.629578 0.396944 -1.47667e-18)
(0.495976 0.301764 -5.89932e-19)
(0.327703 0.197708 3.45964e-19)
(0.174658 0.103665 0)
(0.0618013 0.0363679 9.69991e-19)
(0.00305121 0.00159264 -1.14373e-18)
(0.426956 0.29082 1.24821e-19)
(0.978155 0.636262 -1.54819e-19)
(1.21785 0.811671 0)
(1.27227 0.850099 -1.13727e-20)
(1.24809 0.855137 -5.5211e-21)
(1.19039 0.830134 0)
(1.11659 0.797857 5.24096e-20)
(1.04273 0.762095 7.43419e-20)
(0.963982 0.721628 -2.09621e-19)
(0.882857 0.672891 9.24969e-20)
(0.810215 0.618416 0)
(0.758591 0.566924 5.93733e-19)
(0.721622 0.522805 6.13044e-21)
(0.675665 0.474318 2.25958e-19)
(0.604093 0.40377 2.67941e-19)
(0.47652 0.315041 0)
(0.31583 0.204482 -5.63249e-19)
(0.168544 0.108022 1.10369e-18)
(0.0601529 0.037759 -1.17126e-18)
(0.00326956 0.00205708 2.4642e-18)
(0.425181 0.305624 0)
(0.967058 0.664945 0)
(1.20372 0.848 -7.66507e-20)
(1.25761 0.889285 0)
(1.23293 0.894735 0)
(1.17466 0.868273 -1.04886e-19)
(1.1004 0.834244 5.36054e-20)
(1.02615 0.796619 1.78884e-20)
(0.94645 0.754437 -4.76661e-20)
(0.862881 0.703742 0)
(0.786432 0.647171 -1.32846e-19)
(0.731286 0.592649 -4.84386e-19)
(0.691885 0.541525 -5.84045e-19)
(0.656024 0.488284 -2.35069e-19)
(0.581437 0.423254 2.90183e-19)
(0.457988 0.319093 -6.8346e-19)
(0.304849 0.209275 1.21244e-18)
(0.162167 0.109447 1.54179e-21)
(0.057791 0.0388137 -1.12047e-18)
(0.00340273 0.00265298 -1.66203e-19)
(0.424038 0.31968 0)
(0.95951 0.695836 -1.24965e-19)
(1.1913 0.884901 9.27182e-20)
(1.24311 0.926947 0)
(1.21782 0.931359 0)
(1.15946 0.903433 2.08273e-19)
(1.08517 0.868248 0)
(1.0103 0.829424 0)
(0.929261 0.786148 -4.60781e-19)
(0.844147 0.734501 1.28983e-19)
(0.765352 0.675711 -1.1781e-18)
(0.70815 0.61755 0)
(0.667685 0.564847 -6.36307e-19)
(0.620767 0.50548 1.00371e-20)
(0.554636 0.422057 -9.34812e-19)
(0.438631 0.324923 3.67481e-19)
(0.294278 0.208497 1.22809e-21)
(0.159775 0.10789 -1.26204e-18)
(0.0569316 0.0370202 6.02795e-19)
(0.00156457 0.000265547 1.77751e-19)
(0.422664 0.333534 0)
(0.949753 0.721759 -1.68894e-19)
(1.17806 0.916599 9.7565e-20)
(1.22901 0.961155 1.37505e-19)
(1.20328 0.966028 -5.46833e-21)
(1.14447 0.937031 2.05781e-20)
(1.06992 0.900553 -3.00966e-20)
(0.994822 0.860382 4.34655e-19)
(0.912913 0.815858 4.92904e-19)
(0.825454 0.762874 9.81237e-19)
(0.74309 0.702694 9.78825e-19)
(0.681023 0.642633 1.7255e-19)
(0.635662 0.581771 9.15123e-19)
(0.598724 0.51442 5.65916e-19)
(0.529258 0.435679 6.70774e-19)
(0.419899 0.318029 -4.02009e-19)
(0.284077 0.201248 -4.62438e-19)
(0.161294 0.105628 5.44247e-19)
(0.0655151 0.0458092 -3.24046e-19)
(0.00941535 0.010322 5.76226e-19)
(0.421722 0.346892 2.35522e-19)
(0.943197 0.749906 2.64824e-19)
(1.1665 0.949297 5.58512e-20)
(1.21525 0.99424 1.5474e-20)
(1.18894 0.998135 -1.66649e-20)
(1.13017 0.967982 -5.7409e-20)
(1.05579 0.930676 2.86858e-20)
(0.980242 0.889666 -1.91136e-20)
(0.897079 0.844497 -5.74599e-19)
(0.808038 0.791211 -1.06538e-18)
(0.722903 0.72996 6.79462e-20)
(0.657522 0.666424 0)
(0.610774 0.604171 0)
(0.559442 0.530276 -2.95473e-19)
(0.497206 0.425141 -1.10057e-18)
(0.39876 0.311756 8.65998e-19)
(0.282896 0.183297 5.06836e-19)
(0.174143 0.0841247 0)
(0.0829198 0.0153917 1.03706e-18)
(0.00317795 -0.0169236 -6.13921e-19)
(0.420552 0.35988 -1.25009e-19)
(0.934628 0.773163 1.10173e-19)
(1.15423 0.976979 -1.33243e-19)
(1.20207 1.02407 -1.12581e-19)
(1.17544 1.02841 -2.16744e-20)
(1.11636 0.99745 -1.83791e-20)
(1.04182 0.959206 0)
(0.9661 0.91729 -5.4672e-19)
(0.882125 0.871243 6.93728e-20)
(0.790949 0.81718 0)
(0.702604 0.755546 0)
(0.631401 0.691565 1.10767e-19)
(0.576112 0.621147 1.48971e-19)
(0.532668 0.535992 -3.19763e-19)
(0.464859 0.434906 7.89747e-19)
(0.371306 0.289453 -9.44141e-19)
(0.267283 0.157987 -1.08785e-18)
(0.1973 0.0732431 9.64048e-19)
(0.152522 0.0690808 -3.68575e-19)
(0.110056 0.0749029 2.14409e-19)
(0.419749 0.372015 1.54858e-19)
(0.928859 0.798532 0)
(1.14357 1.00599 0)
(1.18929 1.05311 -3.16952e-20)
(1.16218 1.05648 2.56586e-20)
(1.10322 1.02459 -1.98281e-20)
(1.02896 0.985775 1.31839e-19)
(0.95288 0.943289 5.59145e-19)
(0.867843 0.896976 1.04342e-18)
(0.775334 0.843128 -8.06748e-20)
(0.684044 0.781433 1.67299e-19)
(0.608592 0.714658 -9.92618e-19)
(0.551173 0.644331 -9.92236e-19)
(0.487412 0.554641 -1.72091e-19)
(0.417879 0.417246 0)
(0.336033 0.27781 -4.37161e-21)
(0.249903 0.0838973 6.00921e-19)
(0.243012 -0.0311819 -1.00826e-18)
(0.210026 -0.109988 7.66017e-19)
(0.0883056 -0.099839 6.33837e-19)
(0.418516 0.383895 -3.4133e-19)
(0.921024 0.819076 -1.53394e-19)
(1.13214 1.03013 6.9038e-21)
(1.17705 1.07924 6.20326e-20)
(1.14968 1.08313 0)
(1.09045 1.0507 -4.53988e-20)
(1.01605 1.01129 -1.91767e-19)
(0.939833 0.968378 -2.27406e-21)
(0.854136 0.921651 -5.46667e-19)
(0.759577 0.867533 -7.92727e-20)
(0.665136 0.806546 7.36325e-20)
(0.583797 0.741917 8.72249e-19)
(0.513203 0.664807 9.67764e-19)
(0.454028 0.560467 1.68181e-19)
(0.376439 0.434861 8.57632e-19)
(0.273574 0.241807 0)
(0.147292 0.0651404 0)
(-0.0116513 0.175292 6.88554e-19)
(-0.0786902 0.629713 -2.70569e-20)
(0.00969101 1.54478 -8.55333e-19)
(0.417749 0.394986 1.8816e-19)
(0.915854 0.842082 4.3351e-19)
(1.12224 1.05626 -6.00635e-19)
(1.16507 1.10528 3.06911e-19)
(1.13717 1.10841 -1.13782e-20)
(1.07802 1.07542 4.6933e-21)
(1.00388 1.03589 0)
(0.92733 0.992898 -4.6553e-19)
(0.840655 0.946593 0)
(0.744807 0.893528 1.11361e-18)
(0.647156 0.833645 -9.03934e-20)
(0.560677 0.76722 1.0136e-19)
(0.488242 0.693671 1.11565e-18)
(0.399014 0.593678 -3.6551e-19)
(0.28645 0.418325 -4.35269e-19)
(0.183237 0.291454 0)
(0.0743497 0.459847 0)
(0.0243129 1.36103 0)
(0.0711096 2.47361 -3.90726e-19)
(0.0973521 2.91568 -2.41448e-19)
(0.416224 0.405615 0)
(0.908555 0.860137 0)
(1.11152 1.07743 2.18566e-19)
(1.15365 1.12851 -2.49945e-19)
(1.1255 1.13242 1.1703e-19)
(1.06606 1.0993 4.54072e-21)
(0.991739 1.05962 2.52419e-20)
(0.915091 1.01685 -1.96524e-20)
(0.827891 0.970841 7.77653e-20)
(0.730078 0.918321 -1.27811e-18)
(0.629233 0.860333 1.63571e-19)
(0.537262 0.799823 8.78039e-19)
(0.44654 0.723458 -1.11089e-18)
(0.360965 0.601496 -1.22798e-18)
(0.263829 0.474931 4.12353e-19)
(0.180112 0.621485 0)
(0.112955 1.58813 5.60595e-19)
(0.11797 2.70122 6.04517e-19)
(0.125372 3.09056 -6.75341e-19)
(0.118126 3.22343 7.18981e-19)
(0.415227 0.415965 0)
(0.903918 0.880866 3.78855e-19)
(1.10241 1.101 -5.47733e-20)
(1.14254 1.1519 3.44917e-19)
(1.11383 1.15522 -1.22843e-19)
(1.05446 1.12186 0)
(0.980453 1.08246 0)
(0.903547 1.04001 0)
(0.815532 0.995048 4.3475e-19)
(0.716683 0.944477 5.86972e-20)
(0.612871 0.888871 0)
(0.515161 0.827031 -8.72553e-19)
(0.428563 0.756582 0)
(0.304787 0.646511 8.78613e-19)
(0.199739 0.695313 -5.95909e-19)
(0.144556 1.46648 -4.77197e-19)
(0.148815 2.68777 -1.09674e-18)
(0.172373 3.12605 -5.76045e-19)
(0.162971 3.26526 -7.73571e-19)
(0.15009 3.30546 5.62488e-19)
(0.413602 0.425287 -1.31773e-19)
(0.89704 0.89645 1.48e-20)
(1.09239 1.11936 -6.06932e-20)
(1.13204 1.17247 -2.67542e-19)
(1.10309 1.17682 0)
(1.04346 1.14363 0)
(0.969265 1.10442 0)
(0.892329 1.06269 3.29274e-20)
(0.803971 1.01861 -5.49928e-19)
(0.703484 0.96934 0)
(0.596968 0.916557 0)
(0.496868 0.863723 0)
(0.384587 0.789212 0)
(0.308808 0.738916 6.45716e-19)
(0.265359 1.13889 1.58327e-18)
(0.23815 2.40083 4.64426e-19)
(0.255428 3.08147 9.28588e-19)
(0.250048 3.27855 -7.11034e-19)
(0.20186 3.34391 2.59987e-19)
(0.17023 3.35712 0)
(0.412442 0.434479 1.35351e-19)
(0.892773 0.915645 -8.38185e-19)
(1.08386 1.14134 -2.26275e-19)
(1.12158 1.19412 -5.02423e-20)
(1.09206 1.19797 2.85196e-20)
(1.03255 1.16479 -1.14691e-19)
(0.958736 1.12614 -5.51421e-22)
(0.881639 1.08498 -3.5968e-19)
(0.792687 1.04237 0)
(0.691618 0.995825 -7.53831e-20)
(0.583152 0.946671 6.85772e-20)
(0.477197 0.891765 0)
(0.382548 0.830362 0)
(0.321152 0.931262 -8.09121e-19)
(0.265977 1.85205 1.0157e-19)
(0.262443 2.94484 -3.49334e-19)
(0.287479 3.2816 7.30215e-19)
(0.258818 3.37981 5.22475e-19)
(0.194435 3.40441 -7.0588e-19)
(0.170072 3.41462 3.48106e-19)
(0.410359 0.443926 2.64998e-19)
(0.885258 0.930459 8.15206e-19)
(1.07335 1.15897 2.7231e-19)
(1.1109 1.21428 0)
(1.08126 1.2194 0)
(1.02157 1.18643 8.88929e-20)
(0.947651 1.14801 5.23195e-20)
(0.870735 1.10783 3.20199e-19)
(0.781779 1.06637 2.12423e-20)
(0.679599 1.02155 9.59733e-19)
(0.569475 0.975533 -1.14555e-18)
(0.458848 0.926936 0)
(0.379602 0.909939 0)
(0.333269 1.30775 -5.52123e-19)
(0.32857 2.49578 -6.62713e-19)
(0.37346 3.19403 0)
(0.398608 3.36199 -7.37466e-19)
(0.327837 3.42493 5.1119e-20)
(0.259637 3.47055 3.38399e-19)
(0.237566 3.49604 -1.09791e-19)
(0.408563 0.453698 -5.03445e-19)
(0.880409 0.951713 -3.90989e-19)
(1.06376 1.18329 0)
(1.09921 1.23765 0)
(1.06905 1.24194 0)
(1.00968 1.20884 0)
(0.936426 1.17093 -6.33776e-20)
(0.859623 1.13114 2.78371e-19)
(0.770477 1.09119 0)
(0.668542 1.04938 -8.73474e-19)
(0.558422 1.0076 2.05616e-18)
(0.447878 0.966389 8.43622e-20)
(0.395861 1.03006 1.13863e-19)
(0.384955 1.74138 8.99467e-19)
(0.395644 2.90143 -4.83613e-19)
(0.435676 3.31334 0)
(0.418722 3.43473 2.07288e-19)
(0.332911 3.52388 9.11412e-20)
(0.259269 3.58815 1.49096e-19)
(0.183777 3.56761 -1.60521e-20)
(0.405576 0.464019 2.39155e-19)
(0.870893 0.967428 -3.97689e-19)
(1.05121 1.20197 0)
(1.08689 1.2593 -7.35973e-20)
(1.05678 1.265 2.54305e-19)
(0.997389 1.23192 0)
(0.924253 1.19397 0)
(0.848026 1.15517 -4.82374e-19)
(0.759406 1.11635 -5.56071e-20)
(0.657242 1.0763 8.56797e-19)
(0.54369 1.03702 -9.76802e-19)
(0.451959 1.01662 5.74967e-19)
(0.412223 1.21975 0)
(0.420039 2.18635 -4.7698e-19)
(0.461948 3.14232 3.12769e-19)
(0.527031 3.41514 1.96191e-19)
(0.518068 3.5106 0)
(0.455587 3.5929 -3.71513e-20)
(0.386805 3.63254 -4.09975e-19)
(0.306457 3.60473 -9.66615e-20)
(0.402841 0.47453 -4.74886e-19)
(0.864963 0.991696 5.69077e-19)