/*--------------------------------*- C++ -*----------------------------------*\
  =========                 |
  \\      /  F ield         | OpenFOAM: The Open Source CFD Toolbox
   \\    /   O peration     | Website:  https://openfoam.org
    \\  /    A nd           | Version:  10
     \\/     M anipulation  |
\*---------------------------------------------------------------------------*/
FoamFile
{
    format      ascii;
    class       volScalarField;
    location    "20";
    object      p;
}
// * * * * * * * * * * * * * * * * * * * * * * * * * * * * * * * * * * * * * //

dimensions      [0 2 -2 0 0 0 0];

internalField   nonuniform List<scalar> 
8800
(
0.411688
0.363906
0.325223
0.296234
0.275375
0.260545
0.249943
0.242445
0.237579
0.235416
0.236523
0.240536
0.247021
0.256205
0.268887
0.286551
0.311278
0.345182
0.387696
0.446394
0.242927
0.250606
0.258094
0.261409
0.259912
0.254844
0.248367
0.242288
0.23753
0.234607
0.234185
0.236503
0.240817
0.246611
0.253254
0.259438
0.263012
0.262238
0.256763
0.248043
0.221321
0.227491
0.231637
0.234605
0.236675
0.237293
0.23619
0.234072
0.232006
0.230976
0.231757
0.233937
0.236549
0.238575
0.239054
0.237752
0.235322
0.23186
0.227268
0.223498
0.215499
0.21816
0.220947
0.223392
0.225069
0.226263
0.227021
0.22713
0.226772
0.226584
0.227134
0.228085
0.22871
0.22858
0.227804
0.22657
0.224633
0.221964
0.219501
0.217996
0.210115
0.211549
0.213392
0.215502
0.217358
0.218755
0.219769
0.220553
0.221113
0.221541
0.221946
0.222162
0.222004
0.221487
0.220578
0.219136
0.217265
0.215268
0.213881
0.213055
0.20508
0.206007
0.207345
0.209044
0.21081
0.212451
0.213816
0.214894
0.215786
0.216506
0.216914
0.216923
0.216566
0.215806
0.214613
0.213124
0.211535
0.210062
0.20914
0.208604
0.20027
0.200935
0.202026
0.203511
0.205103
0.206733
0.208314
0.209712
0.210864
0.211762
0.212253
0.212223
0.211698
0.210746
0.209522
0.208192
0.206832
0.205627
0.204928
0.204552
0.195762
0.19625
0.197195
0.198594
0.200119
0.201678
0.203262
0.204811
0.206195
0.207303
0.207904
0.207878
0.207322
0.206419
0.205334
0.204134
0.202886
0.20183
0.201274
0.201008
0.191584
0.191942
0.192757
0.194045
0.195502
0.196993
0.198489
0.199996
0.201486
0.202805
0.203563
0.203658
0.203301
0.202638
0.201744
0.20069
0.199585
0.19868
0.198244
0.198057
0.187786
0.188019
0.188758
0.19002
0.191461
0.192979
0.194587
0.196209
0.19779
0.199247
0.200266
0.200633
0.200456
0.199867
0.199048
0.198105
0.197086
0.196264
0.195923
0.195817
0.184661
0.184786
0.185349
0.186412
0.187658
0.188981
0.190407
0.191997
0.193711
0.195427
0.196727
0.197375
0.197511
0.197328
0.196882
0.196251
0.195506
0.194926
0.194723
0.194673
0.181917
0.181993
0.182362
0.183145
0.184168
0.185371
0.186771
0.188384
0.1902
0.192164
0.193858
0.19493
0.195444
0.195566
0.195448
0.19517
0.194807
0.194545
0.19446
0.194425
0.178866
0.178935
0.179196
0.179752
0.180575
0.181633
0.183001
0.184714
0.18679
0.189159
0.191315
0.192805
0.193738
0.194209
0.194456
0.194557
0.194554
0.194541
0.194518
0.194479
0.174991
0.175052
0.175299
0.175781
0.176505
0.177541
0.178983
0.180863
0.183239
0.18609
0.188835
0.19089
0.192283
0.193196
0.193777
0.194168
0.194433
0.194555
0.194564
0.194523
0.170229
0.170285
0.170556
0.171094
0.171923
0.173101
0.174779
0.177019
0.179889
0.183381
0.186834
0.189476
0.191321
0.192565
0.193498
0.194138
0.194517
0.194679
0.19471
0.194672
0.164664
0.164703
0.165016
0.165733
0.16669
0.168118
0.170134
0.172819
0.176298
0.180616
0.184954
0.188361
0.190797
0.192514
0.193706
0.194527
0.194991
0.195203
0.195271
0.195238
0.158367
0.158403
0.158741
0.159595
0.16092
0.162617
0.165075
0.168355
0.172638
0.177979
0.183411
0.187726
0.190861
0.193075
0.194601
0.195601
0.196179
0.196472
0.196581
0.19655
0.15121
0.151238
0.151637
0.152599
0.154192
0.156381
0.159385
0.163422
0.16872
0.175358
0.182132
0.187556
0.191523
0.194324
0.196281
0.197541
0.198309
0.198722
0.19887
0.198834
0.142891
0.142923
0.143423
0.144542
0.146414
0.149115
0.152831
0.157877
0.164487
0.17276
0.181201
0.187972
0.19291
0.196455
0.198895
0.200519
0.201533
0.202086
0.202271
0.202226
0.132881
0.132923
0.133526
0.134922
0.137219
0.140559
0.145224
0.15156
0.159857
0.170192
0.180676
0.189049
0.195195
0.199581
0.202625
0.204678
0.205984
0.206691
0.206917
0.206858
0.12062
0.120682
0.121467
0.123228
0.126123
0.130355
0.136281
0.144324
0.154786
0.16769
0.180665
0.190981
0.198532
0.203908
0.207665
0.210221
0.211859
0.212732
0.213009
0.212934
0.105292
0.105374
0.106416
0.108746
0.112553
0.118052
0.125719
0.136026
0.14925
0.165327
0.181286
0.193879
0.203066
0.209628
0.214232
0.217388
0.219416
0.220482
0.220815
0.220722
0.0857562
0.085878
0.0873299
0.0905431
0.0957117
0.103064
0.113172
0.126505
0.143261
0.16321
0.182687
0.197922
0.209014
0.216959
0.222567
0.226445
0.22896
0.230282
0.230674
0.230552
0.0602599
0.0604644
0.0626129
0.0672789
0.0745824
0.0847263
0.0983215
0.115722
0.136932
0.161511
0.185039
0.203269
0.216532
0.226085
0.232892
0.237649
0.240752
0.242373
0.242836
0.24268
0.0257469
0.0261542
0.029704
0.0370995
0.0480055
0.0625153
0.0810993
0.10385
0.130527
0.16048
0.188534
0.210059
0.225733
0.237123
0.245357
0.251212
0.255076
0.257078
0.257614
0.257409
-0.0236633
-0.0222027
-0.0150019
-0.00206067
0.0151431
0.0363846
0.0618388
0.0913469
0.12447
0.160424
0.193341
0.21836
0.236617
0.250039
0.259937
0.267156
0.272039
0.274585
0.275223
0.274941
-0.097367
-0.088791
-0.0722258
-0.0492288
-0.0225717
0.00763421
0.0415014
0.0788152
0.11912
0.161659
0.199921
0.228872
0.250157
0.266078
0.278167
0.28738
0.293905
0.297529
0.298556
0.298446
-0.176204
-0.156777
-0.130258
-0.0968861
-0.0605297
-0.0212234
0.0211431
0.0664635
0.11438
0.16428
0.208977
0.242991
0.26834
0.287692
0.302805
0.314713
0.323633
0.32928
0.331278
0.331331
-0.23965
-0.217617
-0.182981
-0.141256
-0.0963862
-0.0486404
0.00184176
0.0548962
0.110164
0.167053
0.217688
0.256197
0.285013
0.307164
0.324561
0.338307
0.348794
0.355527
0.357188
0.357474
-0.291229
-0.267168
-0.227603
-0.179965
-0.128407
-0.0737107
-0.0161796
0.0438441
0.105877
0.16922
0.225188
0.267501
0.299017
0.323133
0.341985
0.356886
0.368171
0.375252
0.377288
0.377661
-0.333531
-0.308599
-0.265546
-0.213333
-0.156544
-0.0962001
-0.0327164
0.0333873
0.101449
0.170597
0.231264
0.276751
0.31031
0.335751
0.35547
0.370938
0.382514
0.38979
0.392142
0.392503
-0.369601
-0.344169
-0.298605
-0.242713
-0.181625
-0.116541
-0.0479641
0.023465
0.0969125
0.171295
0.236171
0.284363
0.319554
0.345939
0.36614
0.381782
0.393394
0.400658
0.403158
0.403484
-0.401365
-0.375664
-0.328147
-0.269248
-0.204562
-0.135379
-0.0623227
0.0138547
0.0922012
0.171406
0.240192
0.290908
0.327565
0.3547
0.375203
0.390874
0.402431
0.409658
0.412271
0.41258
-0.430279
-0.404328
-0.355213
-0.293771
-0.22599
-0.153234
-0.0762069
0.00427781
0.0871499
0.170942
0.243512
0.29665
0.334686
0.362544
0.383362
0.399106
0.41063
0.417744
0.420456
0.420753
-0.45719
-0.431013
-0.380532
-0.316898
-0.246418
-0.170516
-0.0899249
-0.00550903
0.081593
0.169763
0.246045
0.301677
0.341215
0.369922
0.391147
0.407035
0.418572
0.425545
0.428246
0.42863
-0.482795
-0.456333
-0.404595
-0.339061
-0.26618
-0.187478
-0.103693
-0.0156938
0.0753556
0.167756
0.247865
0.306211
0.347444
0.377138
0.398894
0.415016
0.426607
0.433486
0.436105
0.436485
-0.507368
-0.48059
-0.427707
-0.360536
-0.285511
-0.204321
-0.117663
-0.0263823
0.0683799
0.164961
0.248992
0.310245
0.353427
0.384323
0.406778
0.423261
0.434977
0.44181
0.444289
0.444598
-0.531244
-0.504077
-0.450297
-0.381505
-0.304568
-0.22115
-0.131896
-0.0376093
0.0606431
0.16126
0.249297
0.313725
0.359152
0.391524
0.414876
0.431859
0.443771
0.450587
0.452901
0.453114
-0.554472
-0.526845
-0.472303
-0.402045
-0.323411
-0.238007
-0.146428
-0.0494121
0.0520551
0.156548
0.248687
0.316584
0.364589
0.398727
0.423199
0.440832
0.453015
0.459824
0.462
0.462064
-0.577124
-0.549112
-0.493734
-0.422207
-0.34207
-0.254908
-0.161267
-0.0618174
0.0425925
0.150786
0.247045
0.318669
0.369631
0.405877
0.431716
0.450147
0.462655
0.469402
0.47143
0.471358
-0.599273
-0.570813
-0.514644
-0.441989
-0.360532
-0.271819
-0.176371
-0.0747709
0.032299
0.143937
0.24425
0.319804
0.374102
0.412871
0.440379
0.459757
0.472617
0.47925
0.481062
0.480872
-0.620946
-0.591966
-0.535044
-0.461364
-0.378738
-0.288686
-0.191669
-0.0881972
0.0212113
0.135973
0.240199
0.319801
0.37778
0.419556
0.449144
0.469653
0.482829
0.489244
0.490768
0.490472
-0.641972
-0.612511
-0.554877
-0.480294
-0.396643
-0.305431
-0.207085
-0.102016
0.00939943
0.126937
0.234809
0.318458
0.380407
0.425727
0.457978
0.479905
0.493257
0.499184
0.50031
0.499911
-0.662303
-0.632396
-0.574109
-0.498717
-0.414182
-0.321987
-0.222521
-0.116137
-0.00303598
0.116877
0.228038
0.315596
0.381662
0.431043
0.466777
0.490757
0.504142
0.50897
0.509399
0.508927
-0.682016
-0.651582
-0.592708
-0.516593
-0.431286
-0.33827
-0.237888
-0.130444
-0.0159836
0.105885
0.219882
0.311083
0.381215
0.434998
0.475213
0.502555
0.516392
0.519089
0.517827
0.517308
-0.700933
-0.670054
-0.61062
-0.533858
-0.447901
-0.354198
-0.253085
-0.144818
-0.0293138
0.094088
0.21039
0.304825
0.378774
0.436904
0.482461
0.515193
0.531678
0.532314
0.527051
0.525326
-0.719148
-0.687806
-0.627866
-0.55054
-0.464058
-0.36982
-0.268171
-0.159322
-0.0430936
0.0814196
0.199451
0.296583
0.374037
0.435938
0.486988
0.527259
0.550525
0.554489
0.544625
0.524243
-0.7366
-0.704848
-0.644571
-0.56682
-0.480041
-0.385455
-0.283552
-0.174435
-0.0578692
0.0672113
0.186355
0.285474
0.366214
0.430928
0.485627
0.533676
0.563833
0.565391
0.549578
0.525936
-0.753139
-0.721351
-0.660563
-0.582449
-0.495566
-0.400768
-0.299004
-0.189824
-0.073308
0.0517884
0.171316
0.271314
0.354895
0.421348
0.47354
0.522497
0.551408
0.543426
0.472412
0.432493
-0.768166
-0.738359
-0.675489
-0.596864
-0.509944
-0.4153
-0.314243
-0.205274
-0.0891929
0.0353045
0.154365
0.254024
0.33935
0.40765
0.450736
0.481656
0.496085
0.450709
0.375487
0.327016
-0.822002
-0.752835
-0.689053
-0.611444
-0.524564
-0.430394
-0.329334
-0.221035
-0.105842
0.0173882
0.135045
0.233291
0.317042
0.391529
0.400869
0.412735
0.383049
0.317378
0.234529
0.187838
-0.782775
-0.767626
-0.708493
-0.632152
-0.545602
-0.451933
-0.352077
-0.24494
-0.131504
-0.0108883
0.103063
0.197518
0.272852
0.342758
0.34727
0.233574
0.12155
0.0437946
-0.0367789
0.00478505
-0.811859
-0.783885
-0.724451
-0.648107
-0.562026
-0.468784
-0.36893
-0.262744
-0.150839
-0.0327228
0.0775139
0.167282
0.235114
0.273261
0.224179
0.0671496
-0.076202
-0.178984
-0.293366
-0.226442
-0.83407
-0.802937
-0.742783
-0.666073
-0.580143
-0.487138
-0.387618
-0.282564
-0.172486
-0.0573696
0.0485041
0.132298
0.190605
0.199593
0.0858839
-0.116048
-0.292543
-0.429329
-0.594947
-0.536309
-0.855428
-0.822836
-0.76175
-0.684341
-0.598341
-0.505567
-0.406751
-0.30294
-0.194852
-0.0830524
0.0177239
0.0948902
0.139864
0.11067
-0.0651732
-0.299994
-0.526837
-0.731048
-0.964547
-0.960357
-0.875779
-0.843063
-0.781291
-0.703284
-0.617196
-0.524713
-0.426696
-0.324224
-0.218348
-0.110204
-0.0150727
0.0549114
0.0826184
0.0148847
-0.210953
-0.467306
-0.736582
-0.978957
-1.28242
-1.6449
-0.896196
-0.863734
-0.80162
-0.723261
-0.637081
-0.544848
-0.447552
-0.346428
-0.242835
-0.13851
-0.0491917
0.0129033
0.0241778
-0.0950762
-0.339492
-0.597469
-0.86181
-1.08674
-1.176
-1.31367
-0.917364
-0.885181
-0.823003
-0.74455
-0.65839
-0.566486
-0.469991
-0.370364
-0.269339
-0.169286
-0.0862803
-0.0335299
-0.0459108
-0.21521
-0.452516
-0.691489
-0.903701
-1.03317
-1.05777
-1.08397
-0.93962
-0.907705
-0.845562
-0.767168
-0.681177
-0.589742
-0.494247
-0.396382
-0.298311
-0.203137
-0.126949
-0.0851211
-0.12501
-0.325675
-0.554558
-0.767334
-0.932584
-1.00004
-1.01514
-1.01887
-0.963135
-0.931306
-0.869318
-0.791036
-0.705325
-0.614533
-0.520232
-0.424405
-0.32968
-0.239974
-0.17107
-0.142505
-0.206604
-0.429304
-0.649788
-0.842694
-0.969182
-0.988646
-0.990878
-0.991048
-0.987823
-0.955943
-0.894206
-0.816075
-0.730757
-0.64074
-0.547821
-0.454289
-0.363281
-0.279555
-0.21865
-0.20299
-0.295032
-0.52574
-0.737171
-0.913053
-0.962768
-0.976143
-0.978425
-0.978303
-1.0134
-0.981507
-0.920014
-0.842128
-0.757284
-0.668181
-0.576824
-0.485813
-0.398893
-0.32151
-0.2694
-0.263059
-0.399957
-0.61821
-0.810844
-0.96681
-0.994721
-0.977876
-0.970601
-0.968977
-1.03927
-1.00766
-0.94638
-0.868893
-0.784623
-0.696555
-0.606906
-0.518613
-0.436052
-0.365356
-0.322108
-0.330559
-0.504402
-0.715705
-0.857454
-0.960481
-0.963837
-0.962628
-0.961103
-0.959534
-1.06504
-1.03387
-0.972948
-0.895934
-0.812342
-0.725402
-0.637574
-0.552141
-0.474026
-0.410503
-0.375692
-0.405397
-0.599526
-0.827708
-0.896199
-0.859314
-0.929476
-0.949356
-0.953315
-0.954832
-1.08984
-1.05919
-0.999121
-0.92266
-0.839826
-0.754102
-0.668137
-0.585611
-0.511822
-0.455845
-0.429511
-0.478363
-0.696191
-0.959439
-1.11163
-1.0031
-1.02185
-1.02641
-1.02571
-1.02218
-1.11273
-1.08285
-1.02409
-0.948257
-0.866333
-0.781846
-0.697685
-0.617918
-0.548253
-0.499446
-0.483131
-0.548712
-0.810639
-1.10723
-1.66686
-1.81623
-1.39908
-1.27785
-1.24933
-1.23375
-1.13243
-1.1039
-1.04649
-0.971876
-0.890899
-0.807648
-0.725117
-0.64764
-0.58179
-0.538612
-0.534701
-0.611475
-0.895335
-1.06329
-1.08758
-1.16797
-1.32358
-1.44456
-1.41784
-1.41031
-1.14765
-1.12097
-1.06558
-0.992242
-0.912459
-0.830337
-0.749129
-0.673185
-0.610051
-0.570817
-0.580584
-0.661021
-0.888881
-0.806523
-0.365377
-0.50474
-1.09845
-1.35289
-1.37387
-1.39082
-1.15719
-1.13291
-1.08006
-1.00836
-0.929738
-0.848662
-0.76833
-0.692953
-0.630075
-0.593578
-0.610097
-0.725443
-1.09936
-1.57527
-2.0966
-2.61915
-2.67371
-2.30185
-1.91638
-1.83489
-1.15956
-1.13845
-1.08887
-1.01916
-0.941711
-0.861441
-0.781272
-0.705257
-0.639835
-0.59993
-0.613701
-0.775557
-1.37721
-2.39622
-3.38968
-3.94523
-3.92439
-3.55551
-3.09601
-2.83126
-1.15416
-1.1367
-1.09111
-1.02389
-0.947597
-0.867799
-0.787007
-0.70859
-0.637847
-0.584357
-0.579896
-0.67449
-1.17608
-1.81394
-2.56761
-2.89686
-2.76148
-2.40355
-2.06575
-1.87607
-1.14005
-1.12602
-1.08606
-1.02218
-0.947091
-0.867387
-0.78532
-0.702982
-0.622542
-0.54934
-0.490808
-0.414576
-0.495118
-0.482544
-0.335924
-0.0943872
0.246982
0.545121
0.737732
0.816767
-1.11825
-1.1081
-1.07399
-1.01414
-0.940243
-0.86051
-0.776902
-0.689988
-0.599335
-0.500594
-0.387314
-0.270723
0.0331394
0.515066
1.10476
1.7083
2.166
2.44256
2.57121
2.6095
-1.09041
-1.08405
-1.0563
-1.00051
-0.927533
-0.848134
-0.763816
-0.67416
-0.575601
-0.458522
-0.327024
-0.173385
0.0566209
0.608055
1.29226
1.89462
2.32576
2.56865
2.68143
2.71671
-1.05762
-1.0544
-1.03339
-0.980849
-0.909504
-0.831395
-0.748559
-0.659333
-0.559019
-0.438913
-0.306962
-0.172632
-0.0285217
0.356641
0.894621
1.35069
1.68878
1.88636
1.98601
2.02091
-1.01726
-1.01612
-1.00063
-0.953112
-0.884768
-0.809566
-0.731484
-0.647944
-0.553321
-0.437572
-0.311758
-0.212866
-0.141572
0.0709549
0.424076
0.730637
0.962087
1.10556
1.17906
1.20284
-0.951174
-0.951228
-0.940215
-0.902444
-0.844618
-0.780149
-0.713367
-0.641225
-0.555899
-0.446829
-0.31986
-0.220322
-0.160609
-0.0290294
0.20958
0.405134
0.550493
0.642479
0.694732
0.707224
-0.861951
-0.861074
-0.853346
-0.82915
-0.789654
-0.743477
-0.694082
-0.638587
-0.567904
-0.466434
-0.341485
-0.228148
-0.144928
-0.0621263
0.0852563
0.201488
0.284601
0.335885
0.360154
0.366625
-0.781838
-0.780156
-0.774741
-0.761812
-0.739074
-0.711131
-0.67995
-0.643433
-0.591648
-0.506442
-0.381038
-0.25066
-0.145647
-0.0794995
-0.0245906
0.0418955
0.0953512
0.129201
0.145474
0.147793
-0.734244
-0.732604
-0.729531
-0.723754
-0.712013
-0.698643
-0.684789
-0.670231
-0.6484
-0.596141
-0.482309
-0.333792
-0.205615
-0.160549
-0.124772
-0.079526
-0.0390208
-0.00868784
0.00775508
0.00804986
-0.718321
-0.717622
-0.716533
-0.714628
-0.711898
-0.710966
-0.715882
-0.731181
-0.758908
-0.785287
-0.723647
-0.551058
-0.38869
-0.332932
-0.285112
-0.219622
-0.160601
-0.11895
-0.0996853
-0.100721
-0.716343
-0.716792
-0.718014
-0.720475
-0.726165
-0.739487
-0.768378
-0.827675
-0.942214
-1.11358
-1.16627
-0.931691
-0.689721
-0.581543
-0.495687
-0.39143
-0.29721
-0.232037
-0.205061
-0.208419
-0.71036
-0.712017
-0.715651
-0.722447
-0.736655
-0.764998
-0.82104
-0.935057
-1.17249
-1.57975
-1.79048
-1.48771
-1.08542
-0.870443
-0.724196
-0.567717
-0.439757
-0.357324
-0.332778
-0.336988
-0.683935
-0.686493
-0.691888
-0.702251
-0.722849
-0.762391
-0.840382
-0.999921
-1.33947
-1.97026
-2.34037
-2.00394
-1.45939
-1.15783
-0.944508
-0.755416
-0.621848
-0.552536
-0.537126
-0.539785
-0.626401
-0.629244
-0.635084
-0.646468
-0.668819
-0.711947
-0.795993
-0.968987
-1.33592
-2.00198
-2.35541
-2.01512
-1.55868
-1.28881
-1.05552
-0.903034
-0.827369
-0.797885
-0.783369
-0.780139
-0.53737
-0.539765
-0.544707
-0.554311
-0.573485
-0.610263
-0.681819
-0.829598
-1.14443
-1.67277
-1.93103
-1.68337
-1.39902
-1.17254
-1.0028
-0.926428
-0.919782
-0.91755
-0.904769
-0.898146
-0.427412
-0.428905
-0.432063
-0.43827
-0.451031
-0.475582
-0.523079
-0.620039
-0.824756
-1.16942
-1.35208
-1.23155
-1.04602
-0.874271
-0.788385
-0.788953
-0.818286
-0.826432
-0.81937
-0.815237
-0.312879
-0.313413
-0.314731
-0.317471
-0.323513
-0.335361
-0.358161
-0.403818
-0.498523
-0.666961
-0.771029
-0.694307
-0.590702
-0.524106
-0.543213
-0.592287
-0.62039
-0.628735
-0.629678
-0.628416
-0.208908
-0.208744
-0.208761
-0.209053
-0.210229
-0.212818
-0.217972
-0.228295
-0.248687
-0.276891
-0.28514
-0.258228
-0.251242
-0.289269
-0.354309
-0.400472
-0.420493
-0.428286
-0.431057
-0.431311
-0.12476
-0.124258
-0.123665
-0.122818
-0.121572
-0.119445
-0.11577
-0.109536
-0.0989129
-0.0793999
-0.0550448
-0.037763
-0.0883845
-0.157023
-0.211243
-0.242915
-0.259391
-0.266255
-0.269716
-0.270628
-0.0630172
-0.0624568
-0.0617715
-0.0607592
-0.0589283
-0.0554786
-0.0493686
-0.03904
-0.0225748
0.000618123
0.0168528
0.0118806
-0.0292254
-0.0792596
-0.116746
-0.138919
-0.149667
-0.155048
-0.158063
-0.159024
-0.0215186
-0.0210509
-0.0205264
-0.0198059
-0.0183422
-0.0153275
-0.00989409
-0.000971357
0.0122564
0.0280868
0.0342831
0.022237
-0.00639777
-0.0378333
-0.0614759
-0.0757274
-0.0829827
-0.0867201
-0.0888235
-0.0895201
0.00402646
0.00435571
0.00466284
0.00497559
0.00581254
0.00781931
0.0116048
0.0177566
0.0262859
0.0348577
0.0349177
0.0228298
0.00340772
-0.015941
-0.0304831
-0.0394271
-0.0441865
-0.0466507
-0.0479883
-0.0484268
0.0181251
0.0183286
0.0184522
0.0184267
0.0186918
0.0197245
0.0218965
0.0254611
0.0301194
0.0338022
0.0311502
0.0212512
0.00823665
-0.00385066
-0.0128869
-0.0186279
-0.0218173
-0.0234633
-0.0243058
-0.0245733
0.0245452
0.0246569
0.0246517
0.0244126
0.0242955
0.0246119
0.0255921
0.0273069
0.0293761
0.0302369
0.0267821
0.0192236
0.0104799
0.00273717
-0.0030415
-0.00683135
-0.00902478
-0.0101533
-0.0106933
-0.0108603
0.0260634
0.0261162
0.0260386
0.0257009
0.0253698
0.0252403
0.0254528
0.0259984
0.0265425
0.0259816
0.0226027
0.0169892
0.0110548
0.00596839
0.00216677
-0.000395115
-0.00193059
-0.00271973
-0.00307366
-0.00317705
0.0245754
0.0245942
0.0244876
0.0241337
0.0237133
0.0233561
0.023143
0.0230339
0.0227699
0.0216183
0.0186875
0.0145851
0.0105146
0.00710528
0.00455063
0.00279169
0.00170917
0.00115562
0.000924813
0.000855017
0.0213069
0.0213089
0.0212021
0.0208784
0.020457
0.0200254
0.0196293
0.0192258
0.0186275
0.0173585
0.0149838
0.0120282
0.00923077
0.0069261
0.00519432
0.00398204
0.00322162
0.00283579
0.00267938
0.00263438
0.017011
0.0170068
0.0169158
0.0166467
0.0162768
0.0158671
0.0154431
0.0149693
0.014318
0.013192
0.0113973
0.00933613
0.00745023
0.00591461
0.00475693
0.00393535
0.00341245
0.00314927
0.00304658
0.00301805
0.0121279
0.0121234
0.0120568
0.0118556
0.0115684
0.0112434
0.0108922
0.0104886
0.00995161
0.00910533
0.00787531
0.00653799
0.00534444
0.00438062
0.00365146
0.003127
0.0027887
0.0026209
0.00255854
0.00254064
0.00690131
0.00690085
0.00686718
0.00674728
0.0065716
0.00637244
0.0061525
0.00589681
0.00556209
0.00506047
0.00437069
0.00364812
0.00301555
0.00250913
0.002127
0.00185089
0.00167294
0.0015907
0.00156323
0.00155173
0.00148429
0.00149341
0.00154049
0.00158798
0.00157249
0.00151654
0.00144136
0.0013537
0.00124672
0.00110856
0.000927544
0.000723725
0.000537802
0.000382292
0.000262196
0.000180959
0.000149669
0.000178552
0.000229789
0.000254451
-0.687582
-0.47264
-0.227973
-0.0259945
0.137899
0.269633
0.380481
0.473834
0.516075
0.493524
-0.301208
-0.152473
0.00309054
0.13722
0.25101
0.346197
0.423527
0.478656
0.507173
0.518611
-0.0347417
0.0644325
0.168944
0.261804
0.341876
0.409037
0.462417
0.501406
0.528957
0.546229
0.153319
0.221647
0.294894
0.361407
0.419229
0.468193
0.508178
0.539751
0.564849
0.582692
0.295965
0.345456
0.39812
0.447979
0.491903
0.530023
0.56237
0.588969
0.610785
0.628349
0.411109
0.447977
0.490092
0.529598
0.565565
0.597551
0.625281
0.648357
0.667149
0.684373
0.510309
0.541251
0.578041
0.612566
0.64461
0.673524
0.698651
0.719388
0.735537
0.752585
0.602984
0.633607
0.669343
0.70287
0.733772
0.761468
0.785224
0.804371
0.818195
0.835251
0.700851
0.734846
0.772564
0.807088
0.837955
0.864846
0.887371
0.905079
0.917271
0.934713
0.8175
0.855617
0.894958
0.929838
0.959695
0.98488
1.00561
1.02178
1.03347
1.05158
0.963494
1.00239
1.03871
1.06973
1.09571
1.11808
1.13735
1.15305
1.16562
1.18366
1.13882
1.17085
1.19725
1.21985
1.24001
1.25889
1.27673
1.29331
1.30874
1.32684
1.32778
1.34514
1.36038
1.37675
1.39275
1.40737
1.42066
1.43465
1.45225
1.47243
1.50993
1.51938
1.53098
1.54184
1.55116
1.56083
1.57171
1.58313
1.59453
1.6099
1.71712
1.72083
1.70591
1.69113
1.68493
1.69066
1.70916
1.73951
1.77171
1.79838
2.02347
1.88862
1.81203
1.76977
1.75237
1.75634
1.78378
1.84019
1.94282
2.1672
0.302283
0.300159
0.295673
0.287054
0.274838
0.262717
0.252491
0.244585
0.238932
0.235599
0.235097
0.237642
0.242565
0.249637
0.258905
0.270352
0.282933
0.293918
0.300009
0.303042
0.226717
0.232566
0.238915
0.243425
0.245909
0.2456
0.242873
0.239062
0.235518
0.233165
0.232858
0.234861
0.238333
0.242452
0.246121
0.247897
0.246876
0.243325
0.238108
0.231467
0.218286
0.220584
0.224005
0.227027
0.229131
0.230651
0.231423
0.231105
0.230041
0.229061
0.229063
0.23027
0.231874
0.232989
0.233004
0.231979
0.23032
0.227892
0.224566
0.221618
0.212757
0.213842
0.21571
0.218147
0.22023
0.22171
0.222762
0.223515
0.223884
0.224007
0.224303
0.224853
0.225194
0.22503
0.224417
0.223388
0.221758
0.219534
0.217341
0.215926
0.207562
0.208217
0.209373
0.211176
0.213062
0.214788
0.21615
0.217182
0.218017
0.218693
0.219199
0.219444
0.21934
0.218898
0.218066
0.216759
0.2151
0.213351
0.211889
0.211076
0.202652
0.203096
0.203945
0.205384
0.207028
0.208695
0.210291
0.211676
0.212813
0.213746
0.214395
0.214599
0.214353
0.213679
0.212598
0.211257
0.209808
0.208397
0.207296
0.206748
0.197966
0.198276
0.198959
0.200237
0.201767
0.203354
0.204974
0.206541
0.20792
0.209037
0.209824
0.210104
0.209817
0.209044
0.207951
0.206713
0.205426
0.204166
0.203254
0.202857
0.193641
0.19386
0.194417
0.195561
0.197004
0.198505
0.200012
0.201549
0.203087
0.204482
0.205468
0.205768
0.205475
0.204812
0.203936
0.202893
0.201736
0.200625
0.199872
0.199579
0.189613
0.189751
0.190215
0.191288
0.192688
0.19418
0.195729
0.197282
0.198792
0.200235
0.201402
0.201977
0.201977
0.201535
0.200766
0.199811
0.198755
0.197744
0.1971
0.196896
0.186138
0.1862
0.186563
0.187532
0.188848
0.190247
0.191733
0.193324
0.195012
0.196678
0.198092
0.198903
0.199064
0.198796
0.198242
0.197507
0.196635
0.195769
0.195262
0.195145
0.183281
0.183305
0.183541
0.184249
0.185304
0.186484
0.187799
0.189268
0.190908
0.192702
0.194417
0.195617
0.196218
0.196385
0.196234
0.195858
0.195349
0.19483
0.194559
0.194502
0.180475
0.180491
0.180655
0.181136
0.181941
0.182973
0.184224
0.185758
0.187582
0.189655
0.19176
0.193372
0.19432
0.19476
0.19492
0.194889
0.194754
0.194593
0.194512
0.194476
0.177042
0.177061
0.17721
0.177572
0.178185
0.179069
0.180258
0.181815
0.1838
0.186208
0.188802
0.190954
0.192397
0.193347
0.193872
0.194224
0.194429
0.194544
0.194572
0.194545
0.172722
0.172734
0.172886
0.173254
0.173876
0.174787
0.176102
0.177883
0.18021
0.183103
0.186323
0.189092
0.191027
0.192364
0.193257
0.193813
0.194282
0.194553
0.194629
0.194616
0.167541
0.167538
0.167691
0.168149
0.168894
0.169988
0.171525
0.173637
0.176432
0.179962
0.183965
0.187486
0.190025
0.191795
0.19305
0.193936
0.194523
0.194822
0.194928
0.194932
0.16162
0.161601
0.161773
0.162316
0.163272
0.164598
0.166466
0.169055
0.172453
0.176789
0.181765
0.186213
0.189489
0.191822
0.193444
0.194578
0.195266
0.195645
0.195809
0.195836
0.154915
0.154878
0.155071
0.1557
0.156813
0.158586
0.160894
0.164016
0.168195
0.173555
0.179748
0.185345
0.189491
0.192466
0.19455
0.195968
0.196847
0.197353
0.197589
0.197628
0.14722
0.147173
0.14741
0.148163
0.149518
0.151569
0.154424
0.158311
0.1635
0.17017
0.17789
0.184876
0.190092
0.193821
0.196467
0.198255
0.19941
0.200098
0.200414
0.200463
0.138125
0.138073
0.138372
0.139293
0.140926
0.143396
0.146917
0.151781
0.158287
0.166627
0.176243
0.184931
0.191391
0.196073
0.199365
0.201618
0.203109
0.204016
0.204419
0.204477
0.12704
0.126973
0.127375
0.128523
0.130555
0.13365
0.138093
0.144249
0.15245
0.162899
0.174862
0.185599
0.193593
0.199366
0.203423
0.206225
0.208106
0.209258
0.209759
0.209828
0.113317
0.113239
0.113793
0.115303
0.117918
0.121887
0.127591
0.13546
0.145867
0.158987
0.173826
0.187029
0.196811
0.203861
0.20884
0.212292
0.214628
0.216062
0.216682
0.216763
0.0960084
0.095922
0.0967163
0.0987594
0.102229
0.107477
0.114962
0.125169
0.138469
0.154936
0.173244
0.189347
0.201216
0.209774
0.215837
0.220065
0.222941
0.224708
0.225471
0.225562
0.0736667
0.0735832
0.0747736
0.0776653
0.0824767
0.0896807
0.0997636
0.113201
0.130263
0.150864
0.17328
0.192727
0.206988
0.21729
0.224633
0.229795
0.233332
0.235502
0.236425
0.236531
0.0439729
0.0439408
0.0458539
0.0502302
0.0573166
0.067628
0.0815724
0.0994626
0.121369
0.146979
0.174137
0.197339
0.214278
0.226563
0.235403
0.241695
0.246056
0.248728
0.249846
0.249962
0.0027553
0.00293674
0.00646578
0.0139073
0.0251708
0.0405955
0.0602576
0.0841643
0.112121
0.143594
0.176043
0.203324
0.223166
0.237646
0.248213
0.255878
0.2613
0.264619
0.265956
0.266071
-0.0578028
-0.056293
-0.0477788
-0.033792
-0.0148204
0.0087631
0.0364352
0.0679954
0.103095
0.141107
0.179202
0.210732
0.233598
0.250407
0.262875
0.272143
0.278845
0.28302
0.284665
0.284794
-0.13023
-0.127775
-0.111792
-0.0873759
-0.0578278
-0.0247404
0.0117086
0.0514692
0.0942817
0.139598
0.184373
0.221354
0.248434
0.268702
0.284106
0.295913
0.304833
0.310242
0.311958
0.312362
-0.20477
-0.196882
-0.173316
-0.138874
-0.0996707
-0.057392
-0.0122516
0.0356872
0.0862183
0.138883
0.190444
0.232969
0.264285
0.288019
0.306421
0.320848
0.331969
0.338447
0.341431
0.342285
-0.263194
-0.253765
-0.225342
-0.184223
-0.137526
-0.0875342
-0.0347114
0.0207473
0.0785151
0.138085
0.195928
0.243388
0.278269
0.304698
0.325186
0.341253
0.353593
0.361505
0.365503
0.366554
-0.310559
-0.300583
-0.268738
-0.222822
-0.170511
-0.114443
-0.0552328
0.00675134
0.0710052
0.136855
0.200351
0.252066
0.289799
0.31818
0.340034
0.357113
0.370261
0.379015
0.383381
0.384496
-0.349926
-0.339831
-0.305864
-0.256217
-0.199395
-0.138378
-0.0738343
-0.00625101
0.0637088
0.13519
0.203745
0.25915
0.29917
0.328959
0.35167
0.369246
0.382667
0.391741
0.396184
0.397397
-0.384086
-0.373988
-0.338433
-0.285826
-0.225325
-0.160137
-0.0909932
-0.0185
0.0565501
0.133139
0.206316
0.265034
0.307054
0.337992
0.361288
0.379079
0.392532
0.40165
0.40607
0.407323
-0.414595
-0.404531
-0.36779
-0.31273
-0.249148
-0.180378
-0.107201
-0.0303363
0.0493436
0.130648
0.208202
0.270109
0.314009
0.345955
0.369719
0.387681
0.401145
0.410284
0.414726
0.415862
-0.442655
-0.432593
-0.39487
-0.337725
-0.271521
-0.199624
-0.122891
-0.0420771
0.0418618
0.127627
0.209393
0.274406
0.320189
0.353199
0.377507
0.395696
0.40922
0.418347
0.422817
0.423784
-0.46903
-0.458941
-0.420365
-0.361432
-0.292899
-0.218242
-0.138337
-0.0539534
0.033912
0.123888
0.209769
0.278003
0.325853
0.360099
0.385068
0.403566
0.417198
0.426314
0.430771
0.431642
-0.494183
-0.484061
-0.444718
-0.3842
-0.31359
-0.236481
-0.15375
-0.0661374
0.0253548
0.119347
0.209397
0.281037
0.331137
0.366803
0.392605
0.411545
0.425375
0.434512
0.438937
0.439781
-0.518509
-0.50827
-0.468121
-0.406305
-0.333818
-0.254526
-0.169253
-0.0787117
0.0161493
0.114006
0.208199
0.283423
0.336057
0.373395
0.400242
0.419787
0.433926
0.443138
0.447451
0.448286
-0.542176
-0.531749
-0.490949
-0.427848
-0.353688
-0.272455
-0.184902
-0.0917031
0.0062585
0.107757
0.206045
0.285062
0.34057
0.379895
0.408021
0.428338
0.442889
0.452216
0.456425
0.457223
-0.565215
-0.554593
-0.513209
-0.448902
-0.373262
-0.290301
-0.200725
-0.105148
-0.00437673
0.100521
0.20286
0.285854
0.34455
0.386222
0.415904
0.437184
0.452254
0.461728
0.465814
0.466498
-0.587758
-0.576891
-0.534878
-0.469494
-0.392555
-0.308069
-0.216707
-0.119031
-0.0157366
0.0923167
0.198559
0.285649
0.347853
0.392253
0.423834
0.446285
0.46196
0.471569
0.475501
0.476048
-0.609723
-0.598618
-0.556006
-0.489637
-0.411535
-0.325709
-0.232787
-0.133283
-0.027755
0.0831417
0.193069
0.284288
0.35029
0.397847
0.431735
0.455613
0.471963
0.48165
0.485365
0.485739
-0.631128
-0.619768
-0.576551
-0.509295
-0.430159
-0.34317
-0.248904
-0.147818
-0.0403688
0.0730269
0.186356
0.281622
0.351612
0.402776
0.439503
0.465176
0.482256
0.491843
0.495182
0.495367
-0.651828
-0.640276
-0.596465
-0.528417
-0.448371
-0.360371
-0.264978
-0.16256
-0.0534909
0.0620556
0.17841
0.277527
0.351579
0.406729
0.446957
0.475045
0.492976
0.5021
0.50474
0.50468
-0.671912
-0.66009
-0.615721
-0.546966
-0.466127
-0.377262
-0.280912
-0.177414
-0.0670122
0.0503306
0.169269
0.271912
0.349948
0.409313
0.453754
0.485281
0.504633
0.512774
0.513877
0.513377
-0.691256
-0.679167
-0.634292
-0.564892
-0.483344
-0.39376
-0.296623
-0.192253
-0.0808092
0.0379417
0.159016
0.26473
0.346515
0.410053
0.459254
0.495642
0.518062
0.525376
0.523265
0.5211
-0.709884
-0.697573
-0.652129
-0.582142
-0.499987
-0.409798
-0.312026
-0.206994
-0.0947625
0.0250486
0.147771
0.255976
0.341157
0.408495
0.46243
0.505025
0.533367
0.543034
0.537655
0.526362
-0.727731
-0.715248
-0.66934
-0.598863
-0.516256
-0.425653