/*--------------------------------*- C++ -*----------------------------------*\
  =========                 |
  \\      /  F ield         | OpenFOAM: The Open Source CFD Toolbox
   \\    /   O peration     | Website:  https://openfoam.org
    \\  /    A nd           | Version:  10
     \\/     M anipulation  |
\*---------------------------------------------------------------------------*/
FoamFile
{
    format      ascii;
    class       volVectorField;
    location    "20";
    object      U;
}
// * * * * * * * * * * * * * * * * * * * * * * * * * * * * * * * * * * * * * //

dimensions      [0 1 -1 0 0 0 0];

internalField   nonuniform List<vector> 
8800
(
(0.980125 -0.0915194 0)
(1.00234 -0.0587349 0)
(0.999613 -0.0321263 0)
(0.999995 -0.0165088 0)
(1.00004 -0.008816 0)
(1.00003 -0.00506898 0)
(1.00002 -0.00297743 0)
(1.00001 -0.00169141 0)
(1 -0.000814637 0)
(1.00005 -0.000130369 0)
(1 0.000554666 0)
(1.00001 0.00131382 0)
(1.00002 0.00235407 0)
(1.00003 0.00396596 0)
(1.00003 0.00670934 0)
(1.00004 0.0120222 0)
(0.999883 0.0230859 0)
(0.999093 0.0431616 0)
(1.00719 0.0790365 0)
(0.775017 0.0478401 0)
(0.359026 -0.0147462 0)
(1.04652 -0.0724596 0)
(1.0885 -0.0659995 0)
(1.0495 -0.05089 0)
(1.02558 -0.0376728 0)
(1.01271 -0.0258648 0)
(1.00649 -0.0166498 0)
(1.00357 -0.0101924 0)
(1.00217 -0.00561261 0)
(1.00154 -0.00209284 0)
(1.00142 0.00102016 0)
(1.00176 0.00426763 0)
(1.00271 0.00815782 0)
(1.00472 0.0134974 0)
(1.00899 0.0212129 0)
(1.01805 0.0317347 0)
(1.03595 0.0445276 0)
(1.06754 0.0579983 0)
(1.0948 0.0699913 0)
(0.84581 0.0554846 0)
(0.217889 -0.00137409 0)
(1.07574 -0.0505493 0)
(1.09942 -0.0488142 0)
(1.06434 -0.039882 0)
(1.0398 -0.0324121 0)
(1.0237 -0.0252245 0)
(1.01396 -0.0180594 0)
(1.00846 -0.0115363 0)
(1.00559 -0.00591756 0)
(1.00444 -0.000748787 0)
(1.00476 0.00426802 0)
(1.00664 0.00948739 0)
(1.01061 0.0154375 0)
(1.01795 0.0222175 0)
(1.03055 0.029331 0)
(1.05058 0.0364554 0)
(1.08021 0.0442783 0)
(1.10591 0.0516691 0)
(0.943728 0.0408813 0)
(0.217517 0.00138868 0)
(0.176875 -0.000622577 0)
(1.0197 -0.0353031 0)
(1.10588 -0.0411992 0)
(1.07808 -0.0361417 0)
(1.05234 -0.0300486 0)
(1.03498 -0.0241812 0)
(1.02313 -0.0184936 0)
(1.01536 -0.0126711 0)
(1.01081 -0.00676809 0)
(1.00884 -0.000743945 0)
(1.0094 0.00521459 0)
(1.01247 0.0110151 0)
(1.01843 0.0167251 0)
(1.02805 0.0222759 0)
(1.04235 0.0278554 0)
(1.06338 0.0337158 0)
(1.09434 0.0397141 0)
(1.09507 0.041358 0)
(0.831393 0.0225755 0)
(0.176246 0.000634851 0)
(0.155178 -0.000454512 0)
(0.95895 -0.0253675 0)
(1.10452 -0.034657 0)
(1.08799 -0.0322699 0)
(1.0611 -0.0278769 0)
(1.04297 -0.0229428 0)
(1.03056 -0.0177017 0)
(1.02197 -0.0123201 0)
(1.01642 -0.0066756 0)
(1.01378 -0.000552003 0)
(1.01451 0.00562156 0)
(1.01841 0.0113042 0)
(1.02526 0.0165652 0)
(1.03549 0.0216364 0)
(1.05036 0.0265513 0)
(1.07239 0.0310055 0)
(1.10156 0.034855 0)
(1.0709 0.0332148 0)
(0.744987 0.0141187 0)
(0.154243 0.000467921 0)
(0.140848 -0.000322267 0)
(0.903012 -0.018757 0)
(1.09723 -0.0293107 0)
(1.09599 -0.0282852 0)
(1.06849 -0.0244786 0)
(1.04953 -0.0205908 0)
(1.03652 -0.0162505 0)
(1.02751 -0.0114108 0)
(1.0216 -0.00611077 0)
(1.01873 -0.000182385 0)
(1.01943 0.00581529 0)
(1.02353 0.0111786 0)
(1.03068 0.0159504 0)
(1.04134 0.0202295 0)
(1.05689 0.0240147 0)
(1.0799 0.0275534 0)
(1.10425 0.0304828 0)
(1.04045 0.0269043 0)
(0.680215 0.00979059 0)
(0.139541 0.000338315 0)
(0.13064 -0.000240239 0)
(0.855001 -0.0140331 0)
(1.08551 -0.0247052 0)
(1.10179 -0.0250063 0)
(1.07521 -0.0218217 0)
(1.05542 -0.0183725 0)
(1.04188 -0.0145464 0)
(1.0325 -0.0101637 0)
(1.02631 -0.00520482 0)
(1.02322 0.000312892 0)
(1.02388 0.00581478 0)
(1.02808 0.0107602 0)
(1.03545 0.0150463 0)
(1.04647 0.0187387 0)
(1.06263 0.0219844 0)
(1.08638 0.0249975 0)
(1.10419 0.0269078 0)
(1.00796 0.0217569 0)
(0.631263 0.00716674 0)
(0.128884 0.000259858 0)
(0.123248 -0.000171536 0)
(0.815692 -0.0102757 0)
(1.07101 -0.0200757 0)
(1.10471 -0.0213354 0)
(1.08065 -0.0188962 0)
(1.06063 -0.0159087 0)
(1.04683 -0.0124694 0)
(1.0371 -0.00861098 0)
(1.03059 -0.00421202 0)
(1.02727 0.000867527 0)
(1.02785 0.00598205 0)
(1.03212 0.0103323 0)
(1.03969 0.0139663 0)
(1.05093 0.017092 0)
(1.0673 0.0198409 0)
(1.09123 0.0222317 0)
(1.10107 0.0231286 0)
(0.976349 0.0171523 0)
(0.594206 0.00525108 0)
(0.120944 0.000195964 0)
(0.118025 -0.000125779 0)
(0.78502 -0.00731628 0)
(1.05618 -0.0156994 0)
(1.10653 -0.0173776 0)
(1.08558 -0.0152988 0)
(1.06535 -0.0127388 0)
(1.0514 -0.00992662 0)
(1.04161 -0.00664932 0)
(1.03497 -0.00283938 0)
(1.03149 0.00160775 0)
(1.03192 0.00604244 0)
(1.03611 0.00968537 0)
(1.04358 0.01259 0)
(1.05482 0.0149608 0)
(1.07124 0.0169905 0)
(1.09489 0.0189896 0)
(1.09598 0.0193206 0)
(0.947973 0.0132465 0)
(0.566488 0.0038273 0)
(0.115052 0.00015672 0)
(0.114539 -8.05833e-05 0)
(0.762292 -0.0045878 0)
(1.04219 -0.0113729 0)
(1.1075 -0.0134877 0)
(1.08958 -0.0120401 0)
(1.06862 -0.0100873 0)
(1.05431 -0.00787824 0)
(1.04446 -0.00510087 0)
(1.03783 -0.00162232 0)
(1.03429 0.00242968 0)
(1.03447 0.00635297 0)
(1.03837 0.0095385 0)
(1.0456 0.0118643 0)
(1.05682 0.0135204 0)
(1.07387 0.0148354 0)
(1.09728 0.0160458 0)
(1.08957 0.0155743 0)
(0.923629 0.00958333 0)
(0.54654 0.00254208 0)
(0.110743 0.000119682 0)
(0.112865 -1.69547e-05 0)
(0.747431 -0.00215765 0)
(1.0293 -0.00706779 0)
(1.10656 -0.00978513 0)
(1.09231 -0.009414 0)
(1.07176 -0.00793198 0)
(1.05773 -0.00593402 0)
(1.04805 -0.00333093 0)
(1.04141 -0.000183315 0)
(1.0376 0.00344083 0)
(1.03759 0.00687839 0)
(1.04123 0.00951056 0)
(1.04812 0.0114125 0)
(1.05888 0.0126798 0)
(1.07538 0.013455 0)
(1.09728 0.0135917 0)
(1.08114 0.0118411 0)
(0.9038 0.00619992 0)
(0.533767 0.00146029 0)
(0.108055 6.66431e-05 0)
(0.112637 2.53361e-05 0)
(0.739221 -0.000704036 0)
(1.01884 -0.00371467 0)
(1.10398 -0.006063 0)
(1.09382 -0.00610517 0)
(1.07404 -0.00503667 0)
(1.06025 -0.0034395 0)
(1.05066 -0.00119288 0)
(1.04401 0.0015487 0)
(1.04006 0.00468552 0)
(1.03965 0.00757323 0)
(1.04286 0.00949182 0)
(1.04929 0.0106267 0)
(1.05968 0.0111087 0)
(1.07573 0.0112822 0)
(1.09519 0.0109548 0)
(1.07179 0.00878764 0)
(0.888948 0.00417137 0)
(0.525882 0.00094432 0)
(0.106577 3.30732e-05 0)
(0.113158 4.59286e-05 0)
(0.734979 -0.000136844 0)
(1.01205 -0.00197506 0)
(1.10214 -0.00340972 0)
(1.09491 -0.00320353 0)
(1.07607 -0.00208787 0)
(1.06253 -0.000654769 0)
(1.05305 0.00123402 0)
(1.04629 0.00353874 0)
(1.04212 0.00617685 0)
(1.04124 0.00847952 0)
(1.04391 0.00977534 0)
(1.04983 0.0104007 0)
(1.05966 0.0105942 0)
(1.07528 0.0102224 0)
(1.09266 0.00947893 0)
(1.06365 0.00742743 0)
(0.877671 0.00364957 0)
(0.519803 0.000899397 0)
(0.105505 3.07665e-05 0)
(0.113894 4.56786e-05 0)
(0.732269 0.000116766 0)
(1.00745 -0.00141338 0)
(1.10152 -0.00253881 0)
(1.09672 -0.00189957 0)
(1.0782 -0.000703868 0)
(1.06469 0.000762906 0)
(1.0553 0.00274771 0)
(1.04858 0.00522675 0)
(1.04419 0.00793571 0)
(1.04272 0.0101225 0)
(1.0447 0.011197 0)
(1.05014 0.0113965 0)
(1.05932 0.0110909 0)
(1.07408 0.0107014 0)
(1.09012 0.00990236 0)
(1.05631 0.0078169 0)
(0.8672 0.00391343 0)
(0.513635 0.00103487 0)
(0.104291 4.66478e-05 0)
(0.114781 4.92723e-05 0)
(0.730269 0.000449771 0)
(1.00261 -0.00098928 0)
(1.10068 -0.00279259 0)
(1.09865 -0.00264465 0)
(1.08059 -0.00145423 0)
(1.06716 0.000468685 0)
(1.05786 0.00317611 0)
(1.05107 0.00647263 0)
(1.04625 0.0100039 0)
(1.04412 0.0128376 0)
(1.04529 0.0143575 0)
(1.04973 0.0148621 0)
(1.05848 0.0145472 0)
(1.07285 0.013688 0)
(1.08705 0.0124229 0)
(1.04732 0.00900857 0)
(0.855753 0.0042063 0)
(0.506974 0.00116902 0)
(0.102762 6.60957e-05 0)
(0.11595 5.71364e-05 0)
(0.72996 0.0011072 0)
(0.997168 0.000153279 0)
(1.09747 -0.00248117 0)
(1.09926 -0.00316532 0)
(1.08335 -0.002451 0)
(1.07066 -0.000151433 0)
(1.06168 0.00354466 0)
(1.05475 0.007954 0)
(1.0493 0.0126081 0)
(1.04634 0.016385 0)
(1.04657 0.0185828 0)
(1.05008 0.0195505 0)
(1.05738 0.019435 0)
(1.07045 0.0181733 0)
(1.08058 0.0152065 0)
(1.03469 0.00968051 0)
(0.843625 0.00425572 0)
(0.500122 0.00126953 0)
(0.100947 8.11113e-05 0)
(0.117638 7.83349e-05 0)
(0.731719 0.00179564 0)
(0.992831 0.00192642 0)
(1.09198 -0.000443463 0)
(1.09914 -0.00228174 0)
(1.08589 -0.00163825 0)
(1.0749 0.00108772 0)
(1.0664 0.0054904 0)
(1.05913 0.0106456 0)
(1.05291 0.0159832 0)
(1.04894 0.0201921 0)
(1.04811 0.0225514 0)
(1.05038 0.0233635 0)
(1.05579 0.0227619 0)
(1.06589 0.0207248 0)
(1.07017 0.0160023 0)
(1.0199 0.00948766 0)
(0.83202 0.00426077 0)
(0.493189 0.0013928 0)
(0.0988831 9.31181e-05 0)
(0.120053 0.000112208 0)
(0.736645 0.00271052 0)
(0.991947 0.00418837 0)
(1.08713 0.00307713 0)
(1.09776 0.00153442 0)
(1.08871 0.00218567 0)
(1.07975 0.00532728 0)
(1.07156 0.0098691 0)
(1.06383 0.0151251 0)
(1.05663 0.0203765 0)
(1.05138 0.0241431 0)
(1.04926 0.0257127 0)
(1.04989 0.0255854 0)
(1.05339 0.0242375 0)
(1.05896 0.020888 0)
(1.05793 0.0154748 0)
(1.00574 0.00923743 0)
(0.821325 0.00455266 0)
(0.485811 0.00161189 0)
(0.0965322 0.000108631 0)
(0.12336 0.000155513 0)
(0.745 0.0037227 0)
(0.994838 0.00637792 0)
(1.08574 0.00713697 0)
(1.09764 0.00714849 0)
(1.09194 0.00864377 0)
(1.08452 0.0119036 0)
(1.07663 0.0163556 0)
(1.06831 0.0213463 0)
(1.05986 0.0259529 0)
(1.05298 0.0286412 0)
(1.04919 0.0288934 0)
(1.04804 0.0273694 0)
(1.04894 0.0246105 0)
(1.0509 0.0204587 0)
(1.04622 0.0151661 0)
(0.993344 0.00963857 0)
(0.810912 0.00523172 0)
(0.477373 0.00193016 0)
(0.0937636 0.000128554 0)
(0.127705 0.000204373 0)
(0.756569 0.00486623 0)
(1.00186 0.00880102 0)
(1.08853 0.0112237 0)
(1.10028 0.0128838 0)
(1.09611 0.0156623 0)
(1.08955 0.0195999 0)
(1.08162 0.0242805 0)
(1.07241 0.0290488 0)
(1.06232 0.032844 0)
(1.05346 0.0341433 0)
(1.04762 0.0328172 0)
(1.04446 0.0298832 0)
(1.0431 0.0258207 0)
(1.04252 0.0211544 0)
(1.03562 0.0160659 0)
(0.98208 0.0109432 0)
(0.799628 0.00630977 0)
(0.467221 0.00237669 0)
(0.0904112 0.000157003 0)
(0.133405 0.00028003 0)
(0.771814 0.00644291 0)
(1.01281 0.0117617 0)
(1.09509 0.0156603 0)
(1.10591 0.0189382 0)
(1.10198 0.0232154 0)
(1.09538 0.0282439 0)
(1.08675 0.0334953 0)
(1.07611 0.0382508 0)
(1.06389 0.0413225 0)
(1.05261 0.0412184 0)
(1.04457 0.0382865 0)
(1.03938 0.0338672 0)
(1.03611 0.0287515 0)
(1.03376 0.0235266 0)
(1.02544 0.0183304 0)
(0.970643 0.013068 0)
(0.78643 0.00775673 0)
(0.454751 0.00293746 0)
(0.0863051 0.000192159 0)
(0.140949 0.000387629 0)
(0.791588 0.0086229 0)
(1.02776 0.0156095 0)
(1.10535 0.0209549 0)
(1.11463 0.0258623 0)
(1.10995 0.0317894 0)
(1.10236 0.0382036 0)
(1.09224 0.04435 0)
(1.07951 0.0493341 0)
(1.06458 0.0517745 0)
(1.05046 0.0502878 0)
(1.04001 0.0457622 0)
(1.03279 0.0398425 0)
(1.02786 0.0335811 0)
(1.02417 0.0275746 0)
(1.0147 0.0218765 0)
(0.957855 0.0159967 0)
(0.77038 0.00962874 0)
(0.439365 0.00363597 0)
(0.0812978 0.000235527 0)
(0.1511 0.000547443 0)
(0.81711 0.011742 0)
(1.04738 0.0207864 0)
(1.11954 0.0277348 0)
(1.12668 0.034498 0)
(1.12041 0.0423387 0)
(1.11091 0.0503725 0)
(1.09839 0.0576051 0)
(1.08274 0.0628827 0)
(1.0644 0.0646368 0)
(1.04698 0.0616508 0)
(1.03386 0.0554128 0)
(1.02457 0.0478986 0)
(1.01806 0.040288 0)
(1.01317 0.0332146 0)
(1.00248 0.0266472 0)
(0.942745 0.019758 0)
(0.750926 0.0119534 0)
(0.420648 0.00443968 0)
(0.0752774 0.000275608 0)
(0.165132 0.000814936 0)
(0.85043 0.0164851 0)
(1.07297 0.0281885 0)
(1.13828 0.0370292 0)
(1.14252 0.0461394 0)
(1.13372 0.0561826 0)
(1.12123 0.0659517 0)
(1.1052 0.0741957 0)
(1.08569 0.0795676 0)
(1.06323 0.080362 0)
(1.04206 0.0755975 0)
(1.02601 0.0674181 0)
(1.01453 0.0581156 0)
(1.00637 0.0489244 0)
(1.00022 0.0404989 0)
(0.988054 0.0327339 0)
(0.924433 0.02447 0)
(0.727256 0.0148141 0)
(0.398004 0.00542296 0)
(0.0681041 0.00032404 0)
(0.185275 0.00129095 0)
(0.894917 0.0240971 0)
(1.10675 0.0394514 0)
(1.16273 0.0506133 0)
(1.16269 0.0627891 0)
(1.14987 0.0751785 0)
(1.133 0.0864466 0)
(1.11229 0.0952405 0)
(1.08799 0.100131 0)
(1.06076 0.0993856 0)
(1.03544 0.0923833 0)
(1.01626 0.0819532 0)
(1.00244 0.0706324 0)
(0.99248 0.0596472 0)
(0.98486 0.0496395 0)
(0.97072 0.0404047 0)
(0.901937 0.0304091 0)
(0.698226 0.0184288 0)
(0.370704 0.00664725 0)
(0.0596735 0.000373773 0)
(0.214971 0.0023696 0)
(0.956236 0.0376011 0)
(1.15085 0.0583714 0)
(1.1942 0.0722873 0)
(1.18711 0.0875791 0)
(1.16829 0.101771 0)
(1.14546 0.113613 0)
(1.11891 0.121893 0)
(1.08901 0.125251 0)
(1.0565 0.122065 0)
(1.0268 0.112205 0)
(1.00436 0.0991744 0)
(0.988082 0.0856357 0)
(0.97615 0.0727263 0)
(0.966752 0.0610268 0)
(0.949946 0.0501987 0)
(0.874211 0.037977 0)
(0.662726 0.0230236 0)
(0.338771 0.0082443 0)
(0.0502518 0.000406619 0)
(0.255986 0.00897269 -1.43299e-20)
(1.03864 0.0655266 -1.11991e-20)
(1.20345 0.0909388 3.18382e-21)
(1.23042 0.10785 0)
(1.21339 0.124405 1.21392e-35)
(1.18702 0.138377 -7.8987e-24)
(1.15713 0.149081 -1.01227e-21)
(1.12397 0.155464 0)
(1.08792 0.156271 4.34469e-35)
(1.04964 0.149957 -3.39908e-21)
(1.01506 0.136901 0)
(0.988892 0.121168 -4.97669e-21)
(0.96965 0.105421 -1.52807e-20)
(0.955189 0.0907064 -7.41173e-21)
(0.943317 0.077608 -2.34259e-21)
(0.922928 0.0654999 -1.42031e-21)
(0.838378 0.0509563 0)
(0.617303 0.0315233 1.01877e-21)
(0.301207 0.0126293 1.20733e-21)
(0.04169 0.00140139 2.13942e-20)
(0.28279 0.0252303 -2.53599e-20)
(1.10567 0.1101 5.07189e-22)
(1.24807 0.138951 -1.49262e-21)
(1.26287 0.156972 0)
(1.23691 0.17182 2.64077e-21)
(1.20321 0.184028 1.70339e-21)
(1.16633 0.192805 -5.41753e-22)
(1.12643 0.197055 -5.33148e-21)
(1.08383 0.195388 0)
(1.03899 0.186211 1.44229e-20)
(0.998351 0.170333 1.61533e-20)
(0.967123 0.152312 5.23868e-21)
(0.943615 0.134757 2.08432e-20)
(0.925395 0.118494 3.08219e-20)
(0.909646 0.104018 0)
(0.883416 0.0906703 4.59814e-20)
(0.792955 0.0736938 6.71364e-20)
(0.570622 0.0490088 7.49324e-20)
(0.272823 0.0227206 -8.66868e-20)
(0.0365334 0.00314099 -1.59573e-21)
(0.280076 0.0409623 0)
(1.14509 0.167625 -7.6874e-21)
(1.28034 0.199078 0)
(1.288 0.215791 1.26755e-20)
(1.25524 0.227168 0)
(1.21523 0.235953 7.0868e-21)
(1.1721 0.241467 2.98176e-22)
(1.126 0.242546 -7.32113e-21)
(1.07724 0.237726 -1.55847e-21)
(1.02632 0.225349 6.94391e-21)
(0.980162 0.206662 3.79489e-20)
(0.944376 0.18667 -2.94374e-22)
(0.917056 0.167885 -1.57204e-20)
(0.895525 0.150927 -3.06821e-20)
(0.876855 0.13598 3.72732e-20)
(0.84862 0.122049 -6.70791e-20)
(0.763665 0.102804 -9.1884e-21)
(0.557546 0.0730118 0)
(0.281313 0.0370015 9.92538e-23)
(0.0418838 0.0059275 0)
(0.271414 0.054636 -1.89857e-19)
(1.16387 0.228114 7.85482e-20)
(1.3013 0.264654 4.2321e-20)
(1.30452 0.279361 -8.21781e-21)
(1.267 0.286876 1.25842e-20)
(1.22223 0.291617 -1.67811e-20)
(1.17407 0.293286 -2.66369e-22)
(1.12276 0.290638 0)
(1.06865 0.282223 -2.63438e-20)
(1.01226 0.266371 0)
(0.961302 0.24487 -1.9331e-20)
(0.92172 0.223033 -2.75428e-20)
(0.89137 0.203238 -1.76971e-20)
(0.867389 0.185875 -2.29484e-20)
(0.846856 0.170852 0)
(0.818612 0.156696 0)
(0.741673 0.136568 -6.21176e-20)
(0.557066 0.10183 1.24092e-20)
(0.295727 0.0548834 -7.22025e-21)
(0.0487665 0.00954783 -8.4328e-21)
(0.262662 0.0668582 1.39899e-19)
(1.16984 0.288136 0)
(1.31276 0.331092 -1.18138e-19)
(1.31334 0.344151 -3.06827e-20)
(1.27252 0.347937 -2.3761e-20)
(1.22424 0.348718 0)
(1.17217 0.346494 -3.90314e-21)
(1.11665 0.340012 6.06297e-21)
(1.0581 0.327829 1.12279e-20)
(0.997091 0.308357 3.55477e-20)
(0.942094 0.283914 0)
(0.899512 0.260204 -6.01684e-20)
(0.866968 0.239365 -3.87227e-20)
(0.84138 0.221585 -2.33934e-20)
(0.819841 0.206572 1.542e-19)
(0.792491 0.192548 1.89757e-20)
(0.722925 0.17193 9.06844e-20)
(0.555511 0.131863 -4.37662e-19)
(0.304374 0.0734308 2.60122e-19)
(0.0534051 0.013274 -3.14222e-19)
(0.254937 0.0778728 1.47389e-19)
(1.16781 0.345745 -2.74537e-20)
(1.31713 0.396513 2.07101e-20)
(1.31608 0.408292 5.65469e-20)
(1.27289 0.408612 3.50429e-20)
(1.22195 0.405687 1.66888e-21)
(1.16683 0.399735 3.63452e-21)
(1.10789 0.389526 3.80479e-21)
(1.04565 0.37362 -2.48103e-20)
(0.980791 0.350485 0)
(0.922407 0.322937 -2.57095e-20)
(0.877559 0.297144 -1.5209e-21)
(0.843516 0.275062 -4.34703e-20)
(0.81697 0.256628 0)
(0.795068 0.241353 -3.37013e-20)
(0.769025 0.227178 -8.21572e-20)
(0.705682 0.205498 2.27466e-19)
(0.549685 0.159903 -2.26305e-19)
(0.305874 0.0899719 3.21234e-19)
(0.0551093 0.0164383 -3.34963e-19)
(0.248707 0.088098 -4.21852e-22)
(1.16098 0.400397 3.35128e-20)
(1.31625 0.459721 9.87398e-20)
(1.31417 0.470661 -3.45077e-20)
(1.26925 0.467899 1.99655e-20)
(1.21625 0.461585 0)
(1.15867 0.452156 9.85545e-21)
(1.0969 0.438404 -2.21564e-21)
(1.03152 0.418914 -1.10478e-20)
(0.963363 0.392111 0)
(0.902149 0.361324 -2.50097e-20)
(0.855408 0.33315 -3.55547e-20)
(0.820262 0.309502 4.76473e-20)
(0.793237 0.290034 -3.06394e-20)
(0.771431 0.274044 -1.48761e-19)
(0.746736 0.259298 9.16595e-20)
(0.687943 0.235967 2.8977e-20)
(0.539551 0.184523 0)
(0.302054 0.103824 -3.12666e-19)
(0.0548019 0.0189345 -1.14995e-20)
(0.243866 0.0978431 2.41051e-20)
(1.15138 0.451955 -3.84971e-20)
(1.31153 0.520187 -5.39733e-20)
(1.30875 0.530634 -1.06353e-19)
(1.26252 0.525164 9.64648e-20)
(1.20789 0.515822 -5.23883e-20)
(1.14832 0.503201 -2.07837e-20)
(1.08418 0.48616 -2.76039e-21)
(1.01607 0.46326 1.19015e-20)
(0.944921 0.432861 -8.70748e-20)
(0.881174 0.398735 -3.10203e-20)
(0.832888 0.367884 0)
(0.797039 0.342251 5.21916e-20)
(0.769859 0.321376 6.473e-20)
(0.748339 0.30434 7.98975e-20)
(0.724767 0.288555 -1.00099e-19)
(0.669063 0.263163 -3.0159e-20)
(0.525776 0.205838 3.57087e-20)
(0.2942 0.11503 0)
(0.0532702 0.0208161 -2.50732e-20)
(0.240202 0.107241 -2.79434e-19)
(1.14039 0.500566 1.76114e-19)
(1.30412 0.57768 5.9351e-20)
(1.30076 0.587865 -8.10433e-20)
(1.25349 0.580058 5.74949e-20)
(1.19758 0.568018 -3.9037e-21)
(1.13635 0.552534 2.05587e-20)
(1.07016 0.532487 -1.5672e-21)
(0.999636 0.506394 -2.00711e-20)
(0.925788 0.472539 1.74204e-22)
(0.859727 0.435009 -9.22339e-20)
(0.810005 0.401285 9.11074e-20)
(0.773572 0.373324 -5.86241e-20)
(0.746332 0.350681 7.31483e-20)
(0.72513 0.332243 0)
(0.702453 0.315046 -5.43952e-20)
(0.648821 0.287044 -1.20841e-21)
(0.509113 0.223764 -1.56351e-19)
(0.283251 0.123703 -2.30794e-20)
(0.0506621 0.0220218 0)
(0.237524 0.116398 0)
(1.12884 0.546447 1.91139e-19)
(1.29478 0.63212 1.3815e-19)
(1.29091 0.64224 9.13411e-20)
(1.2428 0.632391 5.55865e-20)
(1.18583 0.617971 0)
(1.12324 0.599933 1.86447e-20)
(1.05529 0.577177 -1.21359e-21)
(0.982596 0.548165 4.25445e-20)
(0.906263 0.511021 -1.05401e-20)
(0.837852 0.470057 -6.77383e-20)
(0.786567 0.433267 4.54933e-20)
(0.749456 0.402731 -1.96751e-21)
(0.722219 0.377973 7.7028e-20)
(0.701357 0.3578 5.0555e-20)
(0.679407 0.338881 -1.18539e-19)
(0.627049 0.307786 1.43514e-19)
(0.489953 0.238384 4.28455e-20)
(0.269877 0.12997 1.77021e-19)
(0.0472739 0.0225385 -4.74041e-19)
(0.235715 0.12543 -7.15735e-20)
(1.11724 0.589775 1.10136e-19)
(1.28415 0.683571 -8.58295e-20)
(1.27975 0.693729 -1.05808e-19)
(1.23095 0.682075 0)
(1.17313 0.66556 4.49623e-20)
(1.10938 0.645273 -5.41977e-20)
(1.0399 0.620106 -1.75743e-21)
(0.965214 0.588459 0)
(0.886386 0.548276 -1.64957e-19)
(0.81561 0.503951 1.84951e-19)
(0.762745 0.46393 0)
(0.72476 0.43051 6.95414e-20)
(0.697423 0.40327 -1.9803e-21)
(0.676886 0.38105 -1.59985e-19)
(0.65547 0.360087 6.29378e-20)
(0.603738 0.325495 0)
(0.468655 0.249796 2.3245e-19)
(0.254538 0.133881 0)
(0.0433437 0.0224849 -2.26042e-19)
(0.234571 0.134372 7.97681e-20)
(1.10586 0.630806 1.25731e-19)
(1.27281 0.732027 -9.00037e-20)
(1.26773 0.742365 0)
(1.21837 0.729109 7.60513e-20)
(1.15985 0.710753 0)
(1.09512 0.688484 7.0232e-20)
(1.02425 0.661201 8.32455e-21)
(0.947683 0.627233 3.82426e-21)
(0.866434 0.584291 -8.14971e-20)
(0.793182 0.536762 1.78623e-20)
(0.738552 0.493494 0)
(0.699568 0.456992 -1.47959e-19)
(0.671877 0.426982 2.05083e-21)
(0.651554 0.402376 0)
(0.630441 0.378993 2.43774e-21)
(0.578722 0.340349 2.11611e-19)
(0.445175 0.257951 -2.0358e-19)
(0.237384 0.135406 6.01147e-20)
(0.0388918 0.0217839 0)
(0.233754 0.143093 0)
(1.09488 0.669599 1.40534e-19)
(1.26097 0.777665 1.05365e-19)
(1.25518 0.788201 -2.20698e-21)
(1.20537 0.773521 4.74057e-20)
(1.14628 0.753552 1.05887e-19)
(1.0807 0.729555 -2.27504e-20)
(1.0086 0.700442 3.84989e-21)
(0.930297 0.664473 2.47127e-20)
(0.846649 0.619109 -1.2675e-19)
(0.770718 0.568613 -3.16738e-21)
(0.713966 0.522066 -6.02366e-20)
(0.673744 0.482276 2.42778e-19)
(0.645535 0.449268 -2.45073e-21)
(0.625294 0.421968 -1.26369e-19)
(0.604232 0.395759 -2.31223e-19)
(0.551993 0.35248 0)
(0.419591 0.262997 0)
(0.218525 0.13444 6.59746e-20)
(0.03411 0.0204607 -3.86111e-20)
(0.233497 0.151701 9.90791e-20)
(1.08444 0.706147 -3.0769e-19)
(1.24886 0.820592 -1.12862e-19)
(1.24238 0.831312 0)
(1.19221 0.815373 -1.52389e-21)
(1.13266 0.793992 1.26608e-19)
(1.06638 0.768503 -7.51027e-20)
(0.993196 0.737833 -3.64098e-20)
(0.913266 0.700184 2.38894e-20)
(0.827196 0.652763 -9.70152e-20)
(0.748404 0.599603 -1.56424e-19)
(0.689141 0.549884 1.60619e-19)
(0.647227 0.506629 0)
(0.618283 0.470277 -5.68535e-20)
(0.597974 0.439985 -1.389e-19)
(0.576725 0.410495 -1.67704e-19)
(0.523432 0.361856 -2.0365e-19)
(0.391812 0.264789 6.08874e-20)
(0.197913 0.130711 -3.57131e-20)
(0.0289457 0.0184794 4.15468e-22)
(0.233279 0.160104 0)
(1.0747 0.740576 0)
(1.2367 0.860919 2.50617e-21)
(1.22954 0.871793 0)
(1.17909 0.854749 -1.77635e-19)
(1.11918 0.83213 -1.11465e-19)
(1.05233 0.805355 0)
(0.978192 0.773382 -8.31854e-21)
(0.896733 0.734363 2.67783e-20)
(0.808269 0.685278 -2.22866e-19)
(0.726422 0.629844 0)
(0.664262 0.577126 -1.02922e-19)
(0.620154 0.53035 -3.00351e-21)
(0.590046 0.49037 -2.47803e-21)
(0.569479 0.45664 1.4835e-19)
(0.547825 0.423289 -4.11332e-22)
(0.492948 0.368425 -4.42708e-19)
(0.361617 0.263069 1.32722e-19)
(0.175622 0.124229 3.93848e-20)
(0.0234409 0.0158819 0)
(0.233066 0.168251 -3.64034e-19)
(1.06538 0.773234 -1.88806e-19)
(1.22462 0.898759 -2.82276e-19)
(1.21681 0.909752 3.94392e-19)
(1.16615 0.891714 -3.32575e-19)
(1.10598 0.868024 0)
(1.03866 0.840152 -6.30715e-20)
(0.963705 0.807111 1.57607e-20)
(0.880845 0.767027 3.72959e-21)
(0.790051 0.716689 1.77432e-20)
(0.704962 0.659412 1.95671e-19)
(0.639479 0.604016 -3.51435e-20)
(0.592656 0.55376 -1.50007e-19)
(0.560802 0.509844 -6.7674e-20)
(0.539659 0.472114 8.27149e-20)
(0.517347 0.434074 -3.26351e-22)
(0.460467 0.371938 1.21511e-19)
(0.32893 0.257531 -2.88099e-19)
(0.15189 0.11493 3.42905e-19)
(0.0178836 0.0128397 4.96918e-20)
(0.232737 0.176073 1.33631e-19)
(1.05648 0.804156 -1.03298e-19)
(1.21274 0.934232 5.95756e-21)
(1.20429 0.945314 2.22549e-19)
(1.15351 0.92638 7.75508e-20)
(1.09316 0.901744 2.22093e-19)
(1.0255 0.872945 -2.76484e-20)
(0.949846 0.839045 7.46397e-20)
(0.865723 0.798173 -7.02767e-21)
(0.77267 0.746984 -1.20436e-19)
(0.684232 0.688371 0)
(0.61503 0.630711 -1.58489e-19)
(0.564818 0.57715 2.17974e-19)
(0.530473 0.529059 0)
(0.508232 0.486569 -1.77106e-19)
(0.484999 0.442656 1.0989e-19)
(0.425913 0.371864 -1.31401e-19)
(0.294538 0.247975 -1.57795e-19)
(0.127718 0.103281 -2.79168e-19)
(0.0124855 0.00949445 -2.17809e-19)
(0.232602 0.18365 -1.46869e-19)
(1.04784 0.833341 1.10438e-19)
(1.20111 0.967426 2.6286e-19)
(1.19208 0.978569 3.0575e-19)
(1.14123 0.958835 -1.62391e-19)
(1.08079 0.933379 1.52785e-19)
(1.0129 0.903789 -8.61015e-20)
(0.936685 0.869224 9.11237e-20)
(0.851432 0.827822 2.08765e-21)
(0.756244 0.776166 1.13771e-19)
(0.664411 0.716742 4.1487e-19)
(0.591162 0.657351 0)
(0.536892 0.600861 0)
(0.499028 0.548534 -7.83333e-20)
(0.474754 0.500396 0)
(0.450137 0.448616 2.39426e-19)
(0.38906 0.367077 2.87273e-19)
(0.259304 0.233581 0)
(0.10444 0.089541 0)
(0.0076745 0.00618561 2.37125e-19)
(0.232175 0.190744 1.61877e-19)
(1.03948 0.860805 1.32024e-19)
(1.18979 0.998468 1.88863e-19)
(1.18022 1.00965 -2.72657e-19)
(1.12939 0.989183 -1.80819e-19)
(1.06893 0.963003 -2.02166e-19)
(1.00092 0.932747 1.27378e-19)
(0.924265 0.89768 3.87038e-22)
(0.838032 0.855976 -4.79077e-21)
(0.740858 0.804214 -5.97289e-21)
(0.645671 0.744518 2.0998e-19)
(0.568123 0.683999 0)
(0.509207 0.625124 2.20292e-19)
(0.4666 0.568862 1.65212e-19)
(0.438657 0.51426 4.2273e-19)
(0.411438 0.451713 1.29289e-19)
(0.34897 0.355457 -1.58565e-19)
(0.225135 0.211974 -9.30605e-20)
(0.0860686 0.0737259 0)
(0.00479865 0.00353191 2.57709e-19)
(0.231953 0.197749 -3.55891e-19)
(1.03139 0.886661 0)
(1.1788 1.02743 2.10806e-19)
(1.16876 1.03863 -2.23225e-19)
(1.11802 1.01752 2.04331e-19)
(1.05761 0.990703 2.94642e-19)
(0.98958 0.959878 -2.94067e-19)
(0.912605 0.92445 3.42357e-21)
(0.825549 0.882644 0)
(0.726573 0.831086 -1.03579e-19)
(0.628156 0.771654 -4.33825e-19)
(0.546178 0.71066 2.15161e-20)
(0.482159 0.650098 2.99507e-19)
(0.433545 0.590694 0)
(0.399454 0.5294 2.85638e-19)
(0.366733 0.452718 0)
(0.301914 0.33442 0)
(0.192415 0.174935 -1.03654e-19)
(0.0868689 0.0456891 0)
(0.0252778 0.0107498 6.96269e-20)
(0.231417 0.204122 -3.88734e-19)
(1.02353 0.911214 0)
(1.16812 1.05453 3.41112e-19)
(1.15766 1.06575 0)
(1.10708 1.04409 -1.10746e-19)
(1.04677 1.01676 0)
(0.978816 0.985485 -2.18457e-20)
(0.901612 0.949865 -1.56051e-20)
(0.813869 0.908178 -1.40533e-21)
(0.713245 0.857156 -9.96451e-20)
(0.611743 0.798554 1.1226e-20)
(0.525232 0.737867 1.78284e-19)
(0.455654 0.676313 2.89992e-19)
(0.3997 0.615048 4.15843e-20)
(0.356155 0.547967 2.23837e-19)
(0.312623 0.454903 0)
(0.236216 0.305639 3.46658e-19)
(0.134794 0.109565 -2.04986e-19)
(0.0543068 0.0561947 2.35781e-19)
(-0.0662662 0.398587 -2.75917e-19)
(0.230877 0.210226 3.16785e-19)
(1.01569 0.934361 5.012e-19)
(1.15767 1.08007 0)
(1.1468 1.09142 4.85979e-21)
(1.09642 1.06945 3.00575e-19)
(1.03617 1.04181 -5.68633e-19)
(0.968352 1.01033 -1.29062e-19)
(0.890926 0.974827 0)
(0.802525 0.933629 -3.25184e-20)
(0.700293 0.883686 -2.55173e-21)
(0.59564 0.826653 0)
(0.5043 0.767357 0)
(0.428548 0.705666 2.54215e-19)
(0.364141 0.643847 -1.30093e-19)
(0.306926 0.573937 -2.23406e-19)
(0.24473 0.466328 0)
(0.131663 0.286815 1.76561e-19)
(0.0222171 0.433475 -2.06788e-19)
(0.0448522 1.78586 -1.07017e-19)
(0.0788112 2.75802 -1.39188e-19)
(0.230225 0.215488 -2.31699e-19)
(1.00811 0.956227 -6.32163e-19)
(1.14745 1.10404 1.96475e-19)
(1.13618 1.11548 1.89117e-19)
(1.08606 1.09338 0)
(1.02585 1.0656 -4.06699e-19)
(0.958353 1.03412 -2.15592e-19)
(0.880703 0.998918 1.02418e-20)
(0.791746 0.958489 -4.40071e-21)
(0.688047 0.910051 7.18665e-20)
(0.580384 0.855225 1.90811e-19)
(0.4843 0.798493 1.82259e-19)
(0.402087 0.737635 2.49196e-19)
(0.329269 0.675407 -2.96536e-19)
(0.257942 0.609114 -3.30365e-19)
(0.168551 0.497232 0)
(0.0708743 0.804468 0)
(0.128841 2.47397 9.15029e-20)
(0.132992 3.16547 0)
(0.135012 3.37339 2.08553e-19)
(0.231934 0.220534 0)
(1.00133 0.976921 0)
(1.13725 1.12631 0)
(1.12558 1.13774 5.26211e-20)
(1.07571 1.11568 2.68143e-19)
(1.01561 1.08798 -3.09947e-19)
(0.948715 1.05674 -1.54164e-19)
(0.870898 1.02204 1.15786e-20)
(0.781498 0.982628 -7.36375e-20)
(0.676533 0.936109 -1.02228e-20)
(0.566115 0.884129 3.40774e-19)
(0.465547 0.83101 -2.14496e-20)
(0.376822 0.772683 2.79121e-20)
(0.296702 0.707168 4.224e-20)
(0.213993 0.650993 6.39265e-22)
(0.134621 0.905232 1.71569e-21)
(0.175911 2.60785 -4.57144e-19)
(0.196106 3.2676 -1.71476e-19)
(0.179098 3.42356 7.92221e-20)
(0.160604 3.45013 -8.10726e-20)
(0.149909 0.17801 1.32258e-19)
(0.988245 0.999411 0)
(1.12683 1.14706 -3.8328e-19)
(1.11575 1.1588 -4.87271e-19)
(1.06611 1.1371 5.58053e-19)
(1.00631 1.10959 3.29024e-19)
(0.93934 1.07832 1.80065e-19)
(0.861598 1.04431 -1.96946e-19)
(0.771941 1.00617 7.78737e-20)
(0.666076 0.961884 0)
(0.553352 0.913303 1.44112e-19)
(0.44879 0.86447 -1.34789e-19)
(0.353632 0.812625 0)
(0.267204 0.742377 3.68858e-20)
(0.196137 0.837675 8.86251e-20)
(0.184278 2.27112 -1.10275e-19)
(0.268342 3.30479 1.22693e-19)
(0.244286 3.44393 5.81918e-20)
(0.204023 3.47015 6.57678e-20)
(0.176774 3.48247 7.9402e-20)
(0.272853 0.255559 -2.46188e-19)
(0.971103 1.00605 0)
(1.10748 1.16974 3.93498e-19)
(1.10192 1.18978 5.06138e-19)
(1.0506 1.16833 -5.7383e-19)
(0.990631 1.14134 -3.49301e-19)
(0.9232 1.11143 -2.76678e-19)
(0.84528 1.0786 -1.46067e-20)
(0.754944 1.04263 -1.10112e-19)
(0.64733 1.00235 -8.95135e-21)
(0.531117 0.960512 5.15562e-21)
(0.420561 0.920334 1.01867e-19)
(0.312842 0.882651 2.24553e-20)
(0.243436 0.979046 -3.27584e-20)
(0.272438 2.1526 -7.75453e-20)
(0.347426 3.30339 5.28668e-20)
(0.334984 3.48327 -4.54547e-20)
(0.292926 3.50926 -2.50299e-20)
(0.250184 3.5406 1.06487e-20)
(0.189236 3.53233 7.3125e-23)
(0.25958 0.251399 0)
(0.967375 1.02637 1.03474e-19)
(1.09925 1.19147 -7.79794e-20)
(1.092 1.2115 -5.64595e-20)
(1.04096 1.19008 -3.76978e-19)
(0.981208 1.1633 3.41061e-19)
(0.913669 1.13352 1.861e-19)
(0.835951 1.10146 -1.52929e-20)
(0.745713 1.06699 1.35725e-19)
(0.637815 1.02958 -1.42763e-20)
(0.520486 0.992709 -1.70876e-19)
(0.407864 0.959342 1.44505e-20)
(0.302399 0.944115 -1.92134e-20)
(0.28785 1.37992 -2.6771e-20)
(0.384991 2.98672 1.86668e-20)
(0.423423 3.4718 8.61471e-22)
(0.374333 3.55037 -4.15445e-20)
(0.332443 3.57816 -5.71089e-20)
(0.274972 3.6049 8.56184e-20)
(0.205052 3.59913 3.54172e-20)
(0.242497 0.248848 2.53715e-19)
(0.961779 1.04909 6.96796e-19)
(1.09036 1.21499 -2.2278e-19)
(1.08163 1.23459 -2.14441e-19)
(1.03083 1.213 0)
(0.97136 1.18622 4.98829e-19)
(0.904026 1.15664 2.83685e-19)
(0.826798 1.1253 -1.60598e-20)
(0.736997 1.09235 1.41237e-20)
(0.629336 1.05794 7.7376e-20)
(0.511632 1.02618 -4.45904e-20)
(0.398633 1.00046 -9.48681e-20)
(0.308412 1.0488 -1.23543e-19)
(0.366018 1.96625 1.38168e-19)
(0.484078 3.34389 6.18259e-20)
(0.480185 3.54664 0)
(0.421812 3.59948 0)
(0.382338 3.65079 8.02632e-20)
(0.305585 3.72555 0)
(0.218873 3.69153 1.76918e-19)
(0.230756 0.249321 -3.70404e-19)
(0.954224 1.07264 -5.79746e-19)
(1.08001 1.23949 0)
(1.07003 1.25841 5.58252e-21)
(1.01953 1.23639 -3.6679e-19)
(0.960457 1.20946 7.40906e-19)
(0.893666 1.18009 1.90668e-19)
(0.817148 1.14936 -1.98512e-20)
(0.728049 1.11781 1.50469e-19)
(0.621048 1.0863 -8.04163e-21)
(0.503774 1.05974 0)
(0.392526 1.04328 0)
(0.336328 1.23077 -8.6595e-20)
(0.465192 2.62506 2.72606e-20)
(0.572876 3.48447 -1.25185e-20)
(0.533012 3.59033 0)
(0.490838 3.65284 1.82355e-19)
(0.438128 3.73962 -2.83311e-19)
(0.384706 3.74721 -2.62731e-19)
(0.255887 3.73372 2.64215e-20)