/*--------------------------------*- C++ -*----------------------------------*\
  =========                 |
  \\      /  F ield         | OpenFOAM: The Open Source CFD Toolbox
   \\    /   O peration     | Website:  https://openfoam.org
    \\  /    A nd           | Version:  10
     \\/     M anipulation  |
\*---------------------------------------------------------------------------*/
FoamFile
{
    format      ascii;
    class       volScalarField;
    location    "33";
    object      p;
}
// * * * * * * * * * * * * * * * * * * * * * * * * * * * * * * * * * * * * * //

dimensions      [0 2 -2 0 0 0 0];

internalField   nonuniform List<scalar> 
8800
(
1.34012
1.29233
1.25364
1.22463
1.20376
1.18891
1.17828
1.17077
1.1659
1.16378
1.16496
1.16907
1.17566
1.18493
1.19767
1.21539
1.24015
1.27408
1.31662
1.37532
1.17138
1.17906
1.18652
1.18983
1.18832
1.18322
1.17672
1.17061
1.16585
1.16294
1.16258
1.165
1.16941
1.1753
1.18203
1.18828
1.1919
1.19115
1.18571
1.17701
1.14981
1.15596
1.16009
1.16302
1.16506
1.16564
1.16451
1.16237
1.1603
1.15931
1.16017
1.16247
1.1652
1.16732
1.16789
1.16666
1.16429
1.16088
1.15631
1.15255
1.14404
1.14669
1.14943
1.15183
1.15345
1.15459
1.1553
1.15537
1.15502
1.15488
1.15552
1.15659
1.15735
1.15735
1.15669
1.15555
1.15371
1.15111
1.14869
1.14719
1.13871
1.14014
1.14191
1.14393
1.1457
1.14702
1.14798
1.14873
1.14927
1.14973
1.15026
1.15064
1.15064
1.15027
1.1495
1.1482
1.14646
1.14458
1.14325
1.14242
1.13371
1.13463
1.13587
1.13743
1.13905
1.14055
1.1418
1.14281
1.1437
1.14447
1.14501
1.14519
1.14503
1.14449
1.14352
1.14224
1.14085
1.13955
1.1387
1.13815
1.1289
1.12957
1.13053
1.13183
1.13323
1.13467
1.13607
1.13734
1.13844
1.13941
1.14005
1.14024
1.14
1.13935
1.13842
1.13738
1.13628
1.1353
1.13469
1.13429
1.12424
1.12475
1.12554
1.12668
1.12795
1.12931
1.13072
1.13214
1.13346
1.13463
1.13542
1.13566
1.13543
1.13486
1.1341
1.13324
1.13236
1.13159
1.13113
1.13082
1.11967
1.12008
1.12074
1.12176
1.12296
1.12428
1.12568
1.12717
1.12867
1.13007
1.13105
1.13143
1.13133
1.13093
1.13035
1.12966
1.12894
1.12835
1.128
1.12775
1.11512
1.11545
1.11602
1.11697
1.11813
1.11943
1.12086
1.12243
1.12408
1.12573
1.12696
1.12756
1.12768
1.12748
1.12707
1.12656
1.12599
1.12554
1.12526
1.12506
1.11052
1.11078
1.1113
1.11221
1.11336
1.11469
1.11619
1.11786
1.1197
1.1216
1.12317
1.12409
1.12448
1.12449
1.12427
1.12391
1.12348
1.12314
1.12293
1.12276
1.1058
1.10602
1.1065
1.1074
1.10858
1.10998
1.11159
1.11345
1.11555
1.11782
1.11978
1.12105
1.12173
1.12198
1.12195
1.12174
1.12144
1.1212
1.12104
1.1209
1.10091
1.10109
1.10154
1.10246
1.10371
1.10521
1.10698
1.10906
1.11149
1.11421
1.11667
1.11838
1.1194
1.11993
1.12013
1.12009
1.11992
1.11976
1.11966
1.11954
1.09578
1.09592
1.09636
1.09732
1.09867
1.10031
1.10227
1.10464
1.10747
1.11074
1.11381
1.11605
1.11752
1.11839
1.11885
1.11901
1.11898
1.11891
1.11885
1.11875
1.09034
1.09045
1.09089
1.09191
1.09339
1.09522
1.09746
1.10021
1.10356
1.1075
1.11134
1.11426
1.11624
1.1175
1.11825
1.11863
1.11876
1.11879
1.11878
1.11869
1.08452
1.08458
1.08503
1.08612
1.08775
1.08981
1.09238
1.09561
1.09963
1.10447
1.10922
1.1129
1.11551
1.11728
1.11841
1.11906
1.11939
1.11953
1.11956
1.11948
1.0781
1.07816
1.07862
1.07976
1.08156
1.0839
1.08688
1.09068
1.09549
1.10136
1.10728
1.11198
1.11537
1.11774
1.11937
1.12041
1.12101
1.12129
1.12137
1.1213
1.07085
1.07089
1.07139
1.07263
1.07467
1.07738
1.08092
1.08552
1.09139
1.09862
1.10592
1.11177
1.11606
1.11915
1.12135
1.12284
1.12376
1.12421
1.12433
1.12426
1.06241
1.06244
1.063
1.06438
1.0667
1.06989
1.07412
1.07967
1.08683
1.0957
1.10474
1.11203
1.11745
1.12142
1.12432
1.12634
1.12765
1.12829
1.12844
1.12836
1.05219
1.05222
1.05288
1.05451
1.05728
1.06115
1.06634
1.07321
1.08206
1.093
1.1041
1.11305
1.11976
1.12471
1.1284
1.13101
1.13273
1.13354
1.13373
1.13363
1.0396
1.03963
1.04044
1.04247
1.04591
1.05074
1.05723
1.06581
1.07681
1.0903
1.10389
1.11484
1.12304
1.12913
1.13371
1.13698
1.1391
1.1401
1.14032
1.1402
1.02389
1.02393
1.02498
1.02759
1.032
1.0382
1.04648
1.05734
1.07109
1.08772
1.10427
1.11752
1.12743
1.13484
1.14039
1.14438
1.14696
1.14814
1.1484
1.14826
1.00397
1.00403
1.00545
1.00897
1.01482
1.02296
1.03374
1.04764
1.0649
1.08535
1.10538
1.12125
1.1331
1.14197
1.14865
1.15347
1.15653
1.15789
1.15818
1.15801
0.978079
0.978191
0.980253
0.985211
0.993324
1.00434
1.01865
1.03663
1.05833
1.08335
1.10736
1.12617
1.14017
1.15069
1.15862
1.16439
1.16797
1.1695
1.16981
1.1696
0.943168
0.943417
0.946758
0.95438
0.966284
0.981769
1.00113
1.0245
1.05165
1.082
1.11045
1.13245
1.14878
1.16107
1.17044
1.17723
1.18131
1.183
1.18329
1.18305
0.893499
0.894625
0.901298
0.914367
0.93283
0.955203
0.981538
1.01171
1.04531
1.08161
1.11481
1.14018
1.15896
1.17317
1.18403
1.19185
1.19645
1.19826
1.1985
1.19821
0.820292
0.827834
0.843189
0.866341
0.894499
0.926044
0.96092
0.998955
1.03974
1.08256
1.12098
1.15013
1.17176
1.18824
1.20092
1.21002
1.21534
1.21745
1.21776
1.21753
0.742039
0.759395
0.784144
0.817768
0.855974
0.896833
0.94035
0.986469
1.0349
1.08507
1.12984
1.16391
1.18937
1.20889
1.22398
1.23499
1.24139
1.2438
1.24428
1.24424
0.677608
0.697808
0.730396
0.772642
0.819528
0.869079
0.920899
0.974915
1.03081
1.08807
1.13887
1.17745
1.20629
1.22837
1.2453
1.25745
1.26472
1.26786
1.26831
1.26834
0.625198
0.647174
0.684938
0.733277
0.786939
0.843665
0.902769
0.963996
1.0269
1.09086
1.14724
1.18985
1.22151
1.24556
1.26391
1.27727
1.2857
1.28883
1.28939
1.2895
0.581854
0.604903
0.646161
0.699234
0.758269
0.820863
0.886185
0.953787
1.02304
1.09317
1.15464
1.20077
1.23482
1.26054
1.28017
1.29444
1.30341
1.30698
1.30774
1.30788
0.544926
0.568613
0.61255
0.669286
0.732715
0.800259
0.870953
0.944192
1.01919
1.09494
1.16102
1.21025
1.24632
1.27338
1.29388
1.30876
1.31814
1.32213
1.32311
1.32326
0.512383
0.536511
0.582513
0.642292
0.709419
0.78123
0.856656
0.934953
1.01517
1.0961
1.16642
1.21845
1.25625
1.28438
1.30554
1.32087
1.3305
1.33481
1.33591
1.33605
0.482747
0.507286
0.554986
0.61735
0.687679
0.763221
0.842867
0.925752
1.01079
1.09657
1.17089
1.22554
1.26491
1.29396
1.3156
1.33121
1.34099
1.34545
1.34658
1.34668
0.455118
0.480031
0.52928
0.593845
0.666985
0.745827
0.829256
0.916332
1.00587
1.09627
1.17446
1.23167
1.27256
1.30245
1.32453
1.34031
1.35016
1.35469
1.3559
1.35596
0.428763
0.454106
0.50475
0.571312
0.646964
0.728753
0.815595
0.906516
1.00027
1.09511
1.17715
1.23696
1.27944
1.31022
1.33276
1.34874
1.3586
1.3631
1.36437
1.36447
0.403412
0.429192
0.48094
0.549443
0.627351
0.711796
0.801729
0.896181
0.993885
1.09303
1.17895
1.24151
1.28571
1.31751
1.34059
1.3568
1.36671
1.37115
1.37234
1.37239
0.378702
0.405063
0.457843
0.528053
0.607982
0.694821
0.78756
0.885253
0.986661
1.08998
1.17987
1.24537
1.29152
1.32449
1.34823
1.36474
1.37471
1.37909
1.38013
1.38011
0.354553
0.381377
0.435306
0.507027
0.588781
0.67777
0.773042
0.873701
0.978566
1.08594
1.17987
1.24856
1.2969
1.33125
1.35577
1.37262
1.38262
1.38686
1.38779
1.38767
0.330889
0.358275
0.413192
0.48631
0.569718
0.660634
0.758177
0.861523
0.969591
1.08085
1.17888
1.251
1.30184
1.33781
1.36324
1.38047
1.39042
1.39446
1.39522
1.39504
0.307624
0.335622
0.39149
0.465901
0.550787
0.643427
0.742997
0.848756
0.959751
1.07467
1.1768
1.25261
1.30632
1.34422
1.3707
1.38829
1.3981
1.40183
1.40241
1.40217
0.284777
0.313447
0.370243
0.445827
0.53204
0.626197
0.727561
0.835454
0.949081
1.0674
1.17355
1.25327
1.31024
1.35048
1.37824
1.39611
1.40558
1.40887
1.40924
1.40895
0.26252
0.291816
0.349494
0.426134
0.513527
0.609021
0.711939
0.821703
0.937651
1.05907
1.16908
1.25283
1.31345
1.35657
1.386
1.40412
1.41289
1.41547
1.4156
1.41529
0.240886
0.270777
0.329275
0.406881
0.495313
0.591965
0.696229
0.807588
0.925552
1.04971
1.16334
1.25113
1.31573
1.36236
1.39417
1.41274
1.42031
1.42164
1.42139
1.4211
0.21982
0.250375
0.309632
0.388111
0.477466
0.575117
0.680524
0.793222
0.912888
1.03941
1.15628
1.24802
1.3168
1.36754
1.40279
1.4227
1.42884
1.42785
1.42659
1.42652
0.199498
0.230637
0.290626
0.369895
0.460052
0.558562
0.664921
0.778721
0.899781
1.02828
1.14794
1.24338
1.31635
1.37157
1.41142
1.43459
1.44059
1.43663
1.43261
1.43166
0.179833
0.211575
0.272241
0.352208
0.443038
0.542254
0.649363
0.764021
0.88616
1.01623
1.13817
1.23695
1.31404
1.3737
1.41895
1.44787
1.45741
1.45375
1.44337
1.42661
0.160901
0.1932
0.254356
0.334858
0.42613
0.525852
0.633425
0.748626
0.871471
1.00262
1.12631
1.22786
1.30922
1.3728
1.4228
1.45872
1.47281
1.46314
1.44569
1.4288
0.142879
0.175379
0.237159
0.318087
0.409631
0.509709
0.617337
0.732873
0.856037
0.987725
1.11249
1.21578
1.30134
1.36785
1.41785
1.45377
1.47115
1.45238
1.38215
1.3492
0.126422
0.156936
0.22098
0.302488
0.394258
0.494319
0.601397
0.716988
0.840081
0.971694
1.09673
1.20053
1.28932
1.35883
1.40003
1.42784
1.42909
1.37892
1.30767
1.2633
0.0701552
0.140729
0.206106
0.286932
0.378554
0.478273
0.585542
0.700697
0.823249
0.954108
1.07847
1.18172
1.26979
1.34663
1.35113
1.36524
1.32897
1.26392
1.18701
1.14372
0.10865
0.124696
0.184399
0.264897
0.355722
0.45517
0.561437
0.675765
0.797069
0.926081
1.04777
1.1485
1.22807
1.30548
1.30196
1.19693
1.09387
1.02225
0.948743
0.983312
0.077244
0.106614
0.167193
0.247101
0.337974
0.437083
0.543518
0.657123
0.777236
0.904251
1.02283
1.11943
1.19145
1.23247
1.18826
1.04456
0.916855
0.825666
0.725388
0.779576
0.0529818
0.0853119
0.147118
0.227318
0.318275
0.417232
0.523509
0.636196
0.754806
0.879298
0.994028
1.08501
1.14741
1.15717
1.05442
0.880146
0.724721
0.60358
0.470036
0.505845
0.0292448
0.0631209
0.126123
0.207171
0.298308
0.397128
0.502857
0.614511
0.731446
0.853102
0.963227
1.04796
1.09543
1.07313
0.916884
0.71671
0.521079
0.344378
0.147145
0.136106
0.0061847
0.0404361
0.104324
0.186114
0.277466
0.376099
0.481171
0.591691
0.706725
0.825219
0.930209
1.00783
1.03805
0.981083
0.786191
0.56994
0.344414
0.144142
-0.11147
-0.432116
-0.0171623
0.0170595
0.081454
0.163745
0.255327
0.353827
0.45832
0.567692
0.680747
0.795885
0.895592
0.965029
0.977726
0.870047
0.672889
0.456911
0.243785
0.0627949
-0.00584754
-0.10008
-0.0416799
-0.00746317
0.0571852
0.139726
0.231405
0.329688
0.433512
0.541574
0.652358
0.763676
0.857699
0.917292
0.905186
0.762083
0.572933
0.376909
0.207977
0.111708
0.0878272
0.0703372
-0.0676938
-0.0334541
0.0313536
0.113978
0.20558
0.303486
0.406411
0.512871
0.620985
0.727878
0.815771
0.863343
0.831498
0.662128
0.482617
0.312745
0.181288
0.141474
0.126829
0.125053
-0.0954139
-0.0610683
0.00390344
0.0865245
0.177917
0.275234
0.377021
0.481553
0.586571
0.688493
0.769536
0.80371
0.755115
0.568712
0.398801
0.24689
0.162664
0.147426
0.145807
0.145815
-0.124869
-0.0903037
-0.0251754
0.0573895
0.148427
0.244969
0.345364
0.447633
0.549134
0.6456
0.718869
0.742622
0.660071
0.483037
0.320546
0.194514
0.158971
0.156077
0.155974
0.156587
-0.155754
-0.120987
-0.0557502
0.0266855
0.117226
0.212781
0.311511
0.411176
0.50872
0.599279
0.664354
0.672658
0.566272
0.402639
0.257231
0.173567
0.16479
0.16345
0.16288
0.163268
-0.187496
-0.152657
-0.0875422
-0.00533987
0.0845372
0.178871
0.27566
0.372363
0.465538
0.549762
0.606988
0.598247
0.482095
0.331248
0.205929
0.185688
0.170029
0.167516
0.168624
0.169229
-0.219636
-0.184835
-0.120033
-0.0382674
0.0507444
0.143612
0.238151
0.33154
0.419943
0.497604
0.546463
0.524853
0.402186
0.268892
0.166185
0.134782
0.157179
0.1707
0.174408
0.175413
-0.251334
-0.216786
-0.152439
-0.0714463
0.0164307
0.107546
0.19952
0.289265
0.372492
0.443451
0.483066
0.452773
0.326132
0.223507
0.13554
0.152804
0.15921
0.165997
0.171536
0.174349
-0.28103
-0.24735
-0.18387
-0.103976
-0.0175664
0.0714579
0.160538
0.246341
0.324065
0.387906
0.4214
0.375443
0.250919
0.190001
0.165851
0.137037
0.137402
0.141624
0.144566
0.147073
-0.30735
-0.274659
-0.213196
-0.134698
-0.0501989
0.0364143
0.122249
0.203821
0.275945
0.331784
0.363731
0.289712
0.162434
0.164132
0.208358
0.132639
0.0902848
0.0701032
0.0652085
0.0660436
-0.328312
-0.297457
-0.238351
-0.162188
-0.0801015
0.00365588
0.0859856
0.163078
0.229627
0.276869
0.305968
0.200771
0.0214955
-0.0581721
-0.0175908
-0.0540829
-0.0929397
-0.112929
-0.107468
-0.100114
-0.341966
-0.31373
-0.257795
-0.184673
-0.105677
-0.025264
0.0532866
0.125921
0.186836
0.226007
0.246244
0.106442
-0.138528
-0.557767
-0.660347
-0.389895
-0.314395
-0.295523
-0.279867
-0.274971
-0.345923
-0.321522
-0.269749
-0.200462
-0.125191
-0.0486152
0.0260255
0.0944103
0.149961
0.182147
0.185763
0.0408566
-0.142083
-0.264745
-0.317049
-0.272267
-0.330715
-0.312494
-0.306805
-0.305805
-0.338662
-0.318679
-0.27227
-0.20803
-0.137122
-0.0646997
0.00614687
0.070943
0.122304
0.149036
0.137062
0.0563979
0.0688124
0.375325
0.582245
0.18195
-0.153643
-0.23216
-0.257782
-0.259463
-0.318291
-0.3026
-0.263894
-0.206252
-0.140458
-0.0721989
-0.00467328
0.0579483
0.107843
0.132079
0.113135
0.000621345
-0.176984
-0.489186
-0.951903
-1.3479
-1.29996
-0.916006
-0.626761
-0.584769
-0.286236
-0.27558
-0.244958
-0.195293
-0.134944
-0.0706521
-0.00532767
0.0570011
0.109791
0.138344
0.115948
-0.0812737
-0.644939
-1.46478
-2.03006
-2.35689
-2.27574
-1.96363
-1.61716
-1.41756
-0.247067
-0.240823
-0.218978
-0.177157
-0.122181
-0.0608177
0.00400121
0.068983
0.129049
0.175912
0.182452
0.067928
-0.251422
-0.626308
-0.964059
-1.00894
-0.802442
-0.520068
-0.27963
-0.151196
-0.207234
-0.203811
-0.190719
-0.15628
-0.105119
-0.045065
0.021222
0.0924305
0.165199
0.24126
0.310851
0.410772
0.543736
0.835685
1.20235
1.60282
1.94198
2.16526
2.28124
2.32414
-0.173084
-0.171079
-0.164068
-0.136921
-0.088631
-0.0271966
0.0425925
0.120976
0.209874
0.310508
0.441354
0.59381
0.938856
1.49339
2.12711
2.69774
3.12712
3.38202
3.49348
3.52344
-0.14107
-0.140531
-0.138343
-0.119605
-0.0745168
-0.0113494
0.0626695
0.146472
0.242128
0.354433
0.479205
0.62019
0.847487
1.35217
1.91602
2.41803
2.78711
3.00042
3.09826
3.12652
-0.112615
-0.11204
-0.111479
-0.100666
-0.060976
0.00307926
0.079857
0.166017
0.260488
0.369262
0.4847
0.609131
0.756614
1.10206
1.55729
1.93764
2.22571
2.39487
2.47102
2.49206
-0.0913752
-0.0899667
-0.0897932
-0.0838226
-0.047223
0.018451
0.0973216
0.182838
0.274268
0.377053
0.48001
0.580638
0.678339
0.893462
1.2117
1.48782
1.69235
1.81
1.86175
1.87461
-0.0798658
-0.0807861
-0.0836761
-0.0770702
-0.0341147
0.0385248
0.119921
0.202622
0.287945
0.379512
0.46528
0.538931
0.610062
0.745268
0.955894
1.13909
1.27359
1.35097
1.38444
1.39236
-0.0471595
-0.0516543
-0.0576116
-0.0467647
0.00066129
0.0751562
0.152727
0.227914
0.302982
0.380465
0.450088
0.503657
0.5538
0.638122
0.778183
0.896088
0.979148
1.02576
1.04457
1.04692
0.0515128
0.0460393
0.0413196
0.050841
0.0880371
0.143423
0.202724
0.261943
0.322098
0.38421
0.438158
0.474769
0.505027
0.559129
0.651086
0.728692
0.779966
0.807582
0.817804
0.818421
0.197786
0.194829
0.191479
0.194117
0.209397
0.23454
0.266596
0.303469
0.345068
0.391086
0.430743
0.456094
0.476025
0.509484
0.56825
0.618099
0.65045
0.667248
0.673672
0.673402
0.328429
0.327308
0.32445
0.319682
0.316174
0.317997
0.327237
0.34426
0.369325
0.401201
0.430708
0.450523
0.462757
0.489511
0.527746
0.55799
0.57686
0.586206
0.589231
0.588461
0.408757
0.408272
0.405313
0.397426
0.385932
0.376617
0.373456
0.378079
0.39115
0.412244
0.435598
0.454194
0.46795
0.489498
0.514766
0.53169
0.541255
0.545808
0.54707
0.546027
0.445334
0.444908
0.442272
0.434981
0.423411
0.411953
0.404159
0.402389
0.408137
0.422113
0.442296
0.46266
0.481262
0.497757
0.511816
0.520523
0.526393
0.52932
0.530269
0.529193
0.456601
0.456166
0.454099
0.448711
0.439816
0.430019
0.421982
0.41796
0.419603
0.428966
0.446224
0.469235
0.49316
0.507339
0.512143
0.517
0.521549
0.524988
0.526262
0.524956
0.456628
0.456204
0.454656
0.451025
0.44498
0.437736
0.430946
0.426364
0.425487
0.430688
0.44462
0.468025
0.493162
0.503233
0.503415
0.507755
0.515894
0.522229
0.524318
0.522465
0.453098
0.452706
0.451524
0.449013
0.445018
0.439852
0.434377
0.429701
0.426853
0.427484
0.434659
0.451223
0.472532
0.475674
0.475808
0.484598
0.496098
0.5053
0.508768
0.507062
0.449368
0.449028
0.448092
0.446133
0.443209
0.439437
0.434915
0.430062
0.425096
0.419913
0.415519
0.4152
0.418621
0.417329
0.42422
0.441457
0.459227
0.471518
0.475487
0.473578
0.446331
0.446072
0.445384
0.443807
0.441407
0.43828
0.434443
0.429469
0.422594
0.411471
0.39261
0.368145
0.340492
0.338022
0.359754
0.387187
0.408119
0.419815
0.422293
0.420588
0.443538
0.443394
0.443005
0.441941
0.43991
0.43748
0.434129
0.429728
0.422541
0.407378
0.375377
0.323336
0.273529
0.272965
0.307624
0.337559
0.353116
0.360078
0.362376
0.362529
0.43981
0.439781
0.439697
0.439253
0.438036
0.436557
0.434767
0.432154
0.426955
0.413684
0.380782
0.319039
0.260066
0.268392
0.300675
0.320837
0.328893
0.330979
0.332254
0.332346
0.433902
0.434045
0.434371
0.434707
0.434912
0.434942
0.435454
0.436027
0.435752
0.429253
0.406894
0.359551
0.320698
0.32716
0.338184
0.339605
0.33666
0.334157
0.333322
0.332858
0.424333
0.424629
0.425283
0.426299
0.427865
0.430621
0.434692
0.440379
0.447232
0.451701
0.447542
0.42777
0.413222
0.406416
0.390567
0.370001
0.35622
0.349116
0.347897
0.348181
0.408784
0.409334
0.410694
0.413052
0.416588
0.422146
0.430678
0.442219
0.456944
0.475098
0.489
0.495229
0.499251
0.476259
0.440782
0.410558
0.389735
0.379796
0.376154
0.375804
0.383867
0.384781
0.38702
0.390949
0.396963
0.406025
0.419261
0.437449
0.460673
0.489253
0.516388
0.534948
0.542122
0.508421
0.466522
0.439621
0.422481
0.409574
0.403859
0.404005
0.345521
0.346877
0.350117
0.356004
0.365106
0.377969
0.395501
0.41877
0.447335
0.481008
0.509643
0.520342
0.521327
0.489247
0.466202
0.452321
0.448431
0.439575
0.43328
0.433502
0.289805
0.291442
0.2957
0.303777
0.316009
0.332481
0.353104
0.377529
0.402948
0.431176
0.460324
0.468383
0.453014
0.428377
0.430371
0.446704
0.453215
0.443802
0.437264
0.436015
0.214861
0.216164
0.221176
0.231097
0.245509
0.263617
0.283437
0.299292
0.30938
0.323728
0.356397
0.362953
0.340878
0.313467
0.345996
0.3774
0.388849
0.37988
0.375118
0.373878
0.123314
0.124656
0.128784
0.138417
0.151438
0.166447
0.178509
0.176961
0.158002
0.161865
0.208137
0.22343
0.188408
0.187293
0.216577
0.267074
0.26781
0.257986
0.251411
0.249039
0.0300158
0.0293244
0.0287119
0.0288632
0.0280775
0.0295506
0.0298087
0.0169402
-0.0122121
-0.011306
0.0391339
0.0720101
0.0797697
0.0565319
0.0474871
0.020472
0.0353808
0.049177
0.0499288
0.0499865
0.386704
0.565387
0.774109
0.953234
1.09741
1.21223
1.30792
1.38871
1.42477
1.40171
0.712071
0.840178
0.977255
1.09593
1.19638
1.2799
1.3475
1.39537
1.41955
1.43143
0.944005
1.03148
1.12484
1.20759
1.27887
1.33853
1.3859
1.42048
1.44531
1.46308
1.11273
1.17442
1.23985
1.29968
1.35178
1.39597
1.43219
1.46099
1.48446
1.50263
1.24337
1.28865
1.33628
1.38184
1.4221
1.45718
1.48714
1.51198
1.5328
1.55056
1.35076
1.38481
1.42414
1.46087
1.4945
1.52457
1.55078
1.57276
1.59091
1.60822
1.4452
1.47461
1.50945
1.5423
1.57289
1.60059
1.62476
1.6448
1.66051
1.67758
1.53502
1.56467
1.59922
1.63171
1.66172
1.68865
1.71179
1.73049
1.74401
1.76105
1.63113
1.66453
1.70153
1.73542
1.76573
1.79214
1.81427
1.83169
1.84366
1.86107
1.74669
1.78449
1.82338
1.85786
1.88737
1.91226
1.93274
1.94872
1.96026
1.97834
1.892
1.93067
1.96678
1.99757
2.02334
2.04551
2.06463
2.08022
2.09269
2.1107
2.06702
2.09889
2.12512
2.14758
2.1676
2.18637
2.20412
2.22063
2.23601
2.25408
2.25572
2.27302
2.28815
2.30442
2.32035
2.33491
2.34814
2.36208
2.37964
2.39981
2.43766
2.44713
2.45869
2.46952
2.47883
2.48843
2.49925
2.51063
2.52201
2.53737
2.64482
2.64851
2.63358
2.61878
2.61253
2.61823
2.63672
2.66704
2.69922
2.72588
2.95116
2.81629
2.73968
2.69734
2.67993
2.6839
2.71131
2.76773
2.87036
3.09472
1.23072
1.22859
1.2241
1.21547
1.20324
1.19109
1.18084
1.17292
1.16725
1.16393
1.16349
1.16613
1.17116
1.17832
1.18767
1.19918
1.2118
1.22282
1.22893
1.23197
1.15519
1.16103
1.16737
1.17185
1.17431
1.17397
1.17121
1.16737
1.16381
1.16148
1.16124
1.16334
1.16692
1.17114
1.1749
1.17675
1.17578
1.17228
1.1671
1.16047
1.1468
1.14909
1.15249
1.15548
1.15754
1.15902
1.15975
1.1594
1.15832
1.15736
1.15743
1.15875
1.16047
1.1617
1.16182
1.16089
1.15931
1.15694
1.15366
1.15073
1.14133
1.14241
1.14424
1.14661
1.14863
1.15004
1.15103
1.15174
1.15208
1.15221
1.15259
1.15327
1.15376
1.15374
1.15325
1.15235
1.15083
1.14871
1.1466
1.14521
1.13618
1.13685
1.13795
1.13965
1.14142
1.14304
1.1443
1.14527
1.14609
1.14677
1.14736
1.14777
1.14783
1.14755
1.1469
1.14577
1.14428
1.14269
1.14134
1.14055
1.13128
1.13174
1.13253
1.13382
1.1353
1.13681
1.13824
1.13949
1.14055
1.14149
1.14224
1.14263
1.14261
1.1422
1.14138
1.14029
1.13908
1.13789
1.13693
1.13641
1.12655
1.1269
1.12751
1.12858
1.12987
1.13123
1.13265
1.13405
1.13534
1.13648
1.13739
1.13786
1.13783
1.13737
1.13662
1.13571
1.13475
1.1338
1.13308
1.13269
1.12195
1.12221
1.12271
1.12362
1.1248
1.12609
1.12746
1.1289
1.13035
1.13171
1.13283
1.13342
1.13346
1.1331
1.13251
1.13178
1.13099
1.13024
1.12968
1.12939
1.1174
1.11761
1.11802
1.11883
1.11993
1.12118
1.12253
1.12401
1.12557
1.12713
1.12849
1.12928
1.1295
1.12933
1.12892
1.12836
1.12773
1.12714
1.12671
1.12648
1.11283
1.113
1.11335
1.11409
1.11515
1.11638
1.11776
1.1193
1.12098
1.12275
1.12438
1.12546
1.12594
1.12601
1.12578
1.1254
1.12493
1.12447
1.12415
1.12397
1.10818
1.10831
1.10862
1.10932
1.11038
1.11164
1.11309
1.11474
1.11661
1.11865
1.12062
1.12206
1.12285
1.12315
1.12314
1.12291
1.12259
1.12225
1.12201
1.12187
1.10339
1.10348
1.10376
1.10445
1.10553
1.10686
1.10841
1.11024
1.11235
1.11473
1.11714
1.11902
1.12015
1.12074
1.12096
1.12092
1.12074
1.12051
1.12035
1.12024
1.09838
1.09845
1.09871
1.09941
1.10054
1.10197
1.10367
1.1057
1.10813
1.11095
1.11391
1.1163
1.11786
1.1188
1.11929
1.11947
1.11944
1.11933
1.11923
1.11915
1.09311
1.09316
1.0934
1.09411
1.09532
1.09689
1.09877
1.10108
1.10387
1.1072
1.11082
1.1139
1.11602
1.1174
1.1182
1.11862
1.11877
1.11878
1.11875
1.1187
1.08748
1.0875
1.08773
1.08848
1.08981
1.09156
1.09371
1.09639
1.09972
1.10376
1.10822
1.11207
1.11481
1.11665
1.11783
1.11851
1.11889
1.11904
1.11908
1.11905
1.08141
1.08141
1.08162
1.0824
1.08383
1.08576
1.08821
1.09131
1.09523
1.10008
1.10556
1.11042
1.11398
1.11648
1.11815
1.11921
1.11988
1.12021
1.12034
1.12033
1.07459
1.07456
1.07481
1.07564
1.07721
1.0794
1.08225
1.08594
1.09068
1.0966
1.10334
1.1094
1.11388
1.11709
1.11935
1.12093
1.12194
1.12249
1.12271
1.12272
1.06681
1.06676
1.06702
1.06794
1.06969
1.07221
1.07557
1.07999
1.08572
1.09297
1.10128
1.10879
1.11443
1.11855
1.12153
1.12366
1.1251
1.12593
1.12624
1.12626
1.05754
1.05748
1.05779
1.05885
1.06086
1.06382
1.06786
1.07324
1.08027
1.08918
1.09941
1.10869
1.11569
1.12087
1.12468
1.12747
1.1294
1.13052
1.13093
1.13095
1.04618
1.04611
1.0465
1.04779
1.05022
1.05387
1.05886
1.06555
1.07429
1.08532
1.09789
1.10925
1.11784
1.12423
1.12897
1.13248
1.13494
1.13635
1.13685
1.13687
1.0321
1.032
1.03254
1.03418
1.03723
1.04184
1.04815
1.05658
1.06752
1.08118
1.09662
1.11045
1.1209
1.12869
1.13451
1.13883
1.14185
1.14355
1.14414
1.14417
1.01438
1.01426
1.01501
1.01719
1.02117
1.02716
1.03533
1.04614
1.05997
1.07695
1.0958
1.11251
1.12507
1.13444
1.14148
1.1467
1.15035
1.15237
1.15306
1.15307
0.991645
0.991519
0.99263
0.995646
1.00102
1.00906
1.01989
1.03396
1.05155
1.07262
1.09552
1.11553
1.13047
1.14162
1.15002
1.15628
1.16064
1.16298
1.16375
1.16376
0.961554
0.961463
0.963231
0.967686
0.975389
0.986633
1.0014
1.01996
1.0424
1.06845
1.09603
1.11971
1.13726
1.15036
1.16027
1.16771
1.17282
1.17548
1.17631
1.1763
0.919973
0.920062
0.923251
0.930649
0.942622
0.959148
0.979743
1.00438
1.03288
1.06477
1.09756
1.12521
1.14554
1.16074
1.17229
1.18103
1.18687
1.1898
1.19068
1.19063
0.859306
0.860563
0.868295
0.882168
0.901896
0.926791
0.955557
0.987926
1.0236
1.06201
1.10036
1.13212
1.15534
1.17271
1.18596
1.19587
1.20247
1.20567
1.2065
1.20641
0.787144
0.789148
0.803719
0.82758
0.858133
0.892796
0.930513
0.971187
1.01461
1.06029
1.10524
1.14231
1.16954
1.19008
1.20578
1.21739
1.22511
1.22883
1.22986
1.22984
0.713107
0.719725
0.741164
0.774994
0.815569
0.859709
0.906319
0.955297
1.00654
1.05962
1.11135
1.15394
1.1853
1.20907
1.22737
1.24109
1.25004
1.2536
1.25462
1.25482
0.653536
0.662061
0.688236
0.728861
0.777042
0.829093
0.883608
0.940324
0.998997
1.05917
1.11737
1.16502
1.20001
1.22643
1.2466
1.26162
1.2712
1.27578
1.27754
1.27785
0.605264
0.614351
0.643959
0.689444
0.74342
0.801762
0.862887
0.926387
0.991818
1.05857
1.12275
1.175
1.2131
1.24167
1.26342
1.27965
1.29054
1.29578
1.29784
1.29819
0.56495
0.574259
0.606169
0.655368
0.713941
0.777409
0.844121
0.913522
0.984979
1.05772
1.12737
1.18371
1.2245
1.25489
1.27791
1.29512
1.30669
1.3126
1.31489
1.31527
0.529999
0.539404
0.573028
0.625225
0.687544
0.755331
0.826867
0.901465
0.978349
1.05655
1.1312
1.19122
1.23436
1.26623
1.2902
1.30808
1.32018
1.32655
1.32901
1.32942
0.498757
0.508208
0.543155
0.597859
0.663329
0.734825
0.810603
0.889855
0.971674
1.05491
1.13422
1.19766
1.2429
1.27605
1.30078
1.31911
1.33154
1.33823
1.34077
1.3412
0.469993
0.479507
0.515583
0.57243
0.640612
0.71536
0.794897
0.87835
0.964707
1.05267
1.1364
1.20313
1.25036
1.28467
1.31005
1.32867
1.34127
1.34813
1.35063
1.3511
0.442916
0.452489
0.489583
0.548306
0.618928
0.69655
0.779441
0.866706
0.957259
1.04969
1.13772
1.20769
1.25693
1.2924
1.3184
1.33734
1.35006
1.35699
1.35951
1.35982
0.417005
0.426694
0.464728
0.525063
0.597908
0.678109
0.764023
0.854757
0.949199
1.04587
1.13814
1.21142
1.26277
1.2995
1.3262
1.34549
1.35834
1.36524
1.36774
1.36802
0.391868
0.401755
0.440614
0.502508
0.577324
0.659849
0.748496
0.842392
0.940444
1.04116
1.13762
1.21435
1.26799
1.30615
1.33367
1.35338
1.3664
1.37329
1.37569
1.37597
0.367319
0.377445
0.417092
0.480485
0.557053
0.64166
0.732776
0.829553
0.930939
1.0355
1.13613
1.21648
1.27267
1.31246
1.34095
1.36118
1.37439
1.38124
1.38351
1.38374
0.343305
0.353667
0.394143
0.458854
0.537026
0.623513
0.71684
0.816221
0.920673
1.02887
1.13363
1.21778
1.27678
1.31846
1.3481
1.36891
1.3823
1.38905
1.39115
1.3913
0.319731
0.330415
0.371627
0.43759
0.51722
0.605392
0.700696
0.802416
0.909659
1.02125
1.13003
1.21814
1.28027
1.32417
1.35516
1.37663
1.39015
1.39672
1.39859
1.39864
0.296643
0.307624
0.349606
0.416705
0.497656
0.587329
0.684392
0.788187
0.897936
1.01265
1.1253
1.21747
1.28307
1.32957
1.36218
1.38436
1.3979
1.40413
1.40571
1.40567
0.274022
0.285324
0.328103
0.39624
0.478377
0.569377
0.667985
0.773608
0.885568
1.00309
1.11939
1.21566
1.28502
1.33459
1.36924
1.39225
1.40558
1.41122
1.41242
1.41228
0.252063
0.263613
0.307153
0.376246
0.459446
0.551618
0.651553
0.758759
0.872641
0.992649
1.1123
1.2126
1.28594
1.33907
1.37638
1.40054
1.41341
1.41799
1.4186
1.41837
0.230638
0.242541
0.286795
0.356759
0.440904
0.534098
0.635192
0.743732
0.859256
0.981424
1.10405
1.20818
1.28562
1.34277
1.38354
1.40965
1.42207
1.42481
1.42425
1.42385
0.209919
0.222143
0.267071
0.337838
0.422839
0.516911
0.618991
0.728652
0.84553
0.969492
1.0947
1.20234
1.28385
1.34529
1.39036
1.41982
1.43279
1.43322
1.42999
1.42847
0.189855
0.20238
0.248037
0.319543
0.405295
0.500126
0.603036
0.713605
0.831581
0.957
1.08434
1.19502
1.28045
1.34616
1.39604
1.43051
1.44665
1.44674
1.43946
1.42949
0.170529
0.183299
0.229593
0.30172
0.38806
0.483457
0.586981
0.698171
0.816937
0.943414
1.0724
1.18558
1.27482
1.34477
1.39936
1.44017
1.46283
1.46626
1.45699
1.44808
0.151999
0.164988
0.211743
0.284415
0.37115
0.466901
0.570847
0.682338
0.801563
0.928634
1.05872
1.1737
1.2663
1.34038
1.39781
1.44315
1.46894
1.47754
1.44112
1.38742
0.134541
0.148224
0.194592
0.267692
0.354458
0.450326
0.554594
0.666226
0.785527
0.912736
1.04326
1.15926
1.25394
1.33274
1.38949
1.42817
1.45507
1.44477
1.3876
1.32226
0.117838
0.132389
0.178332
0.252176
0.338316
0.434213
0.537999
0.649899
0.768977
0.895899
1.02607
1.14213
1.23668
1.32298
1.37306
1.42574
1.39828
1.35805
1.28833
1.21924
0.131696
0.149801
0.198576
0.27668
0.367757
0.467491
0.576666
0.691553
0.813723
0.944046
1.0678
1.17061
1.25678
1.3485
1.39789
1.31788
1.27362
1.21143
1.13822
1.08954
0.107187
0.12356
0.15932
0.227621
0.313306
0.408667
0.512583
0.623831
0.742066
0.867649
0.995777
1.10985
1.20099
1.28126
1.35295
1.35466
1.23426
1.15085
1.08807
1.0041
0.0868703
0.102577
0.144048
0.213778
0.299725
0.394699
0.497421
0.607732
0.724937
0.849014
0.975266
1.08696
1.17509
1.24272
1.2701
1.20019
1.05973
0.963144
0.887267
0.797401
0.0661205
0.0787051
0.124649
0.195681
0.281826
0.376987
0.479644
0.58959
0.705833
0.828314
0.951618
1.05869
1.13963
1.19178
1.17046
1.04206
0.888356
0.768938
0.669481
0.530139
0.0421319
0.0552505
0.103259
0.175436
0.261929
0.357115
0.459643
0.568957
0.684036
0.804557
0.92441
1.02616
1.09927
1.13157
1.07433
0.890602
0.705747
0.548375
0.402732
0.202747
0.0191947
0.0319312
0.0811907
0.154551
0.241566
0.336715
0.438862
0.547295
0.660965
0.779168
0.895193
0.991087
1.05566
1.05832
0.949945
0.747469
0.529698
0.321654
0.13652
-0.27702
-0.00377489
0.00857317
0.0583333
0.132574
0.220016
0.315199
0.416956
0.524497
0.63665
0.752304
0.864187
0.953595
1.00758
0.976407
0.826522
0.620825
0.396435
0.17611
-0.0123592
-0.316979
-0.0276603
-0.0154661
0.0344678
0.109255
0.197001
0.292226
0.393633
0.500306
0.610888
0.723827
0.831333
0.913798
0.954415
0.905227
0.71549
0.518195
0.314084
0.141008
0.0677198
0.0317685
-0.0529363
-0.0409056
0.00921828
0.0842923
0.172139
0.267244
0.368144
0.473721
0.582405
0.692158
0.794655
0.869533
0.895564
0.816111
0.616687
0.432582
0.264092
0.15373
0.116927
0.105631
-0.0797918
-0.0678271
-0.0175752
0.0576759
0.145494
0.240309
0.340488
0.444709
0.551126
0.657196
0.754008
0.82119
0.824926
0.711511
0.527095
0.356633
0.214102
0.155592
0.14237
0.137071
-0.108345
-0.096526
-0.0459761
0.0294033
0.11709
0.211438
0.310683
0.413252
0.517029
0.618971
0.709426
0.768563
0.746241
0.612873
0.441959
0.282175
0.179357
0.144457
0.150357
0.150827
-0.138497
-0.126756
-0.0759518
-0.000467183
0.0869872
0.180703
0.278772
0.379397
0.480153
0.57749
0.661203
0.710196
0.673199
0.520015
0.364083
0.221745
0.177633
0.164521
0.160257
0.159943
-0.169902
-0.158132
-0.107276
-0.0317439
0.0553453
0.148244
0.244888
0.343263
0.440599
0.53288
0.609521
0.64693
0.605685
0.438943
0.294729
0.193245
0.143117
0.160237
0.164705
0.165575