/*--------------------------------*- C++ -*----------------------------------*\
  =========                 |
  \\      /  F ield         | OpenFOAM: The Open Source CFD Toolbox
   \\    /   O peration     | Website:  https://openfoam.org
    \\  /    A nd           | Version:  10
     \\/     M anipulation  |
\*---------------------------------------------------------------------------*/
FoamFile
{
    format      ascii;
    class       volVectorField;
    location    "33";
    object      U;
}
// * * * * * * * * * * * * * * * * * * * * * * * * * * * * * * * * * * * * * //

dimensions      [0 1 -1 0 0 0 0];

internalField   nonuniform List<vector> 
8800
(
(0.980156 -0.0915211 0)
(1.00234 -0.058722 0)
(0.999611 -0.0321229 0)
(0.999998 -0.0165134 0)
(1.00005 -0.00882671 0)
(1.00002 -0.0050754 0)
(0.999991 -0.00298138 0)
(0.999977 -0.00169343 0)
(0.999973 -0.000812247 0)
(1.00006 -0.000123833 0)
(0.999982 0.000575421 0)
(1 0.0013316 0)
(1.00001 0.00236573 0)
(1.00002 0.003977 0)
(1.00004 0.00672599 0)
(1.00003 0.0120339 0)
(0.999862 0.0230874 0)
(0.999064 0.0431542 0)
(1.00723 0.0790276 0)
(0.775024 0.0478396 0)
(0.358976 -0.0147491 0)
(1.04649 -0.0724944 0)
(1.08849 -0.0660312 0)
(1.04946 -0.0509238 0)
(1.02553 -0.0377013 0)
(1.01267 -0.0258884 0)
(1.00649 -0.0167003 0)
(1.00355 -0.0102479 0)
(1.00213 -0.00565481 0)
(1.00148 -0.00208297 0)
(1.00136 0.00110771 0)
(1.00173 0.0044147 0)
(1.00271 0.00831449 0)
(1.00473 0.013641 0)
(1.00897 0.021332 0)
(1.01797 0.0318346 0)
(1.03585 0.0446234 0)
(1.06748 0.0580819 0)
(1.09473 0.0699581 0)
(0.845682 0.0555001 0)
(0.217755 -0.00138165 0)
(1.07567 -0.0506685 0)
(1.09942 -0.0489561 0)
(1.06438 -0.0400413 0)
(1.03984 -0.0325813 0)
(1.02371 -0.0253745 0)
(1.01393 -0.0181885 0)
(1.00844 -0.0116091 0)
(1.0056 -0.0058854 0)
(1.00444 -0.000629494 0)
(1.00478 0.00445111 0)
(1.00664 0.00973443 0)
(1.01057 0.0157354 0)
(1.01788 0.022523 0)
(1.03051 0.0296427 0)
(1.05053 0.036743 0)
(1.08012 0.0445381 0)
(1.10575 0.0518807 0)
(0.943394 0.0409828 0)
(0.217272 0.00140162 0)
(0.176598 -0.000629197 0)
(1.01935 -0.0354794 0)
(1.10569 -0.0414339 0)
(1.07794 -0.0364241 0)
(1.05236 -0.0303827 0)
(1.0351 -0.0245137 0)
(1.02326 -0.0187655 0)
(1.01546 -0.0128315 0)
(1.01087 -0.00678504 0)
(1.00886 -0.000585236 0)
(1.00942 0.00554745 0)
(1.01253 0.0114471 0)
(1.01849 0.0172309 0)
(1.02808 0.0228384 0)
(1.0423 0.0284195 0)
(1.06313 0.0342227 0)
(1.09396 0.0401305 0)
(1.09459 0.0416875 0)
(0.830485 0.022736 0)
(0.175775 0.000645182 0)
(0.154673 -0.000463053 0)
(0.958082 -0.025704 0)
(1.10436 -0.0351439 0)
(1.08803 -0.0327029 0)
(1.06113 -0.0281986 0)
(1.04305 -0.0232602 0)
(1.03069 -0.0180263 0)
(1.02211 -0.0125521 0)
(1.01659 -0.00669525 0)
(1.01397 -0.000307125 0)
(1.01466 0.00609622 0)
(1.01848 0.0119443 0)
(1.02526 0.0172829 0)
(1.0354 0.0223317 0)
(1.05019 0.0271908 0)
(1.07214 0.031661 0)
(1.10117 0.0355744 0)
(1.06999 0.0338315 0)
(0.743071 0.014393 0)
(0.153444 0.000481135 0)
(0.139978 -0.000334689 0)
(0.901021 -0.0193286 0)
(1.0967 -0.0302384 0)
(1.09609 -0.0293836 0)
(1.06876 -0.0256294 0)
(1.04991 -0.0215844 0)
(1.03698 -0.0169692 0)
(1.02801 -0.0118015 0)
(1.0221 -0.00616102 0)
(1.01915 0.000116708 0)
(1.01983 0.00643484 0)
(1.0239 0.0120457 0)
(1.03095 0.0170419 0)
(1.04147 0.0215674 0)
(1.05688 0.0255647 0)
(1.07969 0.0291065 0)
(1.10355 0.0318466 0)
(1.03845 0.0279197 0)
(0.676626 0.0102199 0)
(0.138252 0.000356153 0)
(0.129239 -0.000252925 0)
(0.851136 -0.0149132 0)
(1.0843 -0.0261123 0)
(1.10171 -0.0264657 0)
(1.0755 -0.0231484 0)
(1.05613 -0.0195434 0)
(1.04277 -0.0154837 0)
(1.03343 -0.0107567 0)
(1.02725 -0.00537931 0)
(1.02412 0.000668243 0)
(1.02471 0.00672509 0)
(1.02881 0.012034 0)
(1.03603 0.0165858 0)
(1.04686 0.0204714 0)
(1.0627 0.0238656 0)
(1.08596 0.0269666 0)
(1.10295 0.028852 0)
(1.0042 0.0232823 0)
(0.625114 0.00778343 0)
(0.126908 0.000279119 0)
(0.121065 -0.000193987 0)
(0.80868 -0.0116971 0)
(1.06892 -0.0224734 0)
(1.10513 -0.0238234 0)
(1.08163 -0.021012 0)
(1.06178 -0.0176757 0)
(1.04813 -0.0139039 0)
(1.03853 -0.00949698 0)
(1.03208 -0.00443017 0)
(1.02873 0.00132555 0)
(1.0292 0.00706514 0)
(1.03331 0.0119912 0)
(1.04064 0.0160912 0)
(1.05161 0.0195443 0)
(1.06774 0.02256 0)
(1.09142 0.0253269 0)
(1.09956 0.0262932 0)
(0.969753 0.0195762 0)
(0.584097 0.00617148 0)
(0.117998 0.000225906 0)
(0.114752 -0.000148739 0)
(0.773011 -0.00926757 0)
(1.05204 -0.0192205 0)
(1.1073 -0.0212771 0)
(1.08729 -0.0188464 0)
(1.06706 -0.0157053 0)
(1.05317 -0.0121632 0)
(1.04337 -0.00804033 0)
(1.0367 -0.00330274 0)
(1.03312 0.00212683 0)
(1.03343 0.00750779 0)
(1.03747 0.0119944 0)
(1.04478 0.0156322 0)
(1.05581 0.0186729 0)
(1.07218 0.0213326 0)
(1.09559 0.0237937 0)
(1.09351 0.0240278 0)
(0.936594 0.0166305 0)
(0.550652 0.00503616 0)
(0.110791 0.000187732 0)
(0.109856 -0.000113544 0)
(0.743238 -0.00736073 0)
(1.03476 -0.0163045 0)
(1.10857 -0.0188878 0)
(1.09266 -0.0167833 0)
(1.07206 -0.0137729 0)
(1.05787 -0.010379 0)
(1.04791 -0.00644886 0)
(1.04105 -0.00195925 0)
(1.03722 0.0031071 0)
(1.03732 0.00804373 0)
(1.0412 0.012105 0)
(1.04841 0.0153493 0)
(1.05948 0.0180216 0)
(1.07617 0.0203762 0)
(1.09866 0.0225086 0)
(1.08528 0.0220293 0)
(0.905403 0.0142799 0)
(0.522808 0.00420776 0)
(0.10481 0.00016057 0)
(0.106093 -8.4225e-05 0)
(0.718613 -0.00579176 0)
(1.01791 -0.0136167 0)
(1.10885 -0.0165241 0)
(1.09778 -0.0148073 0)
(1.0769 -0.0119233 0)
(1.06242 -0.00860649 0)
(1.05226 -0.00478199 0)
(1.04519 -0.000488509 0)
(1.04111 0.00427096 0)
(1.04092 0.00881571 0)
(1.04457 0.0124531 0)
(1.05165 0.0152942 0)
(1.06274 0.0176392 0)
(1.07963 0.0197269 0)
(1.10036 0.0214175 0)
(1.07526 0.020256 0)
(0.876449 0.0124038 0)
(0.4992 0.00359231 0)
(0.0997208 0.000142081 0)
(0.103286 -5.82032e-05 0)
(0.698588 -0.004439 0)
(1.00226 -0.0110884 0)
(1.1084 -0.0140596 0)
(1.10255 -0.0125588 0)
(1.08159 -0.00972096 0)
(1.0668 -0.0065073 0)
(1.05635 -0.00285042 0)
(1.04898 0.00122824 0)
(1.04457 0.00568925 0)
(1.04403 0.00982968 0)
(1.04743 0.0130244 0)
(1.0544 0.015439 0)
(1.06549 0.0173676 0)
(1.08255 0.0190663 0)
(1.10106 0.0203948 0)
(1.06393 0.0186314 0)
(0.849824 0.0108843 0)
(0.478888 0.00312392 0)
(0.0952952 0.000128731 0)
(0.10132 -3.42352e-05 0)
(0.682781 -0.00321721 0)
(0.988325 -0.00866913 0)
(1.10754 -0.0115282 0)
(1.10709 -0.010185 0)
(1.08617 -0.00740609 0)
(1.071 -0.00426094 0)
(1.06029 -0.000695491 0)
(1.05263 0.00323385 0)
(1.04781 0.00740525 0)
(1.04684 0.0111203 0)
(1.04987 0.0138434 0)
(1.05661 0.0157768 0)
(1.06774 0.0172736 0)
(1.08502 0.0185977 0)
(1.10089 0.0195485 0)
(1.05167 0.017226 0)
(0.825396 0.00965752 0)
(0.461152 0.00277145 0)
(0.0913476 0.00012147 0)
(0.100148 -1.01263e-05 0)
(0.671012 -0.00204525 0)
(0.976492 -0.00623387 0)
(1.10637 -0.0088374 0)
(1.11129 -0.00772499 0)
(1.0907 -0.00505579 0)
(1.07522 -0.00183959 0)
(1.0642 0.00177146 0)
(1.05614 0.00559456 0)
(1.0508 0.00949971 0)
(1.04932 0.0128043 0)
(1.05197 0.0150546 0)
(1.05844 0.0165828 0)
(1.06947 0.0177286 0)
(1.08672 0.0186313 0)
(1.09962 0.0189935 0)
(1.03858 0.0160007 0)
(0.803 0.00866299 0)
(0.445472 0.00251201 0)
(0.0877365 0.000119078 0)
(0.0997629 9.83983e-06 0)
(0.663159 -0.000903588 0)
(0.967243 -0.00378624 0)
(1.10525 -0.0058423 0)
(1.1152 -0.0047359 0)
(1.09525 -0.00207154 0)
(1.07944 0.00114671 0)
(1.06798 0.00467003 0)
(1.05943 0.00837862 0)
(1.05352 0.0120686 0)
(1.05135 0.0149757 0)
(1.05341 0.0166608 0)
(1.05959 0.017558 0)
(1.07053 0.018044 0)
(1.0877 0.0184907 0)
(1.09706 0.0183412 0)
(1.02497 0.0148801 0)
(0.78253 0.00787204 0)
(0.43142 0.0023225 0)
(0.0843508 0.000118641 0)
(0.100187 5.16125e-05 0)
(0.659259 0.000264194 0)
(0.960922 -0.00124096 0)
(1.10483 -0.002635 0)
(1.11922 -0.00141991 0)
(1.09975 0.00127297 0)
(1.08355 0.004512 0)
(1.07167 0.00805318 0)
(1.06255 0.0117303 0)
(1.05585 0.0152139 0)
(1.05289 0.0176841 0)
(1.05432 0.0188396 0)
(1.05998 0.019132 0)
(1.07075 0.0190432 0)
(1.08767 0.0188953 0)
(1.0934 0.018176 0)
(1.01108 0.0141411 0)
(0.76363 0.00731178 0)
(0.41859 0.00221512 0)
(0.0810834 0.000122983 0)
(0.101573 7.30577e-05 0)
(0.659448 0.0014659 0)
(0.957638 0.00135506 0)
(1.10511 0.000706892 0)
(1.12334 0.0019285 0)
(1.10441 0.00467594 0)
(1.08788 0.00814487 0)
(1.07558 0.0119087 0)
(1.06586 0.0157092 0)
(1.05827 0.0190823 0)
(1.05427 0.0211491 0)
(1.05476 0.0217512 0)
(1.05978 0.021461 0)
(1.07018 0.0207967 0)
(1.08669 0.0199414 0)
(1.08839 0.0184821 0)
(0.996517 0.0137046 0)
(0.745901 0.00702656 0)
(0.406531 0.00219285 0)
(0.0778552 0.000125484 0)
(0.103915 0.000115967 0)
(0.663516 0.00269977 0)
(0.957819 0.00404007 0)
(1.10641 0.00437789 0)
(1.12754 0.0058352 0)
(1.10929 0.00882204 0)
(1.09245 0.0126249 0)
(1.0795 0.0166911 0)
(1.06883 0.0206116 0)
(1.06004 0.0238573 0)
(1.05484 0.025476 0)
(1.05435 0.0254185 0)
(1.05867 0.0244312 0)
(1.06853 0.0231089 0)
(1.08441 0.0216597 0)
(1.08162 0.0192247 0)
(0.981434 0.0138846 0)
(0.728773 0.00720753 0)
(0.394529 0.00232197 0)
(0.0745475 0.000131621 0)
(0.107358 0.000164215 0)
(0.67169 0.00392637 0)
(0.961502 0.00660297 0)
(1.10957 0.00823069 0)
(1.13244 0.0103445 0)
(1.11478 0.013847 0)
(1.09758 0.0180655 0)
(1.08387 0.0224509 0)
(1.07214 0.0265674 0)
(1.06197 0.0297224 0)
(1.05518 0.0308503 0)
(1.05341 0.0301031 0)
(1.05674 0.0283264 0)
(1.06599 0.0262495 0)
(1.0808 0.0240779 0)
(1.07353 0.0208989 0)
(0.965695 0.0149743 0)
(0.711269 0.0079622 0)
(0.381623 0.00263229 0)
(0.0709372 0.000146284 0)
(0.111975 0.000219386 0)
(0.683815 0.00528391 0)
(0.968984 0.00938091 0)
(1.11513 0.0122477 0)
(1.13866 0.0151776 0)
(1.12105 0.019421 0)
(1.10318 0.0242386 0)
(1.08849 0.0291812 0)
(1.07538 0.0337257 0)
(1.06341 0.0369439 0)
(1.05479 0.0376365 0)
(1.05153 0.0361475 0)
(1.05375 0.0335184 0)
(1.06232 0.0306436 0)
(1.07587 0.0277428 0)
(1.06406 0.0237376 0)
(0.948637 0.0169486 0)
(0.692221 0.00921833 0)
(0.366863 0.00308809 0)
(0.0667738 0.000169064 0)
(0.118005 0.000293856 0)
(0.700278 0.00700295 0)
(0.980508 0.0127622 0)
(1.12311 0.0169336 0)
(1.14634 0.0206378 0)
(1.12845 0.0257268 0)
(1.10975 0.0314804 0)
(1.09385 0.037335 0)
(1.07903 0.0425101 0)
(1.06483 0.0458468 0)
(1.05398 0.0460693 0)
(1.04886 0.0437311 0)
(1.04974 0.0402194 0)
(1.05751 0.0365405 0)
(1.06955 0.0327812 0)
(1.05266 0.0276226 0)
(0.929482 0.0197271 0)
(0.670483 0.0108967 0)
(0.3495 0.00365904 0)
(0.0618808 0.000199428 0)
(0.125939 0.000401978 0)
(0.721964 0.00935016 0)
(0.99666 0.0171222 0)
(1.13392 0.0228835 0)
(1.15569 0.0276597 0)
(1.13739 0.0339471 0)
(1.11767 0.0409364 0)
(1.10008 0.0478359 0)
(1.08294 0.0535803 0)
(1.06596 0.0568099 0)
(1.05245 0.0562475 0)
(1.04525 0.0528768 0)
(1.04459 0.0483201 0)
(1.05138 0.0435756 0)
(1.06145 0.038853 0)
(1.03893 0.0323496 0)
(0.907681 0.023187 0)
(0.645074 0.0128387 0)
(0.329053 0.00427235 0)
(0.05615 0.000229212 0)
(0.136577 0.000569628 0)
(0.750211 0.0127232 0)
(1.01867 0.0229849 0)
(1.14871 0.0308386 0)
(1.16771 0.0374275 0)
(1.14837 0.0453279 0)
(1.12707 0.0537127 0)
(1.10704 0.0615469 0)
(1.08685 0.0675454 0)
(1.06649 0.0701873 0)
(1.04989 0.0682836 0)
(1.04043 0.0633396 0)
(1.03814 0.057465 0)
(1.0436 0.0517622 0)
(1.05148 0.0460259 0)
(1.02281 0.0382653 0)
(0.882278 0.027483 0)
(0.615062 0.0150367 0)
(0.305224 0.00494085 0)
(0.0495725 0.000258238 0)
(0.151174 0.000838226 0)
(0.787 0.0177177 0)
(1.04815 0.0310714 0)
(1.16887 0.0414201 0)
(1.18359 0.050494 0)
(1.16182 0.0603693 0)
(1.13788 0.0702561 0)
(1.11442 0.0788155 0)
(1.09042 0.08474 0)
(1.06606 0.0864335 0)
(1.0459 0.0828675 0)
(1.03394 0.0760552 0)
(1.03013 0.0683808 0)
(1.03447 0.0613382 0)
(1.03991 0.0547597 0)
(1.00378 0.0458195 0)
(0.85163 0.0325074 0)
(0.579779 0.0174846 0)
(0.277741 0.00565946 0)
(0.0421457 0.000283818 0)
(0.171841 0.00130128 0)
(0.835369 0.0254981 0)
(1.08709 0.0429241 0)
(1.19515 0.0561776 0)
(1.20387 0.0678865 0)
(1.17795 0.0798749 0)
(1.14983 0.0910091 0)
(1.12192 0.0999819 0)
(1.09337 0.105516 0)
(1.06449 0.106036 0)
(1.04045 0.100829 0)
(1.0257 0.0923152 0)
(1.02011 0.0829619 0)
(1.02359 0.0743464 0)
(1.02629 0.0663219 0)
(0.979635 0.0549094 0)
(0.81431 0.0380844 0)
(0.538983 0.0202479 0)
(0.246459 0.00642034 0)
(0.0339388 0.000303111 0)
(0.201858 0.00233647 0)
(0.900894 0.0388426 0)
(1.13811 0.062383 0)
(1.22722 0.0785338 0)
(1.22796 0.0926822 0)
(1.19591 0.105878 0)
(1.16232 0.117332 0)
(1.12913 0.12595 0)
(1.09547 0.130455 0)
(1.06174 0.129334 0)
(1.0337 0.122273 0)
(1.01601 0.112117 0)
(1.00832 0.101277 0)
(1.01019 0.0908927 0)
(1.0081 0.0800832 0)
(0.947624 0.0646791 0)
(0.770148 0.0441784 0)
(0.492779 0.0234432 0)
(0.211905 0.00725057 0)
(0.0252805 0.000312516 0)
(0.242767 0.0086113 1.20349e-19)
(0.987743 0.0658461 1.03711e-19)
(1.19898 0.095679 -3.5416e-20)
(1.26235 0.112674 0)
(1.25248 0.128812 -8.14984e-34)
(1.21349 0.141187 1.16851e-20)
(1.17414 0.151447 -1.97091e-20)
(1.13531 0.158545 0)
(1.09618 0.161158 3.75422e-34)
(1.05726 0.157805 -2.16483e-20)
(1.02486 0.148507 0)
(1.00377 0.136493 -2.44792e-20)
(0.993127 0.123946 -7.13908e-20)
(0.991121 0.111267 -3.34531e-20)
(0.980709 0.0969713 -9.94063e-21)
(0.905617 0.0779806 -5.86818e-21)
(0.715659 0.0535803 0)
(0.437521 0.0284596 4.09983e-21)
(0.174667 0.00929296 4.84399e-21)
(0.0172842 0.0006742 8.73698e-20)
(0.270405 0.0242208 1.06556e-19)
(1.05843 0.108361 5.13828e-22)
(1.24753 0.143679 1.02844e-20)
(1.2933 0.160807 0)
(1.27341 0.175631 -4.40426e-20)
(1.22872 0.185914 -4.83374e-20)
(1.18403 0.19434 -2.05492e-20)
(1.13958 0.199557 -6.88687e-20)
(1.09471 0.200069 0)
(1.0499 0.19423 9.26854e-20)
(1.012 0.182179 8.96263e-20)
(0.985885 0.167426 2.61528e-20)
(0.969755 0.152035 9.30556e-20)
(0.959262 0.135923 1.28568e-19)
(0.936387 0.118178 0)
(0.850582 0.0966504 1.79289e-19)
(0.654351 0.0676957 2.56999e-19)
(0.382676 0.0369356 2.85446e-19)
(0.143024 0.0129159 -3.26121e-19)
(0.011102 0.000993898 -6.14089e-21)
(0.269921 0.0394921 0)
(1.10153 0.16382 2.29659e-20)
(1.2793 0.203136 0)
(1.3161 0.219998 -6.93642e-20)
(1.28921 0.23115 0)
(1.24027 0.237925 -9.99343e-20)
(1.19084 0.24307 4.3103e-20)
(1.14107 0.24515 -1.43237e-19)
(1.09067 0.242368 -1.57216e-21)
(1.04008 0.232851 4.88139e-20)
(0.996603 0.217024 1.95208e-19)
(0.965241 0.198876 -3.11409e-22)
(0.943428 0.180637 -6.72351e-20)
(0.925973 0.162553 -1.20299e-19)
(0.896745 0.14382 1.41742e-19)
(0.811078 0.120614 -2.50413e-19)
(0.621794 0.086515 -3.29248e-20)
(0.36508 0.0492269 0)
(0.141142 0.0186922 1.76224e-23)
(0.011729 0.00165526 0)
(0.262848 0.0529403 4.1015e-19)
(1.12358 0.222582 -1.8355e-19)
(1.29822 0.267486 -1.19433e-19)
(1.32993 0.284309 3.56635e-20)
(1.29859 0.291723 -5.84117e-20)
(1.24692 0.294567 2.12238e-19)
(1.19374 0.295755 9.13343e-20)
(1.13941 0.29388 0)
(1.08395 0.287026 -2.55628e-19)
(1.02791 0.273137 0)
(0.979136 0.25315 -1.03525e-19)
(0.942958 0.231757 -1.23417e-19)
(0.916447 0.211254 -7.2869e-20)
(0.894538 0.191864 -8.69122e-20)
(0.863009 0.172409 0)
(0.782407 0.147654 0)
(0.606132 0.109646 -2.14652e-19)
(0.368154 0.0661789 4.22762e-20)
(0.152095 0.0274098 -2.49155e-20)
(0.015554 0.00299488 -2.91278e-20)
(0.255312 0.0649649 -2.44226e-19)
(1.1325 0.281194 0)
(1.30805 0.332817 2.85187e-19)
(1.33626 0.350068 1.101e-19)
(1.30193 0.354133 1.28324e-19)
(1.24848 0.353143 0)
(1.19242 0.350281 9.40409e-20)
(1.13433 0.344203 1.61689e-19)
(1.07451 0.332967 1.33904e-19)
(1.01359 0.314512 2.27627e-19)
(0.96009 0.290423 0)
(0.919871 0.266048 -2.65695e-19)
(0.889794 0.243717 -1.57055e-19)
(0.864941 0.223474 -9.20946e-20)
(0.832555 0.203474 5.54822e-19)
(0.75822 0.177516 6.5887e-20)
(0.597436 0.135742 3.09832e-19)
(0.376667 0.0859863 -1.4626e-18)
(0.166353 0.0384149 8.68941e-19)
(0.0204282 0.00498262 -1.04731e-18)
(0.248569 0.0759047 -2.17444e-19)
(1.1333 0.337769 4.73371e-20)
(1.31129 0.397216 -4.09132e-20)
(1.33687 0.415198 -1.43948e-19)
(1.30035 0.416316 -1.27367e-19)
(1.24558 0.411784 1.74637e-21)
(1.18723 0.405032 -1.01193e-19)
(1.12606 0.394814 1.70371e-19)
(1.06251 0.379246 -2.87526e-19)
(0.997394 0.356294 0)
(0.93984 0.328275 -1.22257e-19)
(0.896338 0.301143 -1.6026e-21)
(0.863659 0.277123 -1.70327e-19)
(0.836972 0.256038 0)
(0.804725 0.235485 -1.19613e-19)
(0.735539 0.208253 -2.83632e-19)
(0.589449 0.163363 7.56812e-19)
(0.3841 0.107027 -7.44169e-19)
(0.178283 0.0503568 1.05828e-18)
(0.0246105 0.00724187 -1.09963e-18)
(0.243194 0.0861282 -4.0469e-22)
(1.1292 0.39169 -4.64102e-20)
(1.31002 0.459949 -1.64959e-19)
(1.33324 0.478529 7.26438e-20)
(1.29497 0.477075 -6.69168e-20)
(1.2391 0.469321 0)
(1.17887 0.458961 -1.02161e-19)
(1.1151 0.444836 -1.80447e-19)
(1.04838 0.425134 -1.5162e-19)
(0.979627 0.397886 0)
(0.918661 0.36607 -1.28527e-19)
(0.872506 0.336248 -1.53615e-19)
(0.837931 0.310514 1.83665e-19)
(0.810065 0.288376 -1.09551e-19)
(0.77818 0.267059 -5.17727e-19)
(0.713699 0.238411 3.07739e-19)
(0.579795 0.190716 9.18753e-20)
(0.386897 0.127815 0)
(0.185513 0.0619473 -1.01617e-18)
(0.027499 0.00942996 -3.7202e-20)
(0.239137 0.0959362 -2.79882e-20)
(1.12219 0.442826 4.69556e-20)
(1.30544 0.520485 8.69231e-20)
(1.3265 0.539427 2.37704e-19)
(1.28672 0.535727 -2.74942e-19)
(1.2299 0.525092 2.46938e-19)
(1.16807 0.51144 2.19033e-19)
(1.10208 0.493706 -2.88899e-19)
(1.0326 0.470152 8.72966e-20)
(0.960662 0.438827 -5.58747e-19)
(0.896732 0.403319 -1.41924e-19)
(0.848441 0.370754 0)
(0.81245 0.343156 1.97938e-19)
(0.783864 0.319788 2.33998e-19)
(0.752501 0.297563 2.77582e-19)
(0.691758 0.267293 -3.31793e-19)
(0.567451 0.216872 -9.80435e-20)
(0.383998 0.147132 1.15521e-19)
(0.18679 0.0720153 0)
(0.0287307 0.0112095 -8.01265e-20)
(0.236219 0.105467 2.76842e-19)
(1.11371 0.491296 -1.8957e-19)
(1.29843 0.578161 -9.1207e-20)
(1.3175 0.597573 1.64163e-19)
(1.27638 0.59191 -1.40983e-19)
(1.21869 0.5787 -4.02302e-21)
(1.15548 0.562097 -2.36156e-19)
(1.08755 0.541092 -1.03669e-19)
(1.01562 0.513985 -2.61704e-19)
(0.940816 0.478822 2.40692e-22)
(0.874247 0.439692 -4.48625e-19)
(0.824137 0.404274 3.62126e-19)
(0.78711 0.374605 -2.14848e-19)
(0.758115 0.349758 2.54564e-19)
(0.727346 0.326151 0)
(0.669688 0.294112 -1.78537e-19)
(0.552239 0.240291 -8.01133e-22)
(0.375847 0.163262 -4.98721e-19)
(0.183483 0.0796268 -7.34543e-20)
(0.0285097 0.0123701 0)
(0.234275 0.114812 0)
(1.10451 0.537294 -1.99228e-19)
(1.28975 0.632933 -1.83781e-19)
(1.30688 0.652879 -1.70775e-19)
(1.26455 0.645447 -1.56987e-19)
(1.20606 0.629951 0)
(1.14164 0.61072 -1.18438e-19)
(1.07199 0.586785 -1.17121e-21)
(0.997833 0.556453 5.59875e-19)
(0.920387 0.517701 -7.80858e-20)
(0.851365 0.475006 -3.22074e-19)
(0.799611 0.436615 1.90447e-19)
(0.761721 0.40461 -2.03836e-21)
(0.732498 0.377989 2.71079e-19)
(0.702267 0.352744 1.63944e-19)
(0.646816 0.318363 -3.84173e-19)
(0.534206 0.260338 4.54949e-19)
(0.362939 0.176145 1.34332e-19)
(0.175976 0.0846121 5.53888e-19)
(0.026937 0.0128246 -1.48335e-18)
(0.233214 0.1241 5.55171e-20)
(1.09515 0.580995 -9.85295e-20)
(1.28005 0.684854 8.61075e-20)
(1.29514 0.705347 1.74404e-19)
(1.25171 0.696285 0)
(1.19249 0.678754 -1.3797e-19)
(1.12698 0.657204 3.86145e-19)
(1.05579 0.630672 2.32056e-19)
(0.979587 0.597442 0)
(0.899625 0.555369 -1.10545e-18)
(0.828211 0.509191 8.65714e-19)
(0.774868 0.467706 0)
(0.736168 0.43314 2.48435e-19)
(0.706768 0.404417 -2.02115e-21)
(0.676964 0.377171 -5.23766e-19)
(0.623021 0.339929 2.05074e-19)
(0.513607 0.276901 0)
(0.346308 0.185369 7.22354e-19)
(0.165146 0.0871229 0)
(0.0244855 0.0127002 -6.98513e-19)
(0.232853 0.133381 -5.59745e-20)
(1.08604 0.622501 -9.7492e-20)
(1.2695 0.733988 9.37279e-20)
(1.28266 0.754977 0)
(1.23825 0.74444 -1.66861e-19)
(1.17836 0.725104 0)
(1.11188 0.701507 -4.00461e-19)
(1.03928 0.672695 -1.16532e-19)
(0.96117 0.636902 1.02516e-19)
(0.87876 0.591795 -5.45988e-19)
(0.804913 0.542257 9.06815e-20)
(0.749887 0.497578 0)
(0.710335 0.460201 -5.30601e-19)
(0.680738 0.429077 2.06497e-21)
(0.651191 0.399472 0)
(0.598033 0.358829 2.2313e-21)
(0.490457 0.290037 6.57102e-19)
(0.326312 0.1909 -6.22078e-19)
(0.151839 0.0871859 1.83388e-19)
(0.0214544 0.0120334 0)
(0.232858 0.142525 0)
(1.07731 0.66197 -9.80613e-20)
(1.25846 0.780467 -9.08515e-20)
(1.26977 0.801816 -2.30093e-21)
(1.22446 0.789953 -8.2213e-20)
(1.16397 0.769021 -3.12847e-19)
(1.09663 0.743633 1.45196e-19)
(1.02274 0.71284 -1.29921e-19)
(0.942826 0.674805 4.4731e-19)
(0.857985 0.626985 -8.72612e-19)
(0.781582 0.574253 -3.42644e-21)
(0.7247 0.526319 -2.37955e-19)
(0.684154 0.485904 8.56518e-19)
(0.654282 0.452098 -2.42714e-21)
(0.624816 0.419755 -4.0338e-19)
(0.571808 0.375098 -7.17912e-19)
(0.465007 0.299783 0)
(0.303519 0.192924 0)
(0.136583 0.0848553 1.97617e-19)
(0.0180776 0.0108614 -1.15641e-19)
(0.233371 0.151636 -5.58103e-20)
(1.06902 0.699196 2.02411e-19)
(1.24722 0.824357 9.66498e-20)
(1.2567 0.84596 0)
(1.21058 0.832892 -1.55968e-21)
(1.14957 0.810548 -3.20677e-19)
(1.08146 0.783607 3.73585e-19)
(1.0064 0.75111 5.35397e-19)
(0.924763 0.711159 5.8899e-19)
(0.837491 0.660968 -7.17909e-19)
(0.758374 0.605274 -7.40473e-19)
(0.699379 0.554076 6.35968e-19)
(0.657617 0.510411 0)
(0.627314 0.473587 -1.83652e-19)
(0.59775 0.438069 -4.34793e-19)
(0.544309 0.388695 -5.14233e-19)
(0.437186 0.305941 -6.09671e-19)
(0.278457 0.191403 1.80216e-19)
(0.119814 0.0801542 -1.06108e-19)
(0.0143931 0.00922633 3.19949e-22)
(0.233956 0.16062 0)
(1.0613 0.734739 0)
(1.23593 0.865754 2.60488e-21)
(1.24364 0.887508 0)
(1.1968 0.873352 2.66374e-19)
(1.13534 0.849758 2.4689e-19)
(1.06655 0.821468 0)
(0.99043 0.787529 6.80057e-20)
(0.907162 0.745973 9.94011e-19)
(0.817464 0.693776 -1.64662e-18)
(0.735463 0.635425 0)
(0.674013 0.581026 -4.08207e-19)
(0.630678 0.533897 -2.95219e-21)
(0.599731 0.493673 -2.40805e-21)
(0.569885 0.454439 4.64522e-19)
(0.515517 0.39952 -3.97216e-22)
(0.407229 0.308475 -1.3098e-18)
(0.251263 0.186287 3.87152e-19)
(0.102351 0.0734929 1.14383e-19)
(0.010727 0.00731251 0)
(0.234525 0.169418 1.65043e-19)
(1.05387 0.768575 1.0263e-19)
(1.22468 0.904715 1.95229e-19)
(1.23072 0.926562 -3.84836e-19)
(1.18326 0.911403 4.58124e-19)
(1.12141 0.886717 0)
(1.05205 0.857272 2.44479e-19)
(0.974973 0.822129 -1.47669e-19)
(0.890171 0.779271 3.86188e-21)
(0.798078 0.725449 1.19337e-19)
(0.712999 0.664798 9.60226e-19)
(0.648695 0.607354 -1.43999e-19)
(0.60335 0.556609 -5.25482e-19)
(0.571403 0.512506 -2.12498e-19)
(0.541071 0.468786 2.51404e-19)
(0.48544 0.407282 -2.3764e-22)
(0.375733 0.307149 3.52419e-19)
(0.222984 0.177795 -8.31509e-19)
(0.0848573 0.0652728 9.8293e-19)
(0.00721707 0.00523799 1.43346e-19)
(0.234928 0.177905 -5.45863e-20)
(1.04677 0.800796 5.2189e-20)
(1.21358 0.94136 6.11773e-21)
(1.21804 0.963236 -1.93353e-19)
(1.17005 0.947153 -9.11198e-20)
(1.1079 0.921501 -4.60096e-19)
(1.03807 0.891071 8.16922e-20)
(0.960136 0.854937 -6.24189e-19)
(0.873912 0.811059 -1.11361e-18)
(0.77946 0.755991 -9.8933e-19)
(0.691142 0.693468 0)
(0.623578 0.633243 -6.24558e-19)
(0.575663 0.578824 7.53329e-19)
(0.542152 0.530295 0)
(0.511002 0.480981 -5.37773e-19)
(0.454002 0.411472 3.20217e-19)
(0.343161 0.301512 -3.78075e-19)
(0.194775 0.166132 -4.46964e-19)
(0.0682712 0.0560324 -7.9091e-19)
(0.00407479 0.00317501 -6.16571e-19)
(0.235619 0.186218 5.36254e-20)
(1.03984 0.831372 -5.56606e-20)
(1.2027 0.975764 -1.44588e-19)
(1.20569 0.997615 -2.49056e-19)
(1.15726 0.980691 1.97944e-19)
(1.09489 0.954197 -2.84238e-19)
(1.02467 0.922922 2.64634e-19)
(0.945999 0.885999 -6.55672e-19)
(0.858461 0.841362 -6.63748e-19)
(0.761726 0.785418 1.04346e-18)
(0.670055 0.72149 2.11094e-18)
(0.598838 0.658857 0)
(0.547693 0.60084 0)
(0.511756 0.547389 -2.43942e-19)
(0.479121 0.490953 0)
(0.420806 0.411249 6.882e-19)
(0.310155 0.290568 8.12719e-19)
(0.16834 0.151212 0)
(0.0539419 0.0463694 0)
(0.00150052 0.00133751 6.61974e-19)
(0.235922 0.19405 -5.21003e-20)
(1.03313 0.860298 -4.48544e-20)
(1.19209 1.00804 -1.00887e-19)
(1.1937 1.02982 2.00747e-19)
(1.14494 1.01212 2.03932e-19)
(1.08241 0.984881 3.41821e-19)
(1.01191 0.952889 -3.72234e-19)
(0.932613 0.915348 1.55352e-22)
(0.843887 0.870187 -4.99493e-21)
(0.744969 0.813726 -5.61858e-21)
(0.649904 0.748895 1.08782e-18)
(0.57467 0.684314 0)
(0.519606 0.622971 7.57007e-19)
(0.480049 0.564282 5.19979e-19)
(0.444576 0.498935 1.24665e-18)
(0.384753 0.405631 3.69403e-19)
(0.277093 0.272119 -4.37612e-19)
(0.146906 0.131171 -2.57249e-19)
(0.0463303 0.0359338 0)
(0.000898109 0.000338363 7.10592e-19)
(0.236498 0.201857 9.93758e-20)
(1.02661 0.887668 0)
(1.18175 1.03825 -9.80052e-20)
(1.18212 1.05994 1.55397e-19)
(1.13313 1.04152 -2.06087e-19)
(1.0705 1.01364 -4.51537e-19)
(0.999823 0.98103 7.7242e-19)
(0.920007 0.943022 -4.98263e-20)
(0.830224 0.897547 0)
(0.729265 0.840888 -1.16702e-18)
(0.630834 0.775672 -2.37632e-18)
(0.551298 0.709697 9.29667e-20)
(0.491688 0.645483 1.03938e-18)
(0.447043 0.581596 0)
(0.406393 0.50573 8.37342e-19)
(0.343528 0.394362 0)
(0.241518 0.242557 0)
(0.133167 0.0955517 -2.77941e-19)
(0.0640721 0.0135191 0)
(0.0261229 0.0104857 1.90352e-19)
(0.236675 0.209035 9.59216e-20)
(1.02025 0.913835 0)
(1.17167 1.0666 -1.45781e-19)
(1.17089 1.08819 0)
(1.12179 1.06916 1.02207e-19)
(1.05911 1.04074 0)
(0.98834 1.00765 4.62176e-20)
(0.908084 0.969361 9.25782e-20)
(0.817358 0.923809 8.36047e-20)
(0.71446 0.867296 -1.2906e-18)
(0.612706 0.802254 7.30272e-20)
(0.528578 0.735582 7.39056e-19)
(0.463721 0.669015 1.01217e-18)
(0.412201 0.600319 1.34231e-19)
(0.362902 0.513106 6.52609e-19)
(0.292853 0.379442 0)
(0.191966 0.20158 9.18619e-19)
(0.0980052 0.0347804 -5.38409e-19)
(0.0448188 0.0447855 6.26365e-19)
(-0.0687512 0.423788 -7.4094e-19)
(0.236814 0.215978 -7.07598e-20)
(1.01382 0.938578 -1.33679e-19)
(1.16179 1.0934 0)
(1.1599 1.115 5.19456e-21)
(1.11074 1.0956 -2.57756e-19)
(1.04797 1.06688 7.70292e-19)
(0.977162 1.03356 2.96359e-19)
(0.896453 0.995301 0)
(0.804779 0.950059 5.79144e-19)
(0.699915 0.894244 -7.01656e-20)
(0.594647 0.8301 0)
(0.505405 0.763729 0)
(0.434326 0.695349 9.04513e-19)
(0.374039 0.622162 -4.11e-19)
(0.311332 0.524147 -6.57304e-19)
(0.228132 0.366511 0)
(0.110438 0.186053 4.60917e-19)
(0.00857896 0.432133 -5.3527e-19)
(0.0376402 1.86161 -3.00828e-19)
(0.0681135 2.79604 -3.79766e-19)
(0.236785 0.222063 4.24351e-20)
(1.00751 0.962074 1.51688e-19)
(1.1521 1.11863 -7.50551e-20)
(1.14914 1.14023 -1.03049e-19)
(1.10002 1.12061 0)
(1.03714 1.09176 5.23961e-19)
(0.966471 1.05842 4.46197e-19)
(0.885289 1.02041 -4.75141e-20)
(0.792739 0.975778 8.5461e-20)
(0.685995 0.921117 1.24755e-18)
(0.577245 0.858522 1.21575e-18)
(0.482754 0.793688 8.3214e-19)
(0.40459 0.72415 9.07537e-19)
(0.334631 0.645713 -9.59708e-19)
(0.25769 0.541713 -9.87859e-19)
(0.151366 0.392786 0)
(0.0543732 0.821068 0)
(0.110895 2.53115 2.59749e-19)
(0.112364 3.1889 0)
(0.115329 3.38323 6.39253e-19)
(0.239276 0.227614 0)
(1.00192 0.984485 0)
(1.1424 1.14216 0)
(1.13836 1.16365 -2.39416e-20)
(1.08933 1.14396 -2.21468e-19)
(1.02639 1.11524 3.68028e-19)
(0.95616 1.08215 3.02859e-19)
(0.874543 1.04459 -4.79724e-20)
(0.781202 1.00083 7.54556e-19)
(0.672726 0.947774 -9.98493e-21)
(0.560652 0.887404 2.42434e-18)
(0.460996 0.825274 -9.46615e-20)
(0.374994 0.756233 1.11173e-19)
(0.296268 0.66808 1.37633e-19)
(0.197055 0.56663 -9.56122e-22)
(0.115973 0.953609 1.75833e-21)
(0.153266 2.68265 -1.33678e-18)
(0.165266 3.28427 -5.11969e-19)
(0.151906 3.42531 2.76123e-19)
(0.136786 3.44884 -3.13277e-19)
(0.156803 0.183985 -1.65538e-20)
(0.990879 1.00863 0)
(1.13243 1.16422 1.18186e-19)
(1.12818 1.18575 2.33389e-19)
(1.07943 1.16642 -4.0413e-19)
(1.01663 1.13796 -3.78935e-19)
(0.946124 1.10484 -3.33496e-19)
(0.864315 1.06796 6.06747e-19)
(0.770341 1.02537 -6.34921e-19)
(0.660416 0.97433 0)
(0.545299 0.916881 1.20842e-18)
(0.440716 0.8583 -6.85325e-19)
(0.346096 0.794471 0)
(0.259677 0.692972 1.29327e-19)
(0.168086 0.813741 3.0674e-19)
(0.168824 2.4353 -3.66875e-19)
(0.233817 3.31914 4.16346e-19)
(0.210864 3.44178 2.32512e-19)
(0.17501 3.46429 2.66491e-19)
(0.151257 3.47499 4.44072e-19)
(0.282292 0.266027 3.81243e-20)
(0.975741 1.01827 0)
(1.11439 1.18903 -1.02503e-19)
(1.11372 1.21816 -2.10513e-19)
(1.06346 1.19946 3.75373e-19)
(1.00013 1.17149 3.5054e-19)
(0.92879 1.13979 4.28066e-19)
(0.846374 1.10406 4.64396e-20)
(0.751153 1.06354 6.41834e-19)
(0.63869 1.01617 1.14063e-18)
(0.518887 0.964765 7.1165e-20)
(0.406647 0.913587 6.21405e-19)
(0.295838 0.859039 1.06539e-19)
(0.225338 0.975644 -1.29324e-19)
(0.242858 2.2804 -2.97417e-19)
(0.30895 3.32309 3.05044e-19)
(0.293573 3.47536 -3.48861e-19)
(0.255771 3.49788 -2.04084e-19)
(0.216672 3.5258 -1.96509e-19)
(0.162745 3.51883 -2.24597e-20)
(0.270009 0.262689 0)
(0.97332 1.04062 -1.29009e-20)
(1.10655 1.21217 1.58926e-20)
(1.10404 1.24127 1.91045e-20)
(1.05348 1.22245 2.27293e-19)
(0.990215 1.19471 -3.30717e-19)
(0.918539 1.16318 -2.66952e-19)
(0.836014 1.12823 4.39195e-20)
(0.74046 1.08914 -6.89442e-19)
(0.627083 1.04449 -1.43834e-20)
(0.505242 0.997693 -2.259e-18)
(0.389771 0.952533 8.80633e-20)
(0.283312 0.92536 -1.02409e-19)
(0.265717 1.45495 -1.23113e-19)
(0.3457 3.06963 1.78251e-20)
(0.371408 3.47208 8.82715e-22)
(0.329157 3.53426 5.83739e-19)
(0.290272 3.55874 3.12833e-19)
(0.239393 3.58287 -1.29953e-19)
(0.177391 3.5784 -1.30332e-19)
(0.253384 0.260813 -1.80478e-20)
(0.969263 1.06556 -7.22503e-20)
(1.09823 1.23737 4.36829e-20)
(1.09381 1.2658 7.30243e-20)
(1.04302 1.24677 0)
(0.979886 1.21905 -4.19881e-19)
(0.908167 1.18776 -3.71038e-19)
(0.825814 1.15355 4.12841e-20)
(0.730247 1.11596 -7.53856e-20)
(0.616461 1.07421 -1.09745e-18)
(0.493342 1.03228 -1.07343e-18)
(0.37645 0.99403 -7.49116e-19)
(0.286297 1.0489 -7.85227e-19)
(0.335326 2.12267 8.04126e-19)
(0.434728 3.37189 7.15041e-19)
(0.417697 3.53517 0)
(0.369181 3.58062 0)
(0.331134 3.62343 -1.09771e-19)
(0.274837 3.68635 0)
(0.18972 3.65968 -1.82999e-19)
(0.242222 0.262297 1.09631e-20)
(0.963214 1.09152 4.1136e-20)
(1.08849 1.26373 0)
(1.08227 1.29114 6.18044e-21)
(1.03137 1.27169 1.8224e-19)
(0.968475 1.24386 -5.77995e-19)
(0.897046 1.21281 -2.29134e-19)
(0.815069 1.17925 3.53516e-20)
(0.719729 1.14307 -5.44276e-19)
(0.605919 1.10414 5.944e-20)
(0.482311 1.06718 0)
(0.36649 1.0384 0)
(0.313146 1.27541 -7.4394e-19)
(0.421201 2.80205 3.08792e-19)
(0.510076 3.4888 4.30483e-19)
(0.464458 3.57071 0)
(0.424186 3.63128 -1.47763e-19)
(0.384858 3.69805 1.04947e-19)
(0.3383 3.68822 -3.50726e-20)
(0.219045 3.6751 -2.78662e-21)