/*--------------------------------*- C++ -*----------------------------------*\
  =========                 |
  \\      /  F ield         | OpenFOAM: The Open Source CFD Toolbox
   \\    /   O peration     | Website:  https://openfoam.org
    \\  /    A nd           | Version:  10
     \\/     M anipulation  |
\*---------------------------------------------------------------------------*/
FoamFile
{
    format      ascii;
    class       volScalarField;
    location    "22";
    object      p;
}
// * * * * * * * * * * * * * * * * * * * * * * * * * * * * * * * * * * * * * //

dimensions      [0 2 -2 0 0 0 0];

internalField   nonuniform List<scalar> 
8800
(
0.421188
0.373403
0.334715
0.30572
0.284853
0.270014
0.259402
0.251893
0.247018
0.244859
0.245978
0.250015
0.256525
0.265731
0.27843
0.296107
0.320844
0.354756
0.397279
0.455977
0.252438
0.260116
0.267597
0.270907
0.269405
0.264326
0.257834
0.251738
0.246973
0.24405
0.243637
0.245974
0.250309
0.256129
0.262798
0.269001
0.272587
0.271819
0.266355
0.257639
0.230843
0.237008
0.241143
0.244098
0.246156
0.246764
0.24565
0.243522
0.241444
0.240413
0.241212
0.243422
0.246062
0.248108
0.248608
0.247323
0.244911
0.241464
0.236881
0.233113
0.225047
0.227703
0.230475
0.2329
0.234553
0.235723
0.236458
0.236546
0.23618
0.236001
0.236565
0.23754
0.238199
0.238105
0.237364
0.236163
0.234255
0.231608
0.22916
0.227655
0.21969
0.221122
0.222939
0.225017
0.226844
0.228216
0.229209
0.229978
0.230523
0.230944
0.231375
0.23163
0.231509
0.231027
0.230153
0.228747
0.226914
0.224954
0.223587
0.222758
0.214656
0.215579
0.216881
0.218527
0.220237
0.221828
0.22315
0.2242
0.22508
0.225806
0.226236
0.226279
0.225966
0.225265
0.224137
0.222713
0.221191
0.219771
0.218875
0.218335
0.209866
0.210534
0.211579
0.213005
0.214537
0.216099
0.21762
0.218978
0.220115
0.221026
0.22154
0.221547
0.221081
0.220204
0.219065
0.217814
0.216526
0.215388
0.214717
0.214331
0.205271
0.205773
0.206665
0.207967
0.209409
0.210919
0.212465
0.213971
0.215321
0.21642
0.217061
0.217102
0.216621
0.215787
0.214764
0.213649
0.212515
0.211553
0.211023
0.210739
0.20092
0.201295
0.202067
0.203285
0.204682
0.206134
0.207628
0.209172
0.210703
0.212055
0.212836
0.212941
0.212581
0.211936
0.211097
0.210119
0.209104
0.208278
0.207863
0.207656
0.196803
0.19708
0.197767
0.198944
0.200332
0.201811
0.203371
0.20495
0.20652
0.208002
0.209054
0.209473
0.209374
0.208876
0.208134
0.20726
0.206332
0.205608
0.205281
0.205136
0.192989
0.193168
0.193783
0.194916
0.196262
0.197697
0.199256
0.200967
0.202774
0.204544
0.205875
0.206508
0.206586
0.206306
0.205784
0.205087
0.204287
0.203667
0.203425
0.20334
0.189607
0.189708
0.190188
0.19115
0.192339
0.193673
0.195179
0.196873
0.198764
0.200798
0.202526
0.203607
0.204118
0.204215
0.204007
0.203609
0.203087
0.202685
0.202551
0.202506
0.186394
0.186451
0.1868
0.187584
0.188654
0.189938
0.191485
0.193344
0.195521
0.197958
0.200156
0.201642
0.202489
0.202905
0.20302
0.202928
0.202716
0.202561
0.202518
0.202484
0.182815
0.182873
0.183139
0.18375
0.18467
0.185861
0.187414
0.189382
0.191835
0.194753
0.197548
0.199619
0.201034
0.201895
0.202424
0.20272
0.202853
0.202921
0.202932
0.202893
0.178454
0.178512
0.178775
0.179343
0.180231
0.181494
0.183216
0.185501
0.188424
0.191988
0.19551
0.198233
0.200124
0.201429
0.202311
0.202912
0.203313
0.203513
0.203548
0.203503
0.173104
0.173164
0.173474
0.174115
0.175103
0.176538
0.178562
0.181282
0.184833
0.189233
0.193646
0.197112
0.199588
0.201369
0.202623
0.203495
0.204076
0.204348
0.204408
0.204363
0.166709
0.166758
0.167124
0.167908
0.169142
0.170924
0.17339
0.176736
0.181103
0.186545
0.192065
0.196454
0.199636
0.201906
0.203498
0.204685
0.205375
0.205702
0.205795
0.205751
0.159277
0.159315
0.159752
0.160797
0.162297
0.164545
0.167626
0.171773
0.177187
0.183943
0.190822
0.196315
0.200336
0.20321
0.205247
0.206635
0.207475
0.20789
0.208026
0.207982
0.150656
0.150685
0.1512
0.152441
0.154447
0.157186
0.161057
0.166223
0.172955
0.181353
0.189898
0.196749
0.201781
0.205389
0.207945
0.209619
0.210666
0.211209
0.211389
0.21134
0.14052
0.140555
0.141184
0.14264
0.145117
0.148661
0.15346
0.159933
0.168358
0.17881
0.1894
0.197881
0.204114
0.208586
0.211734
0.21385
0.215175
0.215877
0.216099
0.216037
0.128224
0.128269
0.129053
0.130906
0.133984
0.138415
0.144525
0.152727
0.163316
0.17633
0.189405
0.19982
0.207463
0.212979
0.216848
0.219485
0.221159
0.222039
0.222306
0.222227
0.112944
0.11301
0.11405
0.116456
0.120404
0.1261
0.133954
0.144426
0.15779
0.173983
0.190046
0.202752
0.212069
0.218764
0.223495
0.226749
0.228833
0.229908
0.230231
0.23013
0.0935196
0.0936249
0.0950589
0.0983148
0.103598
0.111114
0.121399
0.134907
0.151811
0.17188
0.191466
0.206819
0.218046
0.226137
0.231883
0.235872
0.23845
0.239781
0.240156
0.240026
0.0681319
0.0683089
0.0704209
0.0751093
0.0825246
0.0928243
0.106588
0.124151
0.145503
0.170203
0.193841
0.212187
0.225581
0.235274
0.242218
0.247088
0.250249
0.251861
0.252298
0.252134
0.0337664
0.0341303
0.0376178
0.0449997
0.0560201
0.0706684
0.0894035
0.112307
0.139127
0.169206
0.197366
0.218993
0.234776
0.246283
0.254634
0.260581
0.264472
0.26643
0.266922
0.266707
-0.0153893
-0.0140149
-0.00696757
0.00591938
0.0232111
0.0445709
0.0701742
0.0998387
0.133107
0.169188
0.202205
0.227304
0.245635
0.259132
0.269103
0.276366
0.281199
0.283615
0.28417
0.283883
-0.0886806
-0.0803532
-0.0640758
-0.0411851
-0.0144462
0.0158834
0.0498977
0.0873681
0.127819
0.170485
0.208835
0.237835
0.259145
0.275078
0.28717
0.296314
0.302656
0.305992
0.306857
0.306708
-0.167147
-0.148219
-0.122098
-0.0888408
-0.0523752
-0.0129373
0.0295882
0.075085
0.123176
0.173216
0.217996
0.252032
0.277352
0.296636
0.311645
0.323385
0.331915
0.336877
0.338556
0.338588
-0.230687
-0.209074
-0.174905
-0.133255
-0.0882439
-0.0403326
0.0103373
0.063593
0.119066
0.176135
0.226873
0.265404
0.294184
0.316257
0.333532
0.347043
0.357171
0.363153
0.364493
0.364701
-0.282389
-0.258795
-0.219671
-0.172003
-0.120308
-0.0654004
-0.00763466
0.0526354
0.114906
0.178475
0.234597
0.276984
0.308509
0.332588
0.351369
0.366086
0.377033
0.38342
0.385062
0.38538
-0.324977
-0.300443
-0.257796
-0.205531
-0.148525
-0.0879149
-0.0241422
0.0422677
0.110629
0.180054
0.240937
0.286561
0.320216
0.345726
0.365483
0.380902
0.392208
0.398912
0.400924
0.401251
-0.361322
-0.336253
-0.29101
-0.235051
-0.173696
-0.10828
-0.0393516
0.032434
0.106239
0.180948
0.246095
0.29449
0.329839
0.356355
0.376668
0.392342
0.403743
0.410509
0.412674
0.412956
-0.393361
-0.367978
-0.320747
-0.261729
-0.196711
-0.127144
-0.053687
0.0229058
0.101654
0.181244
0.250322
0.301245
0.338081
0.36539
0.386039
0.401772
0.413152
0.419933
0.422227
0.42249
-0.422544
-0.396874
-0.348013
-0.286401
-0.218241
-0.145044
-0.0675486
0.0134025
0.096722
0.180912
0.253797
0.307175
0.345396
0.373422
0.394384
0.410182
0.421549
0.428259
0.43065
0.430891
-0.449723
-0.423796
-0.373519
-0.309678
-0.238759
-0.162357
-0.0812525
0.00367981
0.0912754
0.179884
0.256497
0.312346
0.352041
0.380883
0.402234
0.418171
0.429533
0.436111
0.438531
0.438854
-0.475597
-0.449348
-0.39777
-0.33201
-0.258631
-0.17938
-0.0950163
-0.00643514
0.0851601
0.178028
0.258418
0.316929
0.3583
0.388102
0.409954
0.426105
0.437512
0.443993
0.446343
0.446656
-0.500449
-0.47386
-0.421162
-0.353654
-0.278082
-0.196279
-0.108983
-0.0170647
0.0782876
0.175333
0.259642
0.321012
0.364256
0.395217
0.417733
0.434222
0.445738
0.452169
0.454378
0.45462
-0.524615
-0.497636
-0.443937
-0.374792
-0.297264
-0.213187
-0.123237
-0.028256
0.0706322
0.171759
0.260053
0.324532
0.369931
0.402297
0.425665
0.442621
0.454307
0.4607
0.462741
0.46289
-0.548146
-0.520654
-0.466181
-0.395533
-0.316265
-0.230143
-0.137804
-0.0400275
0.0621474
0.167185
0.259543
0.327414
0.375311
0.409346
0.43376
0.45131
0.463216
0.469566
0.471468
0.471477
-0.571126
-0.543214
-0.487857
-0.415907
-0.335088
-0.247149
-0.152685
-0.0523994
0.052784
0.161555
0.258024
0.329538
0.380279
0.416313
0.441997
0.460266
0.472425
0.478676
0.480412
0.480297
-0.593632
-0.565226
-0.509036
-0.435921
-0.353731
-0.264187
-0.167849
-0.0653381
0.0425741
0.154853
0.255375
0.330747
0.384695
0.423114
0.450339
0.469442
0.481847
0.48792
0.48943
0.489212
-0.615676
-0.586715
-0.529729
-0.455549
-0.372141
-0.281201
-0.183225
-0.0787676
0.0315722
0.14705
0.251497
0.330855
0.388373
0.429638
0.458769
0.478833
0.4914
0.497176
0.4984
0.49809
-0.637092
-0.607616
-0.549874
-0.474747
-0.390266
-0.29811
-0.198736
-0.0925974
0.0198432
0.138179
0.246312
0.329677
0.391052
0.4357
0.467289
0.488536
0.501065
0.506262
0.507102
0.506709
-0.657827
-0.627868
-0.569434
-0.493456
-0.408043
-0.314849
-0.214285
-0.106744
0.00747855
0.128292
0.239776
0.327039
0.392446
0.441004
0.475852
0.498838
0.511091
0.515085
0.515281
0.514841
-0.677955
-0.647436
-0.588374
-0.511633
-0.425403
-0.331331
-0.229779
-0.121094
-0.00540849
0.117476
0.231882
0.322805
0.392228
0.445079
0.484198
0.510168
0.522415
0.524135
0.522777
0.52236
-0.697299
-0.666302
-0.606638
-0.529212
-0.442286
-0.347473
-0.245123
-0.135528
-0.0186894
0.105855
0.222673
0.316878
0.390104
0.447255
0.491579
0.522552
0.53683
0.536156
0.531087
0.529555
-0.715948
-0.684457
-0.624247
-0.546219
-0.458725
-0.363324
-0.260372
-0.150108
-0.0324339
0.0933587
0.212034
0.30902
0.385775
0.446707
0.496524
0.534739
0.555153
0.557148
0.546992
0.527371
-0.73384
-0.701906
-0.641324
-0.56284
-0.475008
-0.379209
-0.275938
-0.165319
-0.0471912
0.0793239
0.199267
0.298362
0.378484
0.442247
0.495916
0.541842
0.568775
0.566859
0.551674
0.52925
-0.750817
-0.718811
-0.657694
-0.578826
-0.490846
-0.394788
-0.291596
-0.180828
-0.0626295
0.0640683
0.184577
0.284692
0.367809
0.433299
0.484672
0.531815
0.558517
0.547533
0.476379
0.438405
-0.766261
-0.736249
-0.673007
-0.593604
-0.50554
-0.409593
-0.307059
-0.196416
-0.0785298
0.0477437
0.167994
0.267919
0.352978
0.420253
0.462026
0.493025
0.505159
0.458958
0.384697
0.337296
-0.820787
-0.751219
-0.686961
-0.608514
-0.520491
-0.424984
-0.322389
-0.212337
-0.0952193
0.0299683
0.149054
0.247744
0.331351
0.404962
0.41044
0.423548
0.393519
0.329079
0.248263
0.202607
-0.781824
-0.766401
-0.707062
-0.629713
-0.542071
-0.447009
-0.345546
-0.236546
-0.121006
0.0018451
0.117594
0.212814
0.287888
0.358299
0.36004
0.249511
0.139662
0.0634691
-0.0149935
0.0250216
-0.811547
-0.783191
-0.723408
-0.646157
-0.558898
-0.464235
-0.362725
-0.254599
-0.14046
-0.0198935
0.0924155
0.183247
0.250695
0.288214
0.239905
0.0871239
-0.0518948
-0.152194
-0.263604
-0.199034
-0.834337
-0.802872
-0.742246
-0.664638
-0.577489
-0.483032
-0.381804
-0.274739
-0.162304
-0.0445397
0.0636513
0.148807
0.20657
0.215422
0.103072
-0.0909542
-0.260993
-0.394185
-0.55403
-0.49922
-0.856359
-0.823411
-0.7618
-0.683457
-0.596213
-0.501956
-0.401386
-0.295491
-0.184928
-0.070272
0.0331117
0.111969
0.157045
0.127836
-0.0428348
-0.268833
-0.486628
-0.682565
-0.908531
-0.909323
-0.877451
-0.844337
-0.78199
-0.703017
-0.615653
-0.521656
-0.42184
-0.317212
-0.208738
-0.0975
0.000555423
0.0724547
0.100177
0.035437
-0.18365
-0.429695
-0.686665
-0.917864
-1.20883
-1.56522
-0.898669
-0.86578
-0.803046
-0.723684
-0.636194
-0.542414
-0.443276
-0.339926
-0.233615
-0.125972
-0.0334375
0.030817
0.0415839
-0.0746277
-0.307511
-0.554384
-0.80426
-1.01836
-1.1019
-1.22884
-0.920748
-0.888098
-0.825245
-0.745754
-0.658256
-0.564775
-0.466399
-0.364483
-0.260627
-0.157033
-0.0704416
-0.0152882
-0.0280229
-0.191973
-0.41681
-0.644001
-0.844194
-0.963867
-0.988654
-1.01246
-0.944021
-0.911571
-0.848714
-0.769258
-0.681909
-0.588874
-0.49147
-0.391262
-0.29025
-0.191298
-0.111113
-0.0666504
-0.106021
-0.299707
-0.516328
-0.717243
-0.871075
-0.929172
-0.945331
-0.949174
-0.968678
-0.936318
-0.873485
-0.794132
-0.707049
-0.614646
-0.518421
-0.420214
-0.322447
-0.228747
-0.155515
-0.124067
-0.185294
-0.40258
-0.609141
-0.789639
-0.906928
-0.919262
-0.923546
-0.924118
-0.99464
-0.962188
-0.899559
-0.820308
-0.733613
-0.641993
-0.547154
-0.451239
-0.357096
-0.269201
-0.203533
-0.184011
-0.274677
-0.499808
-0.69668
-0.85519
-0.900961
-0.912794
-0.91496
-0.914651
-1.02162
-0.989059
-0.926742
-0.847633
-0.761433
-0.670754
-0.577507
-0.48415
-0.394026
-0.312332
-0.254929
-0.246988
-0.37764
-0.592275
-0.777041
-0.897562
-0.917609
-0.911847
-0.911306
-0.910728
-1.04901
-1.01667
-0.954558
-0.875849
-0.790238
-0.70065
-0.609183
-0.518616
-0.432875
-0.357711
-0.308854
-0.318057
-0.478185
-0.680156
-0.852747
-0.906725
-0.918762
-0.914855
-0.910942
-0.909789
-1.07649
-1.04442
-0.982608
-0.904485
-0.819604
-0.731235
-0.641728
-0.554131
-0.473023
-0.40478
-0.364219
-0.392285
-0.575122
-0.765897
-0.915494
-0.961527
-0.939907
-0.918802
-0.906548
-0.903524
-1.10304
-1.07164
-1.01046
-0.932918
-0.848888
-0.761902
-0.67448
-0.589987
-0.513534
-0.452646
-0.42035
-0.462668
-0.66254
-0.859845
-0.958562
-0.956636
-0.951422
-0.95024
-0.945526
-0.940269
-1.12769
-1.09694
-1.03717
-0.960356
-0.877356
-0.791803
-0.706535
-0.625214
-0.553226
-0.499748
-0.476163
-0.535307
-0.740117
-0.929474
-1.09583
-1.10601
-1.10874
-1.11823
-1.11547
-1.10297
-1.1491
-1.11966
-1.06133
-0.985763
-0.904009
-0.819976
-0.736766
-0.658476
-0.590707
-0.543841
-0.530224
-0.609024
-0.835519
-0.994877
-1.19174
-1.25276
-1.31264
-1.36176
-1.35499
-1.35041
-1.16583
-1.13823
-1.08194
-1.00791
-0.927613
-0.845183
-0.763891
-0.688051
-0.624205
-0.582514
-0.58203
-0.678205
-0.980649
-1.01617
-0.691778
-0.910516
-1.34092
-1.48548
-1.47041
-1.46918
-1.17647
-1.15131
-1.09771
-1.02559
-0.946861
-0.866044
-0.786368
-0.712149
-0.651013
-0.613957
-0.626403
-0.745577
-1.14754
-1.43893
-1.50351
-1.78724
-1.83422
-1.72236
-1.59698
-1.61108
-1.17934
-1.15754
-1.10733
-1.03757
-0.960559
-0.88118
-0.802585
-0.729047
-0.667853
-0.6339
-0.651818
-0.828223
-1.38822
-2.31405
-3.24454
-3.73252
-3.64638
-3.11998
-2.63461
-2.43802
-1.17374
-1.15564
-1.10969
-1.04295
-0.967737
-0.889524
-0.811179
-0.736787
-0.672707
-0.632551
-0.647395
-0.813198
-1.38812
-2.18416
-2.96168
-3.31313
-3.28985
-3.00626
-2.66822
-2.48876
-1.1585
-1.144
-1.10403
-1.04125
-0.967966
-0.890529
-0.811522
-0.734166
-0.663878
-0.608425
-0.596608
-0.630751
-0.848708
-0.993178
-1.09311
-1.02943
-0.818004
-0.583701
-0.393584
-0.294091
-1.13468
-1.12422
-1.09061
-1.03285
-0.961548
-0.884492
-0.804022
-0.722387
-0.640873
-0.566015
-0.494713
-0.408302
-0.21507
0.179666
0.657148
1.12741
1.47653
1.69799
1.81083
1.84612
-1.10467
-1.09811
-1.07162
-1.01928
-0.949817
-0.872825
-0.790613
-0.703878
-0.61297
-0.514167
-0.408839
-0.306625
0.0312003
0.632466
1.28062
1.85529
2.27915
2.52652
2.63704
2.66959
-1.07202
-1.06842
-1.05024
-1.00274
-0.934745
-0.857578
-0.774204
-0.68514
-0.588181
-0.475771
-0.359072
-0.228354
-0.0176384
0.503401
1.09066
1.59767
1.9662
2.1838
2.28902
2.32577
-1.04092
-1.03934
-1.02778
-0.985278
-0.91763
-0.839806
-0.756962
-0.668726
-0.571849
-0.460362
-0.340785
-0.216467
-0.0808057
0.21706
0.627977
0.983062
1.25678
1.42561
1.509
1.53672
-1.0012
-1.00242
-0.995443
-0.957635
-0.892072
-0.816265
-0.738003
-0.655543
-0.565398
-0.461265
-0.351992
-0.251312
-0.149806
0.00480351
0.27774
0.53097
0.7271
0.851359
0.917598
0.936035
-0.929869
-0.931716
-0.926909
-0.897291
-0.843228
-0.779504
-0.712548
-0.641214
-0.561229
-0.467783
-0.370836
-0.29464
-0.22704
-0.140771
0.0417699
0.213993
0.342074
0.421009
0.456157
0.465006
-0.830048
-0.830263
-0.825902
-0.80808
-0.77354
-0.729884
-0.68062
-0.624308
-0.556856
-0.474291
-0.391347
-0.335107
-0.30951
-0.263074
-0.133031
-0.0138201
0.0698284
0.117312
0.137672
0.141187
-0.739409
-0.738505
-0.735452
-0.726833
-0.709283
-0.683542
-0.651222
-0.610011
-0.554719
-0.480083
-0.400192
-0.348524
-0.341971
-0.313917
-0.226389
-0.15024
-0.0976934
-0.0688568
-0.0567644
-0.0564131
-0.685651
-0.68432
-0.682122
-0.678148
-0.669497
-0.654906
-0.634564
-0.605562
-0.560973
-0.490579
-0.40689
-0.340653
-0.308593
-0.27928
-0.231589
-0.194023
-0.173038
-0.162197
-0.158618
-0.159239
-0.669632
-0.668443
-0.666697
-0.664205
-0.659163
-0.650674
-0.638424
-0.619796
-0.586745
-0.522638
-0.430491
-0.338235
-0.274307
-0.245139
-0.234154
-0.221843
-0.207223
-0.197545
-0.192236
-0.193138
-0.680929
-0.680031
-0.679019
-0.677945
-0.675998
-0.673222
-0.670166
-0.665635
-0.651799
-0.609481
-0.517994
-0.395835
-0.301029
-0.27535
-0.26874
-0.250016
-0.232347
-0.21457
-0.205925
-0.207222
-0.709574
-0.709255
-0.709557
-0.710847
-0.713615
-0.719626
-0.731714
-0.752998
-0.782413
-0.80085
-0.734841
-0.577033
-0.450988
-0.407354
-0.374899
-0.325596
-0.269533
-0.229253
-0.214926
-0.219355
-0.743297
-0.743953
-0.746187
-0.751004
-0.760819
-0.780024
-0.816052
-0.882615
-0.998757
-1.14084
-1.12676
-0.897671
-0.704258
-0.626392
-0.537903
-0.433119
-0.340393
-0.279054
-0.26285
-0.266909
-0.766515
-0.768408
-0.772893
-0.781953
-0.800236
-0.835506
-0.902193
-1.03192
-1.27909
-1.62779
-1.68624
-1.34788
-1.03187
-0.875668
-0.735779
-0.583752
-0.458155
-0.387419
-0.378677
-0.383303
-0.762438
-0.765294
-0.77154
-0.784417
-0.809677
-0.859311
-0.953637
-1.14096
-1.51263
-2.05248
-2.23289
-1.8102
-1.36004
-1.12694
-0.945306
-0.780306
-0.663893
-0.608614
-0.601583
-0.606108
-0.717879
-0.721092
-0.727935
-0.741964
-0.770284
-0.824909
-0.929668
-1.13942
-1.55429
-2.14946
-2.37137
-1.96474
-1.52601
-1.30549
-1.11541
-1.00104
-0.94637
-0.920663
-0.904346
-0.901315
-0.631537
-0.634323
-0.640235
-0.652397
-0.677325
-0.725431
-0.818705
-1.00688
-1.37425
-1.87904
-2.01811
-1.72022
-1.45217
-1.27329
-1.15723
-1.12575
-1.12356
-1.10452
-1.08492
-1.07666
-0.5149
-0.516707
-0.520578
-0.528851
-0.54639
-0.580637
-0.647252
-0.78118
-1.04502
-1.41145
-1.51663
-1.36165
-1.19888
-1.05657
-1.00808
-1.03139
-1.05066
-1.04186
-1.02984
-1.02383
-0.38714
-0.387825
-0.389442
-0.393407
-0.402613
-0.421187
-0.457594
-0.530682
-0.677593
-0.902383
-0.988432
-0.918737
-0.802199
-0.735747
-0.75778
-0.818278
-0.832574
-0.831912
-0.828984
-0.826574
-0.267167
-0.266967
-0.266894
-0.267515
-0.270096
-0.27608
-0.288387
-0.313435
-0.364358
-0.45745
-0.500204
-0.456095
-0.414277
-0.444892
-0.526392
-0.576291
-0.589905
-0.593357
-0.594105
-0.593524
-0.167714
-0.167045
-0.166092
-0.16493
-0.163733
-0.162346
-0.160646
-0.158527
-0.155049
-0.140028
-0.12275
-0.125827
-0.180134
-0.264954
-0.333087
-0.366345
-0.379966
-0.385286
-0.388344
-0.388985
-0.0935864
-0.0928062
-0.0916695
-0.0900566
-0.0875795
-0.0834414
-0.0765571
-0.0651637
-0.0463966
-0.0172382
0.00703526
-0.01253
-0.0809044
-0.148879
-0.193716
-0.217014
-0.227482
-0.233276
-0.23678
-0.237849
-0.0433797
-0.0427021
-0.0417564
-0.0404296
-0.0381538
-0.034026
-0.0269993
-0.0156462
0.00151455
0.0231729
0.0328463
0.0113794
-0.0359126
-0.0800378
-0.109642
-0.125192
-0.132728
-0.136849
-0.139458
-0.140326
-0.012477
-0.0119771
-0.011328
-0.0105161
-0.00897808
-0.00594579
-0.000668778
0.00764825
0.0192351
0.0312441
0.0316342
0.0130488
-0.0168533
-0.0438523
-0.0620969
-0.0721885
-0.0771041
-0.0797449
-0.0813921
-0.0819491
0.00441961
0.00475099
0.00513549
0.00548237
0.00627945
0.00809861
0.0114068
0.0165424
0.0231639
0.0285135
0.0250122
0.0107112
-0.0080704
-0.0244107
-0.0355309
-0.0418136
-0.0449266
-0.0465545
-0.0475286
-0.0478529
0.0119022
0.0121044
0.0122938
0.0123344
0.0126083
0.0134899
0.0152671
0.0180327
0.0212989
0.0229431
0.0185875
0.00834676
-0.00345254
-0.013363
-0.0201486
-0.0240799
-0.026066
-0.0270754
-0.027652
-0.0278384
0.0134208
0.0135368
0.0136092
0.0134954
0.0134666
0.0137588
0.0145493
0.0158281
0.0171655
0.0171065
0.0132647
0.00633057
-0.000992054
-0.00697828
-0.0110965
-0.0135497
-0.0148309
-0.0154436
-0.0157712
-0.0158794
0.0113222
0.011386
0.0114002
0.0112415
0.011082
0.0110774
0.0113303
0.0118017
0.012185
0.0115856
0.00878575
0.00444452
0.000117951
-0.00334859
-0.00573905
-0.00718833
-0.00794934
-0.00831079
-0.00849441
-0.00855685
0.007098
0.00713501
0.00713899
0.00701408
0.00686196
0.00677244
0.00679745
0.006903
0.0069168
0.00638437
0.00477058
0.00249678
0.000321098
-0.00139181
-0.00256447
-0.00327083
-0.00362886
-0.00378906
-0.00386399
-0.00390026
0.00166377
0.00168263
0.00178153
0.00189413
0.00190548
0.00185594
0.00178085
0.00170008
0.00159903
0.00142389
0.00107211
0.000531539
-2.98127e-05
-0.000506731
-0.000845562
-0.0010302
-0.00104775
-0.000929961
-0.000808696
-0.00074773
-0.642796
-0.436696
-0.202011
-0.00545725
0.153733
0.281551
0.388987
0.479601
0.520468
0.497893
-0.271858
-0.128415
0.0225214
0.153002
0.263703
0.356222
0.43136
0.484865
0.512421
0.523967
-0.0139735
0.0824347
0.184235
0.27468
0.352714
0.418163
0.470178
0.508165
0.535095
0.552479
0.169495
0.2362
0.30755
0.372577
0.429072
0.476945
0.516065
0.547003
0.571726
0.589644
0.309358
0.357705
0.409241
0.458131
0.501222
0.538631
0.570431
0.596628
0.618214
0.635824
0.42261
0.458791
0.500291
0.539156
0.574586
0.606131
0.633514
0.656338
0.674982
0.692229
0.520695
0.551283
0.58763
0.621773
0.65348
0.682118
0.707026
0.727603
0.743654
0.760709
0.612717
0.643111
0.678578
0.711871
0.742567
0.770088
0.793705
0.812752
0.826509
0.843562
0.710178
0.744033
0.78159
0.81597
0.846711
0.873494
0.895931
0.913574
0.925719
0.943154
0.826585
0.864617
0.903861
0.938654
0.968434
0.993551
1.01422
1.03035
1.04201
1.06012
0.972431
1.01128
1.04754
1.0785
1.10444
1.12676
1.146
1.16168
1.17423
1.19226
1.14767
1.17966
1.20603
1.2286
1.24873
1.26758
1.2854
1.30197
1.31739
1.33549
1.33657
1.35392
1.36913
1.38549
1.40148
1.41608
1.42935
1.44333
1.46092
1.4811
1.51869
1.52813
1.53972
1.55058
1.55989
1.56955
1.58042
1.59183
1.60322
1.61859
1.72586
1.72957
1.71464
1.69986
1.69365
1.69937
1.71787
1.74821
1.78041
1.80708
2.03221
1.89735
1.82076
1.77849
1.76108
1.76505
1.79249
1.8489
1.95153
2.1759
0.311784
0.309657
0.305171
0.296547
0.284325
0.272195
0.261959
0.254043
0.248381
0.245043
0.244547
0.247116
0.252064
0.259157
0.268445
0.279908
0.2925
0.303494
0.309588
0.312625
0.236236
0.242084
0.248424
0.252922
0.255395
0.255071
0.25233
0.248504
0.244946
0.242592
0.242296
0.244314
0.247814
0.251962
0.255655
0.257452
0.25645
0.252915
0.247712
0.241076
0.227817
0.230113
0.233528
0.236541
0.238631
0.240137
0.240892
0.240556
0.239483
0.238503
0.238514
0.239743
0.241371
0.242515
0.242561
0.24156
0.239919
0.237508
0.234192
0.231249
0.222321
0.223406
0.225258
0.22767
0.229727
0.23118
0.232209
0.232943
0.233293
0.233403
0.233709
0.234291
0.234672
0.234544
0.233965
0.232971
0.231375
0.229183
0.227018
0.225611
0.217145
0.217803
0.21894
0.2207
0.222539
0.224222
0.22555
0.22656
0.227389
0.228068
0.228588
0.228857
0.228781
0.228373
0.227586
0.22633
0.224726
0.223032
0.221609
0.220804
0.212228
0.212677
0.213503
0.214901
0.216499
0.218116
0.21966
0.220992
0.222084
0.222995
0.223657
0.223905
0.223725
0.223126
0.222116
0.220841
0.219455
0.218097
0.217037
0.216497
0.207548
0.207875
0.208532
0.209723
0.21116
0.212665
0.214214
0.21573
0.217097
0.218233
0.219043
0.219338
0.219079
0.218369
0.217369
0.216229
0.215047
0.213896
0.213051
0.212653
0.203058
0.203292
0.203834
0.204919
0.206293
0.207753
0.209256
0.210798
0.212313
0.213672
0.21467
0.215046
0.21483
0.214207
0.213351
0.212353
0.211275
0.21025
0.209544
0.209249
0.198836
0.199003
0.199449
0.200431
0.201744
0.203168
0.204647
0.206163
0.207704
0.209216
0.210424
0.21099
0.210983
0.21059
0.209916
0.209058
0.208106
0.207212
0.206638
0.20642
0.194842
0.194945
0.195324
0.196271
0.197589
0.199022
0.200562
0.202203
0.203894
0.205556
0.207001
0.207873
0.208096
0.207837
0.207264
0.20652
0.205659
0.204835
0.204344
0.204194
0.191256
0.191303
0.191597
0.192424
0.193614
0.194929
0.196359
0.197941
0.199715
0.201622
0.20339
0.204577
0.205111
0.205209
0.204988
0.204527
0.203914
0.203286
0.202934
0.20285
0.188009
0.188024
0.188231
0.188885
0.189914
0.191141
0.192566
0.194222
0.19612
0.198242
0.200395
0.202046
0.203012
0.203435
0.203498
0.20333
0.203014
0.202666
0.202493
0.202454
0.184689
0.184697
0.184851
0.185338
0.186188
0.187302
0.188664
0.190373
0.192483
0.194992
0.197649
0.199811
0.201227
0.202081
0.202543
0.202746
0.202773
0.202733
0.202718
0.202698
0.180748
0.180756
0.180901
0.181304
0.182033
0.183084
0.18449
0.186329
0.188701
0.19165
0.194932
0.197769
0.199752
0.201106
0.201984
0.202566
0.202927
0.20315
0.203234
0.203221
0.175917
0.175923
0.176081
0.176511
0.177262
0.178382
0.17995
0.182121
0.184979
0.188576
0.192647
0.196232
0.198843
0.200658
0.201905
0.202793
0.203435
0.203816
0.203946
0.20394
0.170039
0.170031
0.170224
0.170752
0.171623
0.172955
0.17484
0.17743
0.180886
0.185305
0.190378
0.19491
0.198235
0.200621
0.202337
0.203518
0.204376
0.204855
0.205027
0.205035
0.163124
0.163097
0.163302
0.163941
0.165127
0.166767
0.169099
0.172321
0.176596
0.18207
0.188373
0.19405
0.198263
0.201289
0.203438
0.204992
0.205997
0.20656
0.206786
0.206813
0.155128
0.155085
0.15533
0.156116
0.15757
0.159682
0.162591
0.166593
0.171906
0.178698
0.186531
0.193609
0.198885
0.202698
0.205414
0.207316
0.208536
0.20924
0.209546
0.20959
0.14579
0.145728
0.146024
0.146981
0.148735
0.151448
0.155114
0.160096
0.166725
0.175181
0.184908
0.193687
0.200255
0.205017
0.208392
0.210727
0.212258
0.213161
0.213558
0.213613
0.134651
0.13458
0.134975
0.136186
0.138347
0.141635
0.146252
0.152564
0.1609
0.171472
0.183544
0.194385
0.202472
0.208329
0.212514
0.21541
0.217339
0.218501
0.218999
0.219063
0.120949
0.120864
0.121407
0.122949
0.125674
0.129827
0.135719
0.143764
0.154328
0.167575
0.18252
0.195826
0.205718
0.212908
0.218009
0.221568
0.22397
0.225425
0.22604
0.226114
0.103713
0.103616
0.104392
0.106452
0.110021
0.115438
0.123109
0.133498
0.146952
0.163543
0.181958
0.198171
0.210162
0.21886
0.225065
0.229418
0.232379
0.234169
0.234918
0.234998
0.0814756
0.0813794
0.0825414
0.0854335
0.0903315
0.0976834
0.107935
0.121541
0.138757
0.15949
0.182018
0.201577
0.215964
0.226406
0.233891
0.239187
0.242822
0.245014
0.245913
0.246002
0.0519221
0.0518737
0.0537432
0.0580933
0.065229
0.0756671
0.0897593
0.107815
0.129881
0.155626
0.182898
0.20621
0.223266
0.235677
0.244647
0.251063
0.25551
0.258181
0.259253
0.259344
0.0108808
0.0110354
0.0144746
0.0218715
0.0331534
0.0486983
0.0685007
0.0925623
0.120669
0.152275
0.184836
0.212214
0.23215
0.246727
0.25739
0.265145
0.270612
0.273876
0.275125
0.275206
-0.0493853
-0.04794
-0.0396168
-0.0257256
-0.00676363
0.0169266
0.0447335
0.0764382
0.111689
0.149841
0.188044
0.219651
0.242576
0.259433
0.271946
0.281241
0.287916
0.291923
0.293398
0.293473
-0.121512
-0.119167
-0.103467
-0.0792847
-0.0497424
-0.0165432
0.0200479
0.059967
0.10294
0.14841
0.193299
0.230336
0.257427
0.277673
0.293023
0.304737
0.31341
0.318513
0.320063
0.320328
-0.195713
-0.188145
-0.165007
-0.130826
-0.091571
-0.0491646
-0.00385986
0.0442626
0.0949739
0.147803
0.199497
0.242081
0.273383
0.297052
0.315354
0.32962
0.340393
0.346333
0.348912
0.349603
-0.254297
-0.245063
-0.217113
-0.176209
-0.129471
-0.079334
-0.0263083
0.0293774
0.0873808
0.147158
0.205159
0.252703
0.287598
0.313985
0.334383
0.350297
0.362328
0.369517
0.373139
0.374018
-0.301867
-0.292091
-0.260713
-0.214993
-0.162553
-0.106255
-0.0467999
0.0154471
0.0799773
0.146098
0.209813
0.26167
0.29947
0.32788
0.349735
0.366755
0.379645
0.387868
0.391815
0.392757
-0.341521
-0.331594
-0.298025
-0.248549
-0.191564
-0.130264
-0.0654069
0.0025081
0.0727972
0.144603
0.213439
0.269048
0.309217
0.339123
0.361928
0.379553
0.392885
0.401526
0.405643
0.40663
-0.375953
-0.365998
-0.330812
-0.278325
-0.217594
-0.152063
-0.0825542
-0.00968173
0.0657546
0.142706
0.21622
0.275193
0.317395
0.348483
0.37192
0.389812
0.403222
0.411979
0.416064
0.417152
-0.406732
-0.396793
-0.360386
-0.305396
-0.241547
-0.172377
-0.098775
-0.0214676
0.0586493
0.140368
0.218261
0.280428
0.324548
0.35668
0.380607
0.398674
0.41209
0.420924
0.425005
0.426031
-0.435058
-0.425106
-0.387686
-0.330568
-0.264039
-0.191685
-0.114467
-0.0331617
0.0512586
0.137468
0.219607
0.284897
0.33088
0.364064
0.388516
0.406809
0.420292
0.429112
0.433234
0.434065
-0.461699
-0.451704
-0.413389
-0.354454
-0.285541
-0.210375
-0.129938
-0.0450036
0.0434032
0.133872
0.220151
0.288617
0.336609
0.37099
0.396087
0.414671
0.428249
0.437064
0.441176
0.441917
-0.487118
-0.477084
-0.437959
-0.377435
-0.306378
-0.228706
-0.145374
-0.0571482
0.0349392
0.12946
0.219873
0.291726
0.341945
0.377689
0.403579
0.422582
0.436345
0.445166
0.449232
0.449951
-0.511731
-0.50156
-0.461606
-0.399716
-0.326749
-0.246841
-0.160915
-0.0697015
0.0258059
0.124215
0.218792
0.294182
0.346872
0.38423
0.411107
0.430676
0.444721
0.4536
0.457548
0.458254
-0.535696
-0.525308
-0.484696
-0.421466
-0.346781
-0.26489
-0.176626
-0.0826941
0.0159747
0.118089
0.216769
0.295888
0.351349
0.390621
0.418712
0.439005
0.453422
0.462381
0.46621
0.466869
-0.559052
-0.548468
-0.507244
-0.442744
-0.366544
-0.282869
-0.192518
-0.0961413
0.0054122
0.11098
0.21371
0.296759
0.355313
0.396812
0.426374
0.44756
0.462433
0.471479
0.475166
0.475716
-0.581939
-0.57109
-0.529184
-0.463579
-0.386034
-0.300779
-0.208584
-0.110036
-0.00588683
0.102891
0.209556
0.296651
0.358623
0.402727
0.434058
0.456312
0.471703
0.480815
0.484313
0.484721
-0.604264
-0.593157
-0.550611
-0.483985
-0.405232
-0.318587
-0.224769
-0.124319
-0.0178627
0.093841
0.204235
0.295421
0.361087
0.408217
0.441702
0.465238
0.481166
0.490245
0.493487
0.493737
-0.626047
-0.614673
-0.571482
-0.503927
-0.424094
-0.336233
-0.241009
-0.138905
-0.0304369
0.0838558
0.197706
0.292929
0.362499
0.413086
0.449233
0.474369
0.490829
0.499667
0.502502
0.50258
-0.647144
-0.635563
-0.591736
-0.523348
-0.442559
-0.353635
-0.257222
-0.153708
-0.0435292
0.0730085
0.189964
0.289051
0.362618
0.417065
0.456522
0.483823
0.500853
0.509047
0.511159
0.511024
-0.667638
-0.655769
-0.611347
-0.542212
-0.460585
-0.370748
-0.273314
-0.168641
-0.0570374
0.0614044
0.181042
0.283695
0.36121
0.419772
0.463269
0.493726
0.511779
0.51873
0.519323
0.518812
-0.687404
-0.675253
-0.630285
-0.560465
-0.478088
-0.387483
-0.289198
-0.183578
-0.0708357
0.0491305
0.171017
0.276813
0.358076
0.420753
0.468892
0.503932
0.524548
0.530243
0.527673
0.525636
-0.706463
-0.694074
-0.648499
-0.578054
-0.495028
-0.40377
-0.304791
-0.198431
-0.0848042
0.0363431
0.160006
0.268388
0.353081
0.419542
0.472394
0.513449
0.539458
0.546899
0.540829
0.529763
-0.724748
-0.712173
-0.666096
-0.595126
-0.51161
-0.419892
-0.320429
-0.213614
-0.099414
0.0225032
0.147417