/*--------------------------------*- C++ -*----------------------------------*\
  =========                 |
  \\      /  F ield         | OpenFOAM: The Open Source CFD Toolbox
   \\    /   O peration     | Website:  https://openfoam.org
    \\  /    A nd           | Version:  10
     \\/     M anipulation  |
\*---------------------------------------------------------------------------*/
FoamFile
{
    format      ascii;
    class       volVectorField;
    location    "22";
    object      U;
}
// * * * * * * * * * * * * * * * * * * * * * * * * * * * * * * * * * * * * * //

dimensions      [0 1 -1 0 0 0 0];

internalField   nonuniform List<vector> 
8800
(
(0.980138 -0.0915202 0)
(1.00234 -0.0587301 0)
(0.999611 -0.032125 0)
(1.00001 -0.0165117 0)
(1.00006 -0.00882241 0)
(1.00003 -0.00506474 0)
(1.00002 -0.00296625 0)
(1.00001 -0.00168108 0)
(1.00001 -0.000806456 0)
(1.00005 -0.000126597 0)
(1.00001 0.000553662 0)
(1.00001 0.00130795 0)
(1.00001 0.00234426 0)
(1.00002 0.00395532 0)
(1.00005 0.00671016 0)
(1.00006 0.012022 0)
(0.999887 0.0230829 0)
(0.999086 0.0431572 0)
(1.0072 0.079033 0)
(0.77502 0.0478399 0)
(0.359005 -0.0147473 0)
(1.04651 -0.0724723 0)
(1.08849 -0.0660067 0)
(1.04946 -0.0508911 0)
(1.02551 -0.0376571 0)
(1.01265 -0.0258376 0)
(1.0065 -0.016662 0)
(1.0036 -0.0102154 0)
(1.00217 -0.00565096 0)
(1.00151 -0.0021255 0)
(1.00138 0.0010506 0)
(1.00175 0.00432763 0)
(1.00272 0.0082034 0)
(1.00475 0.0135291 0)
(1.00897 0.0212158 0)
(1.01797 0.0317307 0)
(1.03589 0.0445399 0)
(1.06751 0.0580137 0)
(1.09478 0.0699762 0)
(0.845772 0.0554875 0)
(0.217833 -0.00137769 0)
(1.07572 -0.0506095 0)
(1.09947 -0.0488936 0)
(1.06443 -0.039973 0)
(1.03986 -0.0324975 0)
(1.02367 -0.0252703 0)
(1.01388 -0.0180832 0)
(1.00841 -0.0115533 0)
(1.00559 -0.0058986 0)
(1.00447 -0.000722585 0)
(1.00479 0.00428907 0)
(1.00661 0.0095332 0)
(1.01053 0.0154956 0)
(1.01787 0.0222758 0)
(1.03056 0.0294299 0)
(1.05066 0.0365614 0)
(1.08029 0.0443896 0)
(1.10592 0.0517572 0)
(0.943628 0.0409192 0)
(0.217442 0.0013935 0)
(0.176767 -0.000624425 0)
(1.01955 -0.0353579 0)
(1.10572 -0.0412687 0)
(1.07791 -0.0362683 0)
(1.05234 -0.0302559 0)
(1.03509 -0.0243968 0)
(1.02325 -0.01865 0)
(1.01545 -0.012758 0)
(1.01087 -0.00681209 0)
(1.00886 -0.000738254 0)
(1.00942 0.00528453 0)
(1.01255 0.0111278 0)
(1.01853 0.0168909 0)
(1.02817 0.0225138 0)
(1.04241 0.0281119 0)
(1.06327 0.0339219 0)
(1.09414 0.0398271 0)
(1.0949 0.0414344 0)
(0.831135 0.0226189 0)
(0.176107 0.000636957 0)
(0.154986 -0.000457394 0)
(0.958647 -0.025498 0)
(1.10454 -0.0348232 0)
(1.08805 -0.0323069 0)
(1.06104 -0.0277509 0)
(1.04288 -0.0228528 0)
(1.03051 -0.017724 0)
(1.02195 -0.0124031 0)
(1.01644 -0.00673357 0)
(1.01386 -0.000513056 0)
(1.01456 0.00574308 0)
(1.0184 0.0114858 0)
(1.02522 0.0167269 0)
(1.0354 0.021682 0)
(1.05023 0.0264774 0)
(1.07237 0.030993 0)
(1.10159 0.035019 0)
(1.07073 0.0334147 0)
(0.744416 0.0142074 0)
(0.154002 0.000471532 0)
(0.140508 -0.000328526 0)
(0.902216 -0.0189884 0)
(1.09703 -0.0297318 0)
(1.09613 -0.0289106 0)
(1.06869 -0.0252429 0)
(1.04966 -0.0212134 0)
(1.03665 -0.0166154 0)
(1.0277 -0.0115587 0)
(1.0218 -0.00611783 0)
(1.01886 -0.000140217 0)
(1.0196 0.00587583 0)
(1.02372 0.0113273 0)
(1.03082 0.016264 0)
(1.04144 0.0207921 0)
(1.05702 0.024812 0)
(1.08003 0.0283412 0)
(1.10416 0.031055 0)
(1.03985 0.0272671 0)
(0.67906 0.0099407 0)
(0.139132 0.000345287 0)
(0.130116 -0.000241258 0)
(0.853553 -0.0143333 0)
(1.08493 -0.025132 0)
(1.10148 -0.025379 0)
(1.07513 -0.0221411 0)
(1.05569 -0.0187012 0)
(1.04222 -0.0148381 0)
(1.03277 -0.0104082 0)
(1.02652 -0.00537805 0)
(1.02341 0.000323194 0)
(1.02407 0.00608537 0)
(1.0283 0.0111359 0)
(1.03572 0.0154735 0)
(1.04676 0.0191865 0)
(1.06269 0.0224242 0)
(1.08609 0.0254288 0)
(1.10371 0.0273999 0)
(1.0068 0.0222086 0)
(0.6293 0.00735827 0)
(0.128263 0.000261993 0)
(0.122427 -0.000182817 0)
(0.813062 -0.0108565 0)
(1.07045 -0.0210456 0)
(1.1051 -0.0221996 0)
(1.08109 -0.0193845 0)
(1.06093 -0.0162063 0)
(1.04711 -0.012814 0)
(1.03748 -0.00889415 0)
(1.03106 -0.00431618 0)
(1.02781 0.000933025 0)
(1.02834 0.00616931 0)
(1.03253 0.0106939 0)
(1.03999 0.0144306 0)
(1.05117 0.0175365 0)
(1.06756 0.020306 0)
(1.09163 0.0230522 0)
(1.10101 0.0242105 0)
(0.974416 0.0180548 0)
(0.590826 0.00558903 0)
(0.119996 0.000208454 0)
(0.116803 -0.000130232 0)
(0.780451 -0.00798806 0)
(1.0547 -0.0169856 0)
(1.10708 -0.0189475 0)
(1.08631 -0.0168952 0)
(1.06576 -0.0141412 0)
(1.05175 -0.0109307 0)
(1.04196 -0.00726738 0)
(1.03527 -0.00311292 0)
(1.03169 0.00164084 0)
(1.03217 0.00634873 0)
(1.03645 0.0103034 0)
(1.04392 0.0135668 0)
(1.05508 0.016355 0)
(1.07174 0.018741 0)
(1.09562 0.0207835 0)
(1.09562 0.0209548 0)
(0.944262 0.0143452 0)
(0.561151 0.00421115 0)
(0.113667 0.00016212 0)
(0.112818 -9.43263e-05 0)
(0.755231 -0.00565331 0)
(1.03938 -0.0131149 0)
(1.10769 -0.0153786 0)
(1.09058 -0.0137615 0)
(1.07005 -0.0113319 0)
(1.05575 -0.00858395 0)
(1.04577 -0.00538582 0)
(1.03903 -0.00168783 0)
(1.03539 0.00252626 0)
(1.0356 0.00664332 0)
(1.03958 0.00996041 0)
(1.04695 0.012603 0)
(1.05825 0.0147403 0)
(1.07494 0.0165378 0)
(1.09783 0.0180948 0)
(1.08827 0.0176251 0)
(0.917713 0.0111951 0)
(0.538474 0.00315062 0)
(0.108814 0.000134785 0)
(0.11026 -5.37426e-05 0)
(0.736928 -0.00342813 0)
(1.02584 -0.00920981 0)
(1.10776 -0.0114734 0)
(1.09442 -0.0101793 0)
(1.07358 -0.00819803 0)
(1.05906 -0.00607164 0)
(1.04891 -0.0034299 0)
(1.04193 -0.000199146 0)
(1.03805 0.00355859 0)
(1.038 0.00712907 0)
(1.04184 0.00981852 0)
(1.04908 0.0117063 0)
(1.06028 0.0129899 0)
(1.07732 0.0141072 0)
(1.09902 0.0151491 0)
(1.08025 0.0141985 0)
(0.895368 0.00821825 0)
(0.521883 0.00216478 0)
(0.105188 0.000104811 0)
(0.109152 -4.83805e-06 0)
(0.725166 -0.00153576 0)
(1.01421 -0.00566951 0)
(1.10693 -0.00821283 0)
(1.0974 -0.00772017 0)
(1.07663 -0.0062022 0)
(1.06219 -0.00428522 0)
(1.05227 -0.00173057 0)
(1.0454 0.00137755 0)
(1.04133 0.0048199 0)
(1.04093 0.00795172 0)
(1.04422 0.0102486 0)
(1.0509 0.0118429 0)
(1.06168 0.0127852 0)
(1.07856 0.0132471 0)
(1.09861 0.0132667 0)
(1.07122 0.0112692 0)
(0.877135 0.00568768 0)
(0.510693 0.00139498 0)
(0.102763 6.9206e-05 0)
(0.109207 2.99584e-05 0)
(0.718888 -0.000298218 0)
(1.00486 -0.00276697 0)
(1.10448 -0.00508137 0)
(1.09902 -0.00506895 0)
(1.07902 -0.00388695 0)
(1.06476 -0.00212201 0)
(1.0548 0.000328002 0)
(1.04774 0.00322634 0)
(1.04329 0.00638009 0)
(1.04247 0.00909683 0)
(1.04541 0.0108078 0)
(1.05176 0.0116913 0)
(1.06219 0.0120357 0)
(1.07843 0.0121121 0)
(1.09604 0.0115672 0)
(1.0612 0.00892939 0)
(0.862885 0.00415433 0)
(0.503088 0.00103164 0)
(0.101181 4.62083e-05 0)
(0.109956 4.98659e-05 0)
(0.716262 0.000297909 0)
(0.998914 -0.000971946 0)
(1.10237 -0.00234684 0)
(1.10029 -0.00215998 0)
(1.08146 -0.000996634 0)
(1.06761 0.000737446 0)
(1.05775 0.0030278 0)
(1.05057 0.00558496 0)
(1.04582 0.00828592 0)
(1.0444 0.0104561 0)
(1.04662 0.0115182 0)
(1.05223 0.011874 0)
(1.06201 0.0117614 0)
(1.0778 0.0113219 0)
(1.09282 0.0103916 0)
(1.05198 0.00779061 0)
(0.851673 0.00380587 0)
(0.496782 0.00103735 0)
(0.0998692 4.50607e-05 0)
(0.11102 6.01729e-05 0)
(0.715441 0.000624869 0)
(0.995799 -0.000108332 0)
(1.10186 -0.000679521 0)
(1.1021 0.000211294 0)
(1.08393 0.00167743 0)
(1.07007 0.00342724 0)
(1.06006 0.00563318 0)
(1.05263 0.00810143 0)
(1.04747 0.010584 0)
(1.04532 0.0123476 0)
(1.04688 0.0129127 0)
(1.05209 0.0127873 0)
(1.06123 0.0122837 0)
(1.07624 0.0115719 0)
(1.08949 0.0104245 0)
(1.04393 0.00805142 0)
(0.841369 0.00417802 0)
(0.49017 0.00120567 0)
(0.0983829 5.84613e-05 0)
(0.112322 6.67888e-05 0)
(0.715521 0.00100902 0)
(0.993644 0.000481578 0)
(1.10239 -5.68911e-05 0)
(1.10502 0.000934144 0)
(1.08683 0.00264035 0)
(1.07276 0.00481026 0)
(1.06265 0.00746428 0)
(1.05497 0.010408 0)
(1.04922 0.0133072 0)
(1.04625 0.0152663 0)
(1.04689 0.0158576 0)
(1.05129 0.0154084 0)
(1.06018 0.0143803 0)
(1.07459 0.0134508 0)
(1.08617 0.0123174 0)
(1.03535 0.0092971 0)
(0.830074 0.00469309 0)
(0.482753 0.00139792 0)
(0.0965396 7.82849e-05 0)
(0.113997 8.11999e-05 0)
(0.716867 0.00161633 0)
(0.991235 0.00149453 0)
(1.10233 0.000342268 0)
(1.1076 0.000771338 0)
(1.09033 0.00237257 0)
(1.07626 0.00511355 0)
(1.06602 0.0086813 0)
(1.05798 0.0127121 0)
(1.05143 0.0166781 0)
(1.04746 0.0194567 0)
(1.04704 0.0205805 0)
(1.05036 0.0205361 0)
(1.05831 0.0196542 0)
(1.07235 0.01805 0)
(1.081 0.0155939 0)
(1.02375 0.0106021 0)
(0.817374 0.00506708 0)
(0.474655 0.0015859 0)
(0.0943273 9.87817e-05 0)
(0.116297 0.000107508 0)
(0.720591 0.00246884 0)
(0.989286 0.00327938 0)
(1.10017 0.0018126 0)
(1.10922 0.00157042 0)
(1.09395 0.00280656 0)
(1.08071 0.00609188 0)
(1.07064 0.0107157 0)
(1.06205 0.0159109 0)
(1.05446 0.0209511 0)
(1.04925 0.0245136 0)
(1.04763 0.026085 0)
(1.04972 0.0261769 0)
(1.05593 0.0249944 0)
(1.068 0.0226365 0)
(1.07149 0.0180286 0)
(1.00873 0.0113023 0)
(0.804073 0.0053787 0)
(0.465966 0.00179428 0)
(0.0917423 0.000117129 0)
(0.119459 0.000147699 0)
(0.727693 0.00359969 0)
(0.990026 0.00574004 0)
(1.09705 0.00513302 0)
(1.11004 0.00422861 0)
(1.09779 0.0055632 0)
(1.08629 0.0095861 0)
(1.07634 0.0149998 0)
(1.06698 0.0208939 0)
(1.05806 0.0264149 0)
(1.0513 0.0300229 0)
(1.04818 0.0312359 0)
(1.04858 0.0306925 0)
(1.05279 0.0288576 0)
(1.06065 0.0250853 0)
(1.05831 0.0189925 0)
(0.992572 0.0116821 0)
(0.790831 0.00589388 0)
(0.456425 0.00208069 0)
(0.0887427 0.000136993 0)
(0.12377 0.000206969 0)
(0.738736 0.00494476 0)
(0.994502 0.00853863 0)
(1.09621 0.00969458 0)
(1.11076 0.00975486 0)
(1.10239 0.0119495 0)
(1.09247 0.0163726 0)
(1.08249 0.0220677 0)
(1.07211 0.0280735 0)
(1.06152 0.0333343 0)
(1.05279 0.0361581 0)
(1.04782 0.0362306 0)
(1.04625 0.0343275 0)
(1.04782 0.0310959 0)
(1.0511 0.0261249 0)
(1.04412 0.0195266 0)
(0.977116 0.0125015 0)
(0.777336 0.00679759 0)
(0.445457 0.00247619 0)
(0.0852247 0.000160635 0)
(0.129515 0.000281062 0)
(0.754061 0.00659034 0)
(1.00381 0.011878 0)
(1.09985 0.0149745 0)
(1.11404 0.0169483 0)
(1.10794 0.0204774 0)
(1.09897 0.0255871 0)
(1.08865 0.0315472 0)
(1.07696 0.0374351 0)
(1.06428 0.0419455 0)
(1.05318 0.0433598 0)
(1.04591 0.0417212 0)
(1.0421 0.0381287 0)
(1.04085 0.0333007 0)
(1.0406 0.0275038 0)
(1.03049 0.0209379 0)
(0.962454 0.0142444 0)
(0.762507 0.00816174 0)
(0.432326 0.00302459 0)
(0.0810071 0.000193733 0)
(0.137148 0.00038745 0)
(0.774232 0.00882325 0)
(1.01831 0.0159529 0)
(1.10823 0.020941 0)
(1.12096 0.0249742 0)
(1.11534 0.0303391 0)
(1.10629 0.0366397 0)
(1.09496 0.0431832 0)
(1.08137 0.048982 0)
(1.06603 0.0525476 0)
(1.05205 0.0522391 0)
(1.04219 0.0486247 0)
(1.03598 0.0432689 0)
(1.03226 0.0370018 0)
(1.0295 0.0304763 0)
(1.01727 0.023811 0)
(0.947451 0.0169719 0)
(0.745171 0.0100112 0)
(0.416351 0.0037204 0)
(0.0759222 0.000233758 0)
(0.147437 0.000551775 0)
(0.800489 0.0120026 0)
(1.03821 0.0213171 0)
(1.12145 0.0282331 0)
(1.1319 0.0345176 0)
(1.1253 0.0419517 0)
(1.11497 0.0498187 0)
(1.10161 0.0572078 0)
(1.08532 0.0629903 0)
(1.06665 0.0655335 0)
(1.04932 0.0633783 0)
(1.03663 0.0577381 0)
(1.02797 0.0505278 0)
(1.02211 0.0428655 0)
(1.01748 0.0354311 0)
(1.00349 0.0282382 0)
(0.930746 0.0206688 0)
(0.724561 0.0123332 0)
(0.397068 0.00449627 0)
(0.0698409 0.000270512 0)
(0.161608 0.000818602 0)
(0.834783 0.016798 0)
(1.06477 0.0288844 0)
(1.13989 0.0379822 0)
(1.14708 0.046798 0)
(1.13816 0.0565459 0)
(1.12517 0.0661402 0)
(1.10863 0.0744092 0)
(1.08869 0.0800567 0)
(1.06599 0.0813519 0)
(1.04488 0.0771386 0)
(1.02914 0.0693443 0)
(1.01802 0.0602112 0)
(1.01019 0.051005 0)
(1.00396 0.0424026 0)
(0.98807 0.0342504 0)
(0.911059 0.0254103 0)
(0.699579 0.0151866 0)
(0.373753 0.00546586 0)
(0.0626431 0.000316885 0)
(0.181887 0.00128938 0)
(0.880351 0.0244231 0)
(1.09981 0.0402764 0)
(1.16427 0.0518215 0)
(1.16684 0.0637815 0)
(1.154 0.0759703 0)
(1.13683 0.0871259 0)
(1.1158 0.0959001 0)
(1.09121 0.100908 0)
(1.06381 0.100445 0)
(1.03854 0.0937883 0)
(1.01958 0.0836098 0)
(1.00599 0.0724139 0)
(0.996198 0.0614736 0)
(0.988317 0.0514428 0)
(0.970072 0.0419701 0)
(0.887195 0.0313475 0)
(0.669102 0.0187264 0)
(0.345803 0.00661874 0)
(0.0542427 0.00036006 0)
(0.211709 0.00236635 0)
(0.942991 0.0379302 0)
(1.14544 0.0593715 0)
(1.19566 0.0734144 0)
(1.19107 0.0888088 0)
(1.17225 0.10284 0)
(1.14923 0.114591 0)
(1.12245 0.122824 0)
(1.09236 0.126213 0)
(1.05975 0.123161 0)
(1.03009 0.113503 0)
(1.00782 0.100636 0)
(0.991706 0.0872094 0)
(0.979894 0.0743875 0)
(0.970131 0.0627431 0)
(0.948773 0.0517323 0)
(0.857938 0.0388143 0)
(0.632069 0.0231106 0)
(0.313352 0.00805751 0)
(0.0449264 0.000389245 0)
(0.252787 0.0088902 -1.30589e-20)
(1.0264 0.06566 -1.01446e-20)
(1.19963 0.0920195 2.83729e-21)
(1.23221 0.108993 0)
(1.21717 0.125789 4.82022e-36)
(1.1908 0.139631 9.62242e-23)
(1.16079 0.150223 -1.18372e-21)
(1.12747 0.156555 0)
(1.0913 0.157349 4.65774e-35)
(1.05298 0.151069 -3.57443e-21)
(1.01848 0.13809 0)
(0.992457 0.122447 -5.16655e-21)
(0.973379 0.106797 -1.58277e-20)
(0.95906 0.0922109 -7.66579e-21)
(0.946782 0.0792402 -2.41622e-21)
(0.921331 0.0670319 -1.46301e-21)
(0.82015 0.051339 0)
(0.584984 0.0309802 1.04686e-21)
(0.275745 0.0119408 1.23991e-21)
(0.0365022 0.00123722 2.19906e-20)
(0.279844 0.0250136 -2.4057e-20)
(1.09474 0.109863 5.0736e-22)
(1.2454 0.139973 -1.387e-21)
(1.26495 0.158159 0)
(1.24055 0.173293 2.22359e-21)
(1.20685 0.185405 1.25347e-21)
(1.16992 0.194091 -7.24953e-22)
(1.1299 0.198255 -5.92965e-21)
(1.08716 0.196536 0)
(1.04232 0.187317 1.51823e-20)
(1.00181 0.171393 1.68711e-20)
(0.970752 0.153343 5.44447e-21)
(0.947439 0.135786 2.15511e-20)
(0.929397 0.11955 3.17672e-20)
(0.913069 0.105068 0)
(0.881269 0.0913219 4.72254e-20)
(0.773053 0.0727457 6.88107e-20)
(0.53687 0.0468043 7.67492e-20)
(0.246385 0.0206598 -8.85929e-20)
(0.0309397 0.00266508 -1.6359e-21)
(0.277787 0.040649 0)
(1.13556 0.167077 -7.40476e-21)
(1.27818 0.199945 0)
(1.29025 0.2171 1.19555e-20)
(1.25878 0.228686 0)
(1.21875 0.237412 6.12282e-21)
(1.17558 0.242851 6.93534e-22)
(1.12942 0.24383 -8.60129e-21)
(1.08057 0.238906 -1.56403e-21)
(1.02958 0.226408 7.35496e-21)
(0.983557 0.20761 3.95142e-20)
(0.947964 0.187462 -2.99571e-22)
(0.920849 0.168526 -1.62307e-20)
(0.899518 0.151466 -3.15648e-20)
(0.88028 0.136347 3.82807e-20)
(0.846508 0.121779 -6.88373e-20)
(0.743914 0.100221 -9.40038e-21)
(0.523619 0.0687616 0)
(0.253633 0.0333547 7.49629e-23)
(0.0355012 0.00501427 0)
(0.269618 0.0542879 -1.84074e-19)
(1.15556 0.22717 7.6115e-20)
(1.29907 0.264949 4.08936e-20)
(1.30684 0.28066 -7.83402e-21)
(1.27048 0.288394 1.1962e-20)
(1.22567 0.293158 -1.4701e-20)
(1.17742 0.294768 5.90784e-22)
(1.12606 0.292023 0)
(1.07191 0.283457 -2.85933e-20)
(1.01546 0.267425 0)
(0.964529 0.245695 -2.01872e-20)
(0.925098 0.22363 -2.85212e-20)
(0.894916 0.20356 -1.826e-20)
(0.871087 0.185895 -2.35936e-20)
(0.849966 0.170446 0)
(0.816568 0.155207 0)
(0.724426 0.131989 -6.34858e-20)
(0.524984 0.0954716 1.26732e-20)
(0.268619 0.0494913 -7.36834e-21)
(0.0421167 0.00822347 -8.60657e-21)
(0.261206 0.0664855 1.36343e-19)
(1.16242 0.286887 0)
(1.3109 0.331389 -1.14691e-19)
(1.31579 0.345518 -2.94721e-20)
(1.27599 0.349571 -2.24189e-20)
(1.22764 0.35036 0)
(1.17545 0.348072 -2.9883e-21)
(1.11982 0.341492 7.56058e-21)
(1.06118 0.329146 1.24407e-20)
(1.00012 0.309442 3.75275e-20)
(0.945071 0.284678 0)
(0.902569 0.260652 -6.23388e-20)
(0.870087 0.239487 -3.99881e-20)
(0.84451 0.221311 -2.41386e-20)
(0.822308 0.205746 1.58549e-19)
(0.790229 0.190319 1.94901e-20)
(0.707099 0.166191 9.29757e-20)
(0.526316 0.123776 -4.47842e-19)
(0.279868 0.0668575 2.66496e-19)
(0.0472948 0.0117158 -3.21226e-19)
(0.253726 0.0774997 1.44107e-19)
(1.16111 0.344296 -2.68002e-20)
(1.31552 0.396717 2.01992e-20)
(1.31862 0.409753 5.48698e-20)
(1.27635 0.410391 3.36474e-20)
(1.2253 0.407466 1.68049e-21)
(1.17002 0.401447 2.64333e-21)
(1.11093 0.39112 5.43103e-21)
(1.04853 0.375038 -2.74592e-20)
(0.983567 0.351609 0)
(0.925116 0.323722 -2.67282e-20)
(0.880207 0.297522 -1.5342e-21)
(0.846139 0.275094 -4.48674e-20)
(0.81954 0.256288 0)
(0.796956 0.240457 -3.46666e-20)
(0.766557 0.224827 -8.44522e-20)
(0.690732 0.199553 2.33297e-19)
(0.522959 0.151284 -2.31821e-19)
(0.283496 0.0830086 3.28984e-19)
(0.0497482 0.0148243 -3.42859e-19)
(0.247701 0.0877383 -4.18717e-22)
(1.1549 0.398809 3.28446e-20)
(1.3149 0.459905 9.6584e-20)
(1.3168 0.472279 -3.3631e-20)
(1.27269 0.469848 1.92219e-20)
(1.21954 0.463522 0)
(1.16177 0.454021 8.81466e-21)
(1.09981 0.440142 -3.97028e-21)
(1.03423 0.420437 -1.24731e-20)
(0.965863 0.393336 0)
(0.904536 0.36218 -2.61347e-20)
(0.857714 0.333585 -3.68648e-20)
(0.822529 0.309563 4.91801e-20)
(0.795402 0.289783 -3.15399e-20)
(0.7729 0.273281 -1.53058e-19)
(0.744141 0.257053 9.41835e-20)
(0.673986 0.230015 2.96632e-20)
(0.514858 0.175495 0)
(0.281371 0.0965236 -3.20126e-19)
(0.049946 0.0172526 -1.17792e-20)
(0.243045 0.0975116 2.36643e-20)
(1.14584 0.450294 -3.78058e-20)
(1.31043 0.520411 -5.28507e-20)
(1.31146 0.532417 -1.03548e-19)
(1.26595 0.52732 9.33399e-20)
(1.21114 0.517953 -4.97297e-20)
(1.15134 0.50525 -1.85233e-20)
(1.08695 0.48806 -5.60727e-21)
(1.0186 0.464919 1.27058e-20)
(0.947244 0.434192 -9.21563e-20)
(0.883278 0.399676 -3.22494e-20)
(0.834788 0.368477 0)
(0.798866 0.342486 5.38648e-20)
(0.771572 0.321317 6.67001e-20)
(0.749364 0.303798 8.22231e-20)
(0.722017 0.286534 -1.02847e-19)
(0.655777 0.257316 -3.09581e-20)
(0.50253 0.19642 3.66126e-20)
(0.274875 0.107424 0)
(0.0488025 0.0190741 -2.56815e-20)
(0.239558 0.106952 -2.74934e-19)
(1.13536 0.498889 1.73192e-19)
(1.30325 0.577984 5.81889e-20)
(1.30353 0.589852 -7.90769e-20)
(1.2569 0.582439 5.5856e-20)
(1.20075 0.570364 -3.92671e-21)
(1.13927 0.554782 1.81043e-20)
(1.07281 0.53456 -2.59698e-21)
(1.00199 0.508204 -2.25844e-20)
(0.927897 0.473988 1.87573e-22)
(0.861565 0.436033 -9.62447e-20)
(0.811594 0.401949 9.42197e-20)
(0.774971 0.373676 -6.04458e-20)
(0.747614 0.350755 7.52872e-20)
(0.725782 0.331918 0)
(0.699606 0.313244 -5.58744e-20)
(0.636023 0.281162 -1.15825e-21)
(0.486834 0.213987 -1.60282e-19)
(0.264806 0.115667 -2.3641e-20)
(0.04645 0.0201874 0)
(0.237053 0.116172 0)
(1.12426 0.544823 1.88179e-19)
(1.29414 0.63255 1.35721e-19)
(1.29374 0.644462 8.927e-20)
(1.24618 0.635017 5.3789e-20)
(1.18895 0.620552 0)
(1.12605 0.602398 1.73717e-20)
(1.05778 0.579441 -1.20589e-21)
(0.984758 0.550138 4.80165e-20)
(0.90811 0.512602 -1.12808e-20)
(0.839511 0.471225 -7.06223e-20)
(0.788052 0.434058 4.71535e-20)
(0.750657 0.403185 -1.97244e-21)
(0.723228 0.378139 7.93036e-20)
(0.7018 0.357599 5.19074e-20)
(0.676542 0.337158 -1.21691e-19)
(0.614626 0.301749 1.47127e-19)
(0.468305 0.228119 4.38758e-20)
(0.252004 0.121458 1.81176e-19)
(0.0432467 0.020612 -4.85185e-19)
(0.235436 0.125282 -7.06291e-20)
(1.11313 0.588277 1.08602e-19)
(1.28379 0.684158 -8.45944e-20)
(1.28262 0.696213 -1.03656e-19)
(1.23429 0.684963 0)
(1.17618 0.66839 4.33864e-20)
(1.11208 0.647966 -5.00201e-20)
(1.04223 0.622576 6.4213e-22)
(0.96718 0.59061 0)
(0.888049 0.549988 -1.75471e-19)
(0.817037 0.505221 1.92766e-19)
(0.764031 0.464852 0)
(0.725902 0.431204 7.16223e-20)
(0.698299 0.403781 -1.97853e-21)
(0.677183 0.381184 -1.64251e-19)
(0.652516 0.358565 6.46141e-20)
(0.591443 0.319278 0)
(0.44739 0.23895 2.37942e-19)
(0.237071 0.124878 0)
(0.0394652 0.0204807 -2.31181e-19)
(0.234485 0.134323 7.8803e-20)
(1.10221 0.629463 1.24139e-19)
(1.27264 0.732812 -8.86996e-20)
(1.27063 0.745111 0)
(1.22167 0.732268 7.40704e-20)
(1.16282 0.713842 0)
(1.0977 0.69142 6.58264e-20)
(1.02643 0.663893 7.0813e-21)
(0.949476 0.629569 4.87343e-21)
(0.867869 0.586132 -8.67304e-20)
(0.79438 0.538127 1.87005e-20)
(0.739597 0.494472 0)
(0.70057 0.457762 -1.52376e-19)
(0.672708 0.427678 2.04337e-21)
(0.651789 0.40275 0)
(0.627402 0.377585 2.4191e-21)
(0.56642 0.333828 2.16671e-19)
(0.424088 0.24642 -2.08096e-19)
(0.220256 0.12589 6.14415e-20)
(0.0351804 0.0197174 0)
(0.233872 0.143159 0)
(1.09172 0.668417 1.38918e-19)
(1.26103 0.778698 1.04038e-19)
(1.25811 0.791229 -2.22217e-21)
(1.20864 0.776958 4.64018e-20)
(1.14918 0.756908 1.02265e-19)
(1.08318 0.732744 -2.11453e-20)
(1.01063 0.703363 2.46708e-21)
(0.93188 0.666992 2.93048e-20)
(0.847843 0.621086 -1.35315e-19)
(0.771706 0.570034 -3.20536e-21)
(0.714849 0.523101 -6.23008e-20)
(0.674566 0.483139 2.49819e-19)
(0.6463 0.450062 -2.43282e-21)
(0.625483 0.42249 -1.29486e-19)
(0.601091 0.394332 -2.36688e-19)
(0.539566 0.345478 0)
(0.398556 0.250692 0)
(0.201734 0.124409 6.72846e-20)
(0.030584 0.0183552 -3.93921e-20)
(0.233825 0.151912 9.80905e-20)
(1.08177 0.705132 -3.04492e-19)
(1.24912 0.821901 -1.11483e-19)
(1.24534 0.834621 0)
(1.19544 0.819091 -1.53712e-21)
(1.13548 0.797619 1.22834e-19)
(1.06873 0.771949 -7.08937e-20)
(0.995054 0.740987 -3.05821e-20)
(0.914633 0.702893 3.00702e-20)
(0.828162 0.654873 -1.04223e-19)
(0.749153 0.601072 -1.63331e-19)
(0.68989 0.550925 1.66161e-19)
(0.648008 0.507523 0)
(0.619048 0.471168 -5.82539e-20)
(0.598192 0.440607 -1.42154e-19)
(0.573489 0.408964 -1.7147e-19)
(0.510754 0.354219 -2.07867e-19)
(0.370845 0.25162 6.20656e-20)
(0.181561 0.120257 -3.64105e-20)
(0.0256443 0.0163812 3.91858e-22)
(0.233792 0.160485 0)
(1.07248 0.739838 0)
(1.23717 0.862509 2.54006e-21)
(1.23252 0.875388 0)
(1.18227 0.858749 -1.7434e-19)
(1.12192 0.836034 -1.08522e-19)
(1.05456 0.809066 0)
(0.979879 0.776778 -7.55692e-21)
(0.897889 0.737269 3.74498e-20)
(0.808987 0.687515 -2.3958e-19)
(0.726927 0.631343 0)
(0.664829 0.578149 -1.06522e-19)
(0.620919 0.531204 -2.97953e-21)
(0.590902 0.491242 -2.45389e-21)
(0.569819 0.457268 1.5173e-19)
(0.544531 0.4215 -4.18474e-22)
(0.480012 0.359979 -4.51337e-19)
(0.340765 0.249006 1.35056e-19)
(0.159837 0.113453 4.00517e-20)
(0.0204476 0.0138703 0)
(0.233768 0.168797 -3.61008e-19)
(1.06359 0.772794 -1.87094e-19)
(1.2253 0.90064 -2.79453e-19)
(1.21982 0.913636 3.89374e-19)
(1.16929 0.896002 -3.26889e-19)
(1.10864 0.87221 0)
(1.04077 0.844135 -6.02313e-20)
(0.965224 0.810753 1.40948e-20)
(0.881775 0.770134 3.75805e-21)
(0.790497 0.719047 1.89603e-20)
(0.705212 0.660934 2.04963e-19)
(0.639866 0.604966 -3.64419e-20)
(0.593341 0.554446 -1.5429e-19)
(0.56177 0.510551 -6.92017e-20)
(0.5402 0.472575 8.44424e-20)
(0.514071 0.431838 -3.22712e-22)
(0.447368 0.362493 1.23609e-19)
(0.308422 0.242575 -2.92845e-19)
(0.137038 0.104086 3.48163e-19)
(0.0152625 0.0109775 5.04943e-20)
(0.233617 0.176804 1.32628e-19)
(1.0551 0.804032 -1.02459e-19)
(1.21361 0.936415 6.00757e-21)
(1.20733 0.949491 2.20039e-19)
(1.15661 0.930956 7.64098e-20)
(1.09575 0.906217 2.16579e-19)
(1.02749 0.877204 -2.66855e-20)
(0.951189 0.842936 6.75127e-20)
(0.866417 0.801488 -1.94452e-20)
(0.772829 0.749462 -1.3088e-19)
(0.684192 0.689903 0)
(0.615201 0.631543 -1.64109e-19)
(0.565435 0.577604 2.24073e-19)
(0.531568 0.529477 0)
(0.509034 0.486689 -1.80752e-19)
(0.481833 0.43969 1.11824e-19)
(0.412822 0.361192 -1.33548e-19)
(0.274746 0.232175 -1.59991e-19)
(0.114178 0.0926502 -2.83013e-19)
(0.0103377 0.00787949 -2.20777e-19)
(0.233672 0.184564 -1.45883e-19)
(1.04684 0.833551 1.0954e-19)
(1.20217 0.969916 2.60764e-19)
(1.19514 0.983038 3.0252e-19)
(1.1443 0.9637 -1.59939e-19)
(1.08331 0.938139 1.49366e-19)
(1.01478 0.908325 -8.29766e-20)
(0.937852 0.873371 8.3525e-20)
(0.851889 0.831352 -5.47795e-21)
(0.756099 0.778766 1.2519e-19)
(0.664046 0.718272 4.36164e-19)
(0.591059 0.658017 0)
(0.537379 0.600974 0)
(0.500241 0.548486 -8.0068e-20)
(0.475859 0.499859 0)
(0.447204 0.444548 2.43318e-19)
(0.376282 0.354943 2.91391e-19)
(0.240813 0.217164 0)
(0.0926243 0.079523 0)
(0.00604144 0.00489781 2.39872e-19)
(0.233424 0.191845 1.60925e-19)
(1.03885 0.861362 1.31257e-19)
(1.19104 1.00127 1.87428e-19)
(1.18331 1.01441 -2.70107e-19)
(1.13243 0.994337 -1.78307e-19)
(1.07139 0.968051 -1.9805e-19)
(1.00268 0.937562 1.22952e-19)
(0.925262 0.902087 3.44921e-22)
(0.838251 0.859727 -4.83788e-21)
(0.740394 0.806944 -5.88109e-21)
(0.644941 0.746039 2.21171e-19)
(0.567688 0.684454 0)
(0.50947 0.624828 2.26557e-19)
(0.467852 0.56817 1.69035e-19)
(0.440032 0.512708 4.30707e-19)
(0.408877 0.445983 1.31367e-19)
(0.337068 0.341575 -1.60307e-19)
(0.208837 0.19527 -9.40005e-20)
(0.0765259 0.0647357 0)
(0.00371053 0.00265128 2.60213e-19)
(0.233379 0.199044 -3.54104e-19)
(1.03111 0.887574 0)
(1.18021 1.03054 2.09452e-19)
(1.17188 1.04368 -2.21302e-19)
(1.12104 1.02296 2.01829e-19)
(1.06 0.996038 2.89215e-19)
(0.991231 0.964973 -2.84824e-19)
(0.913438 0.929121 2.87669e-21)
(0.825529 0.886622 0)
(0.72578 0.833958 -1.1702e-19)
(0.627021 0.773167 -4.59277e-19)
(0.545334 0.710876 2.24411e-20)
(0.4821 0.649336 3.08488e-19)
(0.434699 0.5892 0)
(0.400947 0.526338 2.91129e-19)
(0.364638 0.44457 0)
(0.291721 0.318219 0)
(0.179664 0.158023 -1.04341e-19)
(0.0811633 0.0377493 0)
(0.025315 0.0105436 7.02151e-20)
(0.233013 0.20561 -3.87057e-19)
(1.02358 0.912494 0)
(1.16969 1.05795 3.39106e-19)
(1.1608 1.07109 0)
(1.11008 1.04981 -1.09529e-19)
(1.0491 1.02238 0)
(0.980365 0.990862 -2.12914e-20)
(0.902284 0.954806 -1.44886e-20)
(0.813612 0.912393 -4.03267e-22)
(0.712115 0.860187 -1.14896e-19)
(0.610163 0.800069 1.20476e-20)
(0.523888 0.737829 1.85645e-19)
(0.455146 0.675014 2.98919e-19)
(0.400552 0.612582 4.26723e-20)
(0.357437 0.542808 2.28302e-19)
(0.31092 0.44327 0)
(0.228575 0.286233 3.49431e-19)
(0.125743 0.0934335 -2.06024e-19)
(0.0515943 0.0526579 2.36984e-19)
(-0.0667604 0.404271 -2.77237e-19)
(0.232633 0.211911 3.15571e-19)
(1.01605 0.936009 4.99135e-19)
(1.15939 1.08379 0)
(1.14996 1.09705 4.9657e-21)
(1.0994 1.07546 2.97552e-19)
(1.03844 1.04772 -5.595e-19)
(0.969801 1.016 -1.25502e-19)
(0.891438 0.980053 0)
(0.802027 0.938103 -2.54587e-20)
(0.698806 0.88691 -3.40401e-21)
(0.593561 0.828202 0)
(0.502337 0.767073 0)
(0.427438 0.703726 2.62587e-19)
(0.364355 0.640266 -1.33444e-19)
(0.307341 0.565916 -2.28268e-19)
(0.243092 0.449344 0)
(0.129059 0.266268 1.78404e-19)
(0.0195893 0.431028 -2.07451e-19)
(0.0437007 1.80478 -1.07696e-19)
(0.0764608 2.76742 -1.40163e-19)
(0.232122 0.217361 -2.30978e-19)
(1.00876 0.958245 -6.29954e-19)
(1.1493 1.10807 1.95539e-19)
(1.13936 1.12141 1.87943e-19)
(1.08903 1.09969 0)
(1.02807 1.0718 -4.00544e-19)
(0.959707 1.04008 -2.10242e-19)
(0.88106 1.00444 9.65607e-21)
(0.791008 0.963241 -3.33364e-21)
(0.686195 0.913504 8.72646e-20)
(0.57778 0.85686 2.05159e-19)
(0.481637 0.798042 1.91537e-19)
(0.400171 0.735064 2.5807e-19)
(0.328491 0.670528 -3.04884e-19)
(0.256719 0.597929 -3.3809e-19)
(0.165136 0.477751 0)
(0.0676346 0.807313 0)
(0.125089 2.48857 9.23088e-20)
(0.12832 3.17064 0)
(0.130529 3.37582 2.10872e-19)
(0.234024 0.222512 0)
(1.00224 0.979327 0)
(1.13923 1.13065 0)
(1.12877 1.14396 5.23631e-20)
(1.07866 1.12226 2.65648e-19)
(1.01778 1.09447 -3.05724e-19)
(0.94998 1.063 -1.50543e-19)
(0.871103 1.02786 1.0982e-20)
(0.780521 0.987673 -6.40957e-20)
(0.674311 0.939826 -1.01325e-20)
(0.562962 0.885913 3.70938e-19)
(0.462138 0.830514 -2.25209e-20)
(0.37389 0.769625 2.91169e-20)
(0.294751 0.7007 4.34561e-20)
(0.209626 0.637768 4.52239e-22)
(0.130656 0.907912 1.81381e-21)
(0.170778 2.62581 -4.65459e-19)
(0.188983 3.27184 -1.74432e-19)
(0.172793 3.42416 8.0985e-20)
(0.155004 3.44997 -8.34953e-20)
(0.151854 0.179687 1.31992e-19)
(0.989597 1.0022 0)
(1.12892 1.15171 -3.81227e-19)
(1.11892 1.16529 -4.8406e-19)
(1.06905 1.14396 5.53735e-19)
(1.00844 1.11637 3.24716e-19)
(0.940519 1.08487 1.76072e-19)
(0.861659 1.05044 -1.89414e-19)
(0.770731 1.01153 6.97281e-20)
(0.663483 0.965919 0)
(0.549625 0.915335 1.59999e-19)
(0.444569 0.864078 -1.43154e-19)
(0.349516 0.809378 0)
(0.264286 0.733806 3.82076e-20)
(0.189423 0.833179 9.1198e-20)
(0.182011 2.31549 -1.13134e-19)
(0.260285 3.30891 1.26e-19)
(0.236227 3.44382 6.0405e-20)
(0.197035 3.46896 6.82711e-20)
(0.170642 3.48081 8.48626e-20)
(0.275378 0.258334 -2.4564e-19)
(0.972871 1.0095 0)
(1.10987 1.17489 3.92668e-19)
(1.10505 1.19664 5.04249e-19)
(1.05351 1.17565 -5.70098e-19)
(0.992665 1.14859 -3.45535e-19)
(0.924214 1.11848 -2.71727e-19)
(0.845086 1.08524 -1.40216e-20)
(0.753339 1.04853 -1.01629e-19)
(0.64412 1.00692 6.60947e-21)
(0.526358 0.963 6.14292e-21)
(0.414746 0.920172 1.10328e-19)
(0.306247 0.878879 2.37928e-20)
(0.2373 0.980297 -3.42638e-20)
(0.2638 2.18415 -8.06221e-20)
(0.337425 3.30886 5.71603e-20)
(0.324687 3.48155 -5.09426e-20)
(0.283461 3.50689 -2.82071e-20)
(0.241964 3.53712 5.96337e-21)
(0.182809 3.52909 -3.96071e-22)
(0.262329 0.254356 0)
(0.969434 1.03029 1.03405e-19)
(1.10175 1.19695 -7.78734e-20)
(1.0952 1.21869 -5.6315e-20)
(1.04386 1.19772 -3.74894e-19)
(0.983197 1.17088 3.37566e-19)
(0.914592 1.14092 1.83078e-19)
(0.8356 1.10846 -1.47387e-20)
(0.743848 1.07326 1.26481e-19)
(0.634157 1.03453 -1.42502e-20)
(0.514911 0.99555 -2.03768e-19)
(0.400699 0.959384 1.56796e-20)
(0.294292 0.941246 -2.05916e-20)
(0.280694 1.39354 -2.82424e-20)
(0.373757 3.00932 1.84024e-20)
(0.410052 3.47181 8.93543e-22)
(0.362989 3.54607 -2.64798e-20)
(0.322342 3.57327 -4.74182e-20)
(0.26606 3.59966 7.86902e-20)
(0.198327 3.5938 3.09204e-20)
(0.245331 0.251965 2.53747e-19)
(0.964168 1.05351 6.96813e-19)
(1.09299 1.22088 -2.22633e-19)
(1.08488 1.24214 -2.13976e-19)
(1.03372 1.221 0)
(0.97331 1.19416 4.94753e-19)
(0.904863 1.16441 2.7961e-19)
(0.826297 1.1327 -1.55406e-20)
(0.734881 1.09906 1.3087e-20)
(0.62526 1.06338 6.12538e-20)
(0.505327 1.02958 -6.11314e-20)
(0.390439 1.00096 -1.06105e-19)
(0.299374 1.05124 -1.34709e-19)
(0.356172 1.99472 1.49183e-19)
(0.470452 3.35141 7.36617e-20)
(0.464018 3.54367 0)
(0.408511 3.59413 0)
(0.370532 3.64279 7.39475e-20)
(0.299095 3.71728 0)
(0.211614 3.68209 1.61254e-19)
(0.233717 0.252661 -3.70851e-19)
(0.956933 1.07759 -5.80186e-19)
(1.08278 1.24581 0)
(1.07333 1.26634 5.75797e-21)
(1.0224 1.24477 -3.6546e-19)
(0.962367 1.2178 7.35671e-19)
(0.89442 1.18827 1.88264e-19)
(0.816501 1.15719 -1.9435e-20)
(0.725688 1.12501 1.43081e-19)
(0.616565 1.09228 -7.17118e-21)
(0.496763 1.06377 0)
(0.383423 1.04459 0)
(0.326817 1.24832 -9.83321e-20)
(0.452505 2.66419 3.24531e-20)
(0.556521 3.48441 -3.02425e-21)
(0.514863 3.58508 0)
(0.474598 3.64577 1.69022e-19)
(0.425384 3.72844 -2.64221e-19)
(0.372533 3.73178 -2.50334e-19)
(0.244731 3.71867 2.62682e-20)