/*--------------------------------*- C++ -*----------------------------------*\
  =========                 |
  \\      /  F ield         | OpenFOAM: The Open Source CFD Toolbox
   \\    /   O peration     | Website:  https://openfoam.org
    \\  /    A nd           | Version:  10
     \\/     M anipulation  |
\*---------------------------------------------------------------------------*/
FoamFile
{
    format      ascii;
    class       volScalarField;
    location    "42";
    object      p;
}
// * * * * * * * * * * * * * * * * * * * * * * * * * * * * * * * * * * * * * //

dimensions      [0 2 -2 0 0 0 0];

internalField   nonuniform List<scalar> 
8800
(
0.885511
0.837722
0.799029
0.770029
0.749157
0.734314
0.723702
0.716202
0.711356
0.709262
0.710487
0.714641
0.721258
0.730553
0.743317
0.761039
0.785809
0.819745
0.86229
0.920991
0.716769
0.724447
0.731913
0.735218
0.733709
0.728623
0.722124
0.716029
0.71128
0.708403
0.708081
0.710545
0.714999
0.720918
0.727668
0.733934
0.737564
0.736823
0.731395
0.7227
0.695186
0.701344
0.705467
0.708404
0.710444
0.711036
0.709912
0.707785
0.705738
0.704789
0.705703
0.708042
0.710807
0.712963
0.71355
0.712336
0.709982
0.70658
0.702018
0.698256
0.689405
0.692053
0.694799
0.697194
0.698819
0.699965
0.700687
0.700778
0.700447
0.700348
0.701048
0.70217
0.70297
0.703004
0.702369
0.701259
0.699428
0.696846
0.694437
0.692932
0.684063
0.685486
0.687258
0.689281
0.691052
0.692376
0.693342
0.694107
0.69468
0.69519
0.695778
0.696217
0.696268
0.695942
0.695214
0.69394
0.692224
0.690361
0.689046
0.688215
0.679037
0.679956
0.68119
0.682745
0.684363
0.685868
0.687127
0.688157
0.689072
0.689899
0.690514
0.690771
0.690669
0.69018
0.689259
0.688026
0.686672
0.685393
0.684561
0.684011
0.674194
0.674862
0.675818
0.677108
0.678501
0.679937
0.681345
0.682625
0.683765
0.684793
0.685522
0.685803
0.685642
0.685069
0.68421
0.683219
0.68217
0.681221
0.680625
0.680221
0.66949
0.670006
0.670782
0.6719
0.673159
0.674507
0.675918
0.677341
0.678701
0.679943
0.680835
0.681194
0.68107
0.6806
0.679927
0.679145
0.678322
0.677607
0.677162
0.676848
0.664859
0.665268
0.665917
0.66691
0.668096
0.669394
0.670798
0.672297
0.673838
0.67532
0.676425
0.67694
0.676977
0.676699
0.676225
0.675634
0.675002
0.674468
0.674131
0.673877
0.660218
0.660552
0.661112
0.662025
0.66316
0.664439
0.66587
0.667452
0.669158
0.670899
0.672282
0.673052
0.67333
0.673273
0.673001
0.672608
0.672148
0.671763
0.671509
0.671298
0.655486
0.655761
0.65626
0.657127
0.658241
0.65954
0.661034
0.662739
0.664645
0.666682
0.668419
0.669524
0.670092
0.670283
0.670226
0.670026
0.669735
0.669477
0.669289
0.669109
0.650582
0.650812
0.651272
0.652123
0.653259
0.654621
0.656222
0.658102
0.660274
0.662681
0.664854
0.666357
0.66726
0.667732
0.667909
0.667901
0.667774
0.667628
0.667494
0.667337
0.645427
0.645621
0.646061
0.646926
0.648123
0.649592
0.651355
0.653479
0.655998
0.658878
0.661581
0.663555
0.664841
0.665628
0.666065
0.666257
0.666294
0.666254
0.666165
0.666025
0.639931
0.640095
0.640531
0.641439
0.64274
0.644364
0.646351
0.648796
0.651759
0.655235
0.658583
0.661117
0.662856
0.664004
0.664731
0.665155
0.665357
0.665413
0.665364
0.665236
0.633992
0.63413
0.634576
0.635556
0.637004
0.638841
0.641123
0.643969
0.647476
0.651675
0.655816
0.659043
0.661337
0.662912
0.663973
0.664651
0.665036
0.665193
0.665182
0.665063
0.627492
0.627605
0.628076
0.629155
0.630799
0.632916
0.635582
0.638951
0.643159
0.648259
0.653365
0.657412
0.660354
0.662434
0.663877
0.664843
0.665433
0.665696
0.665721
0.665607
0.620273
0.620365
0.620871
0.622083
0.623976
0.626448
0.629603
0.633635
0.638716
0.644928
0.651209
0.656251
0.659962
0.662637
0.664546
0.665848
0.666668
0.667045
0.667106
0.666995
0.612121
0.612206
0.612766
0.614125
0.616334
0.619266
0.623046
0.627908
0.634081
0.641674
0.649376
0.655603
0.66024
0.66363
0.666097
0.667804
0.66889
0.669391
0.669489
0.669377
0.602753
0.602814
0.603452
0.60502
0.607636
0.61115
0.615712
0.621616
0.629133
0.638397
0.647846
0.655522
0.661269
0.665515
0.668656
0.670846
0.672249
0.672894
0.673029
0.672912
0.591797
0.59184
0.592572
0.594439
0.597578
0.601848
0.607431
0.614692
0.623945
0.63531
0.646827
0.656172
0.663213
0.668467
0.672383
0.675159
0.676926
0.677728
0.6779
0.677775
0.578737
0.578762
0.579632
0.581884
0.58571
0.590965
0.597863
0.606835
0.61822
0.632123
0.646156
0.657531
0.666116
0.672569
0.677428
0.680902
0.683098
0.684075
0.684279
0.68414
0.562794
0.562811
0.563887
0.566683
0.57145
0.578053
0.586733
0.597982
0.612122
0.629157
0.646134
0.659802
0.670141
0.677967
0.683916
0.688205
0.69089
0.692051
0.692277
0.692117
0.542787
0.542808
0.544217
0.547852
0.554002
0.562524
0.573666
0.587927
0.605534
0.626343
0.646759
0.663059
0.675386
0.68477
0.691929
0.697137
0.700342
0.701678
0.701913
0.701724
0.516894
0.516944
0.51894
0.523963
0.532302
0.543684
0.55832
0.576608
0.598577
0.623882
0.648208
0.667422
0.681914
0.693002
0.701486
0.707691
0.711411
0.712891
0.713114
0.712891
0.482084
0.482249
0.485464
0.493092
0.505186
0.520982
0.540634
0.564236
0.591573
0.622084
0.650734
0.673058
0.689842
0.702721
0.712615
0.719805
0.723968
0.725523
0.725705
0.725446
0.432616
0.433616
0.440087
0.453068
0.471698
0.494326
0.520893
0.551211
0.584884
0.621212
0.654477
0.680035
0.699154
0.713855
0.725208
0.733309
0.737785
0.739317
0.739429
0.739134
0.359534
0.366846
0.381909
0.404929
0.433276
0.465049
0.500092
0.538195
0.578958
0.621677
0.65998
0.689098
0.710859
0.727636
0.740649
0.749716
0.754549
0.756118
0.756218
0.755966
0.280714
0.297939
0.322366
0.35603
0.394537
0.435628
0.479271
0.525414
0.573748
0.62367
0.668104
0.70185
0.727125
0.746689
0.761906
0.7723
0.777482
0.779001
0.779143
0.779044
0.215196
0.235462
0.267695
0.310274
0.357722
0.407612
0.459585
0.513601
0.56935
0.626258
0.676543
0.714615
0.743153
0.765251
0.78231
0.793456
0.798806
0.800661
0.800869
0.800868
0.161537
0.183498
0.2212
0.270188
0.324666
0.381933
0.441263
0.5025
0.56521
0.628756
0.684556
0.726637
0.758085
0.782341
0.800857
0.813141
0.819392
0.821066
0.821304
0.821336
0.116774
0.139894
0.181341
0.235385
0.295558
0.358894
0.424524
0.492153
0.561202
0.630898
0.691836
0.737584
0.771664
0.797918
0.817887
0.831019
0.837766
0.839608
0.839957
0.840009
0.0785627
0.102363
0.146638
0.204666
0.269578
0.338074
0.409173
0.482464
0.557246
0.632588
0.698248
0.747363
0.78382
0.811741
0.832704
0.84656
0.853733
0.855962
0.85639
0.856453
0.0448929
0.0691542
0.115659
0.176962
0.245869
0.318836
0.394772
0.47315
0.553159
0.633712
0.703768
0.755971
0.794508
0.823685
0.845345
0.859651
0.867181
0.869784
0.870326
0.870397
0.0142905
0.0389587
0.0872917
0.151413
0.223754
0.300636
0.380894
0.463896
0.548736
0.634191
0.708411
0.763501
0.803855
0.834055
0.856215
0.870874
0.878704
0.88157
0.882183
0.882242
-0.0141558
0.0108875
0.0608219
0.127335
0.202724
0.283083
0.367219
0.454454
0.543818
0.63395
0.712199
0.77005
0.812073
0.843162
0.865721
0.880672
0.888706
0.891706
0.892316
0.892338
-0.0411902
-0.0157395
0.0356764
0.104302
0.182409
0.265879
0.353528
0.444662
0.53828
0.632929
0.715149
0.775719
0.819347
0.851265
0.87423
0.889352
0.89749
0.90056
0.901211
0.901201
-0.0671146
-0.0412449
0.0113388
0.0820188
0.162558
0.248831
0.339671
0.434407
0.532044
0.631082
0.717262
0.780586
0.825861
0.858651
0.88204
0.897345
0.905516
0.908575
0.909238
0.909223
-0.09229
-0.0658681
-0.0122348
0.0602923
0.143013
0.231812
0.325556
0.423618
0.525046
0.628347
0.718519
0.784707
0.83175
0.865517
0.889386
0.90486
0.913046
0.916049
0.916622
0.916565
-0.116794
-0.089973
-0.0351892
0.0389819
0.123681
0.214756
0.311136
0.412261
0.517247
0.624679
0.718889
0.788117
0.837113
0.87199
0.896397
0.912032
0.920157
0.923059
0.923536
0.923411
-0.140718
-0.113397
-0.0575956
0.018052
0.104526
0.197644
0.296402
0.400324
0.508626
0.620028
0.718313
0.790804
0.84201
0.878178
0.903173
0.918909
0.926868
0.929575
0.929933
0.929758
-0.164163
-0.136276
-0.0795001
-0.00251136
0.0855451
0.18049
0.281379
0.387834
0.499188
0.614357
0.71672
0.792718
0.846472
0.884179
0.909821
0.925567
0.933235
0.935647
0.935883
0.935672
-0.187129
-0.1586
-0.100917
-0.0226962
0.0667793
0.16333
0.266118
0.374836
0.488957
0.607637
0.714035
0.793774
0.850476
0.890084
0.916493
0.932094
0.939249
0.941266
0.941364
0.94113
-0.209454
-0.180322
-0.121773
-0.0424662
0.0482635
0.146233
0.250681
0.361402
0.477989
0.599888
0.710187
0.793856
0.853934
0.895958
0.923418
0.938707
0.944984
0.946403
0.946345
0.946106
-0.231115
-0.201405
-0.142047
-0.0617663
0.0300581
0.129258
0.235157
0.347608
0.466359
0.591137
0.705126
0.792822
0.856693
0.901778
0.930885
0.945885
0.950735
0.951098
0.950794
0.950604
-0.25218
-0.221817
-0.161716
-0.0805635
0.0122269
0.112489
0.219633
0.333556
0.454157
0.581448
0.698809
0.790524
0.858513
0.907343
0.939087
0.95445
0.957481
0.955803
0.954776
0.954845
-0.27248
-0.241541
-0.180727
-0.098797
-0.00517175
0.0960066
0.204201
0.319355
0.441499
0.570921
0.691236
0.786806
0.859096
0.912195
0.947775
0.965224
0.967375
0.962855
0.95949
0.958812
-0.292113
-0.260569
-0.1991
-0.1165
-0.0221752
0.0797633
0.188799
0.304939
0.428311
0.559478
0.682274
0.781397
0.858107
0.915687
0.956032
0.978091
0.982566
0.977299
0.967767
0.952314
-0.311011
-0.2789
-0.216961
-0.133877
-0.0390778
0.0634181
0.173004
0.289818
0.414047
0.546472
0.671259
0.773483
0.854903
0.916857
0.961643
0.989865
0.997732
0.986433
0.9672
0.953242
-0.329003
-0.296672
-0.234121
-0.150711
-0.0555422
0.0473195
0.157043
0.27432
0.39902
0.532174
0.658303
0.762661
0.84883
0.914577
0.959825
0.98761
0.999152
0.977943
0.909178
0.877763
-0.345427
-0.315118
-0.250256
-0.166465
-0.0708135
0.0319692
0.141223
0.258671
0.383448
0.516717
0.643369
0.748696
0.838682
0.908397
0.946122
0.966822
0.962662
0.911028
0.841517
0.798499
-0.401477
-0.331395
-0.26497
-0.182231
-0.0864762
0.0159132
0.125479
0.242592
0.366967
0.499663
0.625892
0.731103
0.820872
0.897564
0.903527
0.912381
0.870411
0.803517
0.727622
0.685158
-0.363335
-0.347294
-0.286807
-0.203632
-0.109419
-0.00716979
0.101449
0.217906
0.341231
0.472326
0.596236
0.699338
0.78071
0.859816
0.852101
0.745152
0.642836
0.571565
0.49901
0.531409
-0.394687
-0.365338
-0.303956
-0.221562
-0.127361
-0.0253094
0.0835701
0.199409
0.321669
0.450908
0.57188
0.670861
0.744192
0.785807
0.740305
0.596639
0.471447
0.381511
0.28311
0.334907
-0.418927
-0.38665
-0.32405
-0.241502
-0.147232
-0.0452763
0.0635369
0.178566
0.299439
0.426265
0.543495
0.636731
0.700939
0.710039
0.607183
0.436698
0.285584
0.167718
0.0364438
0.0702385
-0.44269
-0.408859
-0.345097
-0.261708
-0.167327
-0.0654967
0.0428364
0.156936
0.276236
0.400309
0.512961
0.599675
0.648693
0.627017
0.472137
0.277352
0.087595
-0.0806607
-0.270832
-0.287567
-0.465881
-0.431589
-0.366958
-0.282852
-0.18831
-0.0866655
0.0210721
0.13413
0.251621
0.372599
0.480073
0.55966
0.590742
0.533981
0.343806
0.134451
-0.0829368
-0.273075
-0.51733
-0.823984
-0.489393
-0.455088
-0.389931
-0.305375
-0.210641
-0.109122
-0.00190091
0.110097
0.225693
0.343354
0.44546
0.516735
0.529106
0.421914
0.232399
0.0237466
-0.180401
-0.352811
-0.420073
-0.50286
-0.514185
-0.479806
-0.414366
-0.329611
-0.23482
-0.133513
-0.0268952
0.0838818
0.197282
0.311135
0.40748
0.468401
0.456653
0.31584
0.133782
-0.0555385
-0.217239
-0.309021
-0.332587
-0.348849
-0.54057
-0.506057
-0.44044
-0.355645
-0.260981
-0.160052
-0.054269
0.0549966
0.165804
0.275222
0.365305
0.413047
0.383568
0.217343
0.0445918
-0.119231
-0.244619
-0.282662
-0.296056
-0.297355
-0.568755
-0.534025
-0.468222
-0.383476
-0.289075
-0.188741
-0.0840369
0.0233953
0.131193
0.235603
0.318596
0.352349
0.305764
0.125884
-0.0376326
-0.183845
-0.259526
-0.276041
-0.277578
-0.27748
-0.598811
-0.563776
-0.497742
-0.413106
-0.319118
-0.219567
-0.1162
-0.0109343
0.0934561
0.192349
0.267329
0.290068
0.207724
0.0416933
-0.11356
-0.233619
-0.267933
-0.267659
-0.267424
-0.266905
-0.630462
-0.595142
-0.5289
-0.444446
-0.351017
-0.252473
-0.15072
-0.0479602
0.0526306
0.145566
0.21228
0.218423
0.115695
-0.0366472
-0.173293
-0.249539
-0.258805
-0.260612
-0.261
-0.26076
-0.663163
-0.62768
-0.561446
-0.477274
-0.384587
-0.287294
-0.187439
-0.0875404
0.00890052
0.0955586
0.153994
0.144055
0.0311232
-0.104315
-0.217483
-0.246307
-0.256352
-0.257666
-0.257136
-0.256681
-0.696471
-0.660865
-0.594945
-0.511199
-0.419483
-0.323706
-0.226072
-0.129373
-0.037447
0.042997
0.0917426
0.0723296
-0.0506826
-0.164589
-0.245109
-0.267889
-0.257793
-0.256428
-0.256231
-0.255742
-0.729514
-0.694007
-0.628539
-0.545632
-0.45516
-0.361229
-0.266161
-0.172964
-0.0859313
-0.0113821
0.0275484
0.00716413
-0.128283
-0.225159
-0.251037
-0.260288
-0.260995
-0.25787
-0.256195
-0.255794
-0.760748
-0.725939
-0.661297
-0.579658
-0.490855
-0.399156
-0.307038
-0.217628
-0.135704
-0.0669179
-0.0326189
-0.0617628
-0.192924
-0.315298
-0.304486
-0.299455
-0.276948
-0.25847
-0.25181
-0.250117
-0.788645
-0.754885
-0.692094
-0.612119
-0.525526
-0.436541
-0.347813
-0.262509
-0.185588
-0.122759
-0.0883772
-0.125498
-0.230903
-0.410821
-0.450726
-0.365968
-0.300109
-0.268259
-0.254687
-0.250132
-0.811149
-0.779088
-0.718964
-0.641612
-0.557884
-0.472214
-0.387361
-0.306546
-0.234455
-0.177613
-0.143439
-0.167319
-0.203964
-0.356956
-0.536388
-0.378506
-0.34404
-0.330391
-0.314597
-0.306281
-0.826085
-0.79666
-0.740004
-0.666313
-0.58639
-0.504797
-0.424406
-0.348436
-0.281289
-0.230169
-0.195382
-0.189487
-0.087124
0.0721053
-0.00759238
-0.230213
-0.369316
-0.4008
-0.400364
-0.400778
-0.830848
-0.805405
-0.753342
-0.684355
-0.609312
-0.532756
-0.457466
-0.386758
-0.325017
-0.279459
-0.23968
-0.241382
-0.115836
0.179601
-0.0245005
-0.292658
-0.428263
-0.462137
-0.469474
-0.473172
-0.823545
-0.802882
-0.756842
-0.694114
-0.625059
-0.554396
-0.484871
-0.419896
-0.364415
-0.324933
-0.288593
-0.411828
-0.643811
-0.902038
-0.890184
-0.727372
-0.654883
-0.640002
-0.638691
-0.64001
-0.801882
-0.785984
-0.7487
-0.694288
-0.632453
-0.568415
-0.504926
-0.445692
-0.396678
-0.366509
-0.367617
-0.616753
-1.02561
-1.37835
-1.24189
-0.952032
-0.865202
-0.823166
-0.802417
-0.796318
-0.767766
-0.757295
-0.729247
-0.684836
-0.631196
-0.574081
-0.516302
-0.461794
-0.416833
-0.393001
-0.405446
-0.578106
-0.682698
-0.665611
-0.481433
-0.602576
-0.747373
-0.781093
-0.744825
-0.753129
-0.726909
-0.720964
-0.702758
-0.668089
-0.622732
-0.571637
-0.518419
-0.466145
-0.421454
-0.39314
-0.406152
-0.487575
-0.693285
-1.02837
-1.42763
-1.72864
-1.71436
-1.46827
-1.21552
-1.12168
-0.687797
-0.684413
-0.674781
-0.648964
-0.609869
-0.563025
-0.51194
-0.459178
-0.408909
-0.373364
-0.381131
-0.461223
-0.632954
-0.871134
-1.06391
-1.2305
-1.24147
-1.10876
-0.940138
-0.853075
-0.657211
-0.655173
-0.650374
-0.632036
-0.597484
-0.551717
-0.49959
-0.441909
-0.383487
-0.326684
-0.286774
-0.245141
-0.126717
0.0715503
0.2924
0.504384
0.708528
0.853045
0.95169
0.998185
-0.631384
-0.630566
-0.629312
-0.618872
-0.588383
-0.541672
-0.484995
-0.419906
-0.347473
-0.267619
-0.181467
-0.056712
0.21047
0.618487
1.0473
1.43089
1.71438
1.89928
1.99431
2.02294
-0.614518
-0.613959
-0.613697
-0.608675
-0.582729
-0.534048
-0.470981
-0.397145
-0.311505
-0.215933
-0.103572
0.013665
0.330046
0.775079
1.24604
1.67817
2.00749
2.20672
2.30107
2.32935
-0.603022
-0.602616
-0.602355
-0.601217
-0.580305
-0.52965
-0.459598
-0.377962
-0.284492
-0.179272
-0.0674086
0.04267
0.271879
0.702151
1.15344
1.55945
1.86362
2.04214
2.12433
2.14807
-0.595823
-0.594397
-0.592742
-0.593984
-0.580303
-0.528074
-0.450974
-0.362136
-0.265257
-0.156771
-0.0453855
0.0732754
0.240402
0.597223
0.965626
1.28173
1.52412
1.66826
1.73538
1.75434
-0.601661
-0.59989
-0.600151
-0.603395
-0.588909
-0.527637
-0.440942
-0.345595
-0.246799
-0.139163
-0.0307539
0.0809075
0.205419
0.434385
0.727074
0.965926
1.1527
1.26293
1.31154
1.32418
-0.615875
-0.618194
-0.625585
-0.627387
-0.600421
-0.520788
-0.422034
-0.323106
-0.226667
-0.125905
-0.0291285
0.0630009
0.149974
0.301405
0.503538
0.680119
0.818954
0.901562
0.938457
0.946526
-0.591567
-0.599505
-0.611508
-0.61012
-0.570462
-0.48206
-0.383044
-0.289924
-0.203303
-0.116504
-0.034576
0.0387549
0.108107
0.198536
0.340674
0.464028
0.556368
0.610747
0.631912
0.635192
-0.466963
-0.47564
-0.485591
-0.482899
-0.449722
-0.385029
-0.312886
-0.2414
-0.173036
-0.103883
-0.038677
0.0154734
0.0646263
0.117168
0.206261
0.290801
0.351913
0.390083
0.404825
0.405806
-0.275112
-0.279933
-0.286719
-0.289386
-0.278389
-0.252807
-0.218812
-0.179461
-0.136032
-0.0879196
-0.0438706
-0.00903897
0.0207422
0.0548556
0.111436
0.1662
0.205012
0.226751
0.234787
0.234279
-0.100779
-0.103186
-0.109076
-0.118651
-0.128228
-0.133326
-0.130292
-0.118664
-0.0987041
-0.0719514
-0.0464467
-0.0275458
-0.0128065
0.00683636
0.0426567
0.0773516
0.101227
0.112556
0.116225
0.115105
0.00878239
0.00745231
0.00195408
-0.0111706
-0.0310522
-0.0504717
-0.064005
-0.0693483
-0.0658827
-0.0551608
-0.0444112
-0.0394272
-0.0376479
-0.0241489
2.78858e-05
0.0207304
0.0324141
0.0369959
0.0378102
0.0367848
0.0581513
0.0571239
0.0522581
0.0398482
0.019951
-0.00187623
-0.0208262
-0.0339141
-0.039985
-0.040073
-0.039974
-0.0441834
-0.0490099
-0.0388166
-0.0218096
-0.0110467
-0.00659469
-0.00613893
-0.00678237
-0.00767038
0.0718949
0.071126
0.0674202
0.0577415
0.041685
0.0228594
0.00476357
-0.0101286
-0.0203249
-0.0261985
-0.0317388
-0.0401419
-0.0473592
-0.0396325
-0.0288261
-0.0234732
-0.0229339
-0.024298
-0.0252955
-0.0260131
0.0690508
0.0685289
0.0659925
0.0592258
0.047621
0.0332046
0.0182743
0.00485285
-0.00573793
-0.0133276
-0.0200189
-0.0283443
-0.0341716
-0.0263292
-0.0201714
-0.0193262
-0.0211575
-0.023348
-0.0243706
-0.0250123
0.0598383
0.0595034
0.0578901
0.053517
0.0457343
0.0355589
0.0243995
0.0137773
0.0048534
-0.00151372
-0.00576575
-0.0099669
-0.0109853
-0.00402646
-0.00159878
-0.00368094
-0.00674628
-0.00897432
-0.00993623
-0.0105885
0.0491386
0.0489234
0.0479581
0.045336
0.040485
0.0338188
0.0261481
0.0186344
0.0123791
0.00884092
0.00903079
0.0115935
0.0158438
0.0215681
0.020984
0.0175352
0.014429
0.0128308
0.0121167
0.0114292
0.0391486
0.0390021
0.0384578
0.0370158
0.0342323
0.0301863
0.0253261
0.0205193
0.0168796
0.0164147
0.0219523
0.0325104
0.0440284
0.0480073
0.0436196
0.0392267
0.037213
0.0366741
0.0362773
0.0354075
0.030673
0.0305655
0.0302644
0.0295419
0.0280856
0.0258043
0.0229615
0.0201725
0.0186417
0.0206602
0.0300121
0.0465708
0.0629267
0.0639208
0.0575638
0.0540866
0.0537938
0.0548351
0.0548042
0.0538011
0.0238029
0.0237185
0.0235401
0.0231892
0.0224754
0.0212369
0.0196101
0.0180065
0.0174522
0.020239
0.0304401
0.0483523
0.0648427
0.0642311
0.0591174
0.058394
0.0603334
0.0625216
0.0625976
0.0614177
0.0183221
0.0182482
0.0181104
0.0179
0.0175002
0.0167613
0.0156567
0.014467
0.0138078
0.0153194
0.0223176
0.0359596
0.0483567
0.0465202
0.043778
0.0462353
0.0515706
0.0551264
0.055343
0.0541794
0.0138809
0.0138103
0.0136746
0.0134669
0.0131817
0.0125383
0.0115352
0.0101836
0.00851014
0.00701275
0.00718758
0.0103069
0.0136396
0.011259
0.0143924
0.0222923
0.0297143
0.0336313
0.033789
0.0327719
0.0101745
0.0101042
0.00998171
0.00976943
0.00940169
0.00877905
0.00767355
0.00586169
0.00294636
-0.00239586
-0.0109543
-0.0222831
-0.0334151
-0.0343446
-0.0225272
-0.00913984
-0.000330073
0.00294471
0.00331418
0.00270825
0.00712486
0.00705841
0.00693614
0.00664052
0.00624851
0.00561399
0.00447168
0.00250495
-0.00123212
-0.0092864
-0.0260477
-0.0520806
-0.0753564
-0.0715577
-0.0526988
-0.0360159
-0.0280149
-0.0252813
-0.0246924
-0.0249272
0.00460095
0.00453071
0.00440338
0.00414172
0.0037413
0.0031624
0.00215308
0.000263373
-0.00351941
-0.0115927
-0.030223
-0.0630017
-0.0909204
-0.0832752
-0.0621573
-0.0488187
-0.0435248
-0.0420146
-0.0411314
-0.0409281
0.00246725
0.00240536
0.00236063
0.0022163
0.00187238
0.00143493
0.000774423
-0.000504275
-0.00304438
-0.00899316
-0.022841
-0.0485117
-0.0689165
-0.0591088
-0.0451671
-0.0400359
-0.0383961
-0.0379918
-0.0369839
-0.0365585
0.000775187
0.000722781
0.000653891
0.000626064
0.000584353
0.00027112
-1.15118e-05
3.19467e-05
-4.32437e-05
-0.00042943
-0.00181833
-0.00628546
-0.0155956
-0.0145186
-0.0150877
-0.017103
-0.018193
-0.0164852
-0.0134879
-0.0119246
-0.0393671
0.130268
0.328705
0.501296
0.639744
0.749454
0.84051
0.917671
0.952341
0.929029
0.269483
0.392094
0.523914
0.638081
0.734534
0.814548
0.879294
0.925142
0.94811
0.960119
0.492023
0.576124
0.666179
0.745957
0.814601
0.872037
0.917675
0.950988
0.975023
0.992953
0.655032
0.714981
0.777971
0.835805
0.886235
0.929029
0.964152
0.992148
1.01514
1.03341
0.78206
0.825826
0.87237
0.916704
0.95589
0.990091
1.01934
1.04367
1.06419
1.08201
0.887329
0.920603
0.959095
0.995005
1.02794
1.05745
1.08322
1.10487
1.12281
1.14015
0.980492
1.00941
1.04365
1.07601
1.10616
1.1335
1.15738
1.17721
1.19278
1.20985
1.06946
1.09881
1.13298
1.16517
1.1949
1.2216
1.24455
1.26311
1.27652
1.29356
1.16501
1.19831
1.23506
1.26873
1.29885
1.32511
1.34712
1.36444
1.37634
1.39375
1.28015
1.31804
1.35675
1.39105
1.42045
1.44524
1.46565
1.48157
1.49306
1.51113
1.42518
1.46376
1.49995
1.53067
1.55638
1.5785
1.59758
1.61313
1.62557
1.64358
1.60033
1.63196
1.65817
1.68064
1.70064
1.71938
1.73711
1.7536
1.76896
1.78703
1.78898
1.80619
1.82124
1.83748
1.8534
1.86794
1.88116
1.89509
1.91264
1.93279
1.9707
1.98026
1.99181
2.00262
2.01191
2.0215
2.03229
2.04366
2.05503
2.07039
2.17797
2.18164
2.16669
2.15188
2.14561
2.15129
2.16977
2.20009
2.23227
2.25892
2.48428
2.34942
2.27279
2.23043
2.213
2.21697
2.24437
2.30078
2.4034
2.62777
0.776108
0.773977
0.769492
0.760863
0.748632
0.736495
0.726253
0.718338
0.712692
0.709399
0.708994
0.711684
0.716748
0.723939
0.733304
0.744828
0.757468
0.768494
0.774602
0.777653
0.700572
0.706417
0.712751
0.717238
0.719699
0.719365
0.716613
0.712782
0.709241
0.70694
0.706741
0.708885
0.712504
0.71676
0.720542
0.722408
0.721458
0.717966
0.712797
0.706175
0.69217
0.694466
0.697866
0.700855
0.702921
0.704405
0.705143
0.704802
0.703745
0.702816
0.702932
0.7043
0.706067
0.707334
0.707485
0.706572
0.705006
0.702657
0.699385
0.696461
0.686689
0.687775
0.689603
0.691974
0.693987
0.6954
0.6964
0.697123
0.697487
0.697657
0.698081
0.698821
0.699362
0.699382
0.698933
0.698057
0.696566
0.694465
0.692367
0.690981
0.681524
0.682187
0.683291
0.684987
0.686756
0.688371
0.689643
0.690627
0.691464
0.692194
0.692845
0.693315
0.69344
0.693216
0.692604
0.691513
0.690057
0.688492
0.687159
0.686375
0.676598
0.677058
0.67784
0.679129
0.680602
0.6821
0.683538
0.684799
0.685883
0.686867
0.687688
0.688157
0.688217
0.687872
0.687116
0.68608
0.684917
0.683755
0.682822
0.682302
0.671832
0.672177
0.672784
0.673842
0.67512
0.676472
0.677881
0.679284
0.680597
0.681792
0.682789
0.683359
0.683428
0.683062
0.682388
0.681551
0.68065
0.679748
0.679053
0.678671
0.667174
0.667443
0.667932
0.668831
0.669983
0.671255
0.672615
0.674056
0.675527
0.676947
0.678158
0.678877
0.679042
0.678805
0.678316
0.677677
0.676965
0.676277
0.675759
0.675467
0.662549
0.662762
0.663168
0.663956
0.665028
0.666249
0.667594
0.669072
0.67066
0.672294
0.673761
0.674704
0.675073
0.675046
0.674761
0.674318
0.673791
0.673281
0.672898
0.672669
0.657872
0.658043
0.658391
0.659106
0.660131
0.661328
0.662694
0.664243
0.665968
0.667829
0.669599
0.670853
0.671504
0.671727
0.671661
0.671418
0.671078
0.670724
0.670451
0.670268
0.653064
0.653202
0.653507
0.654178
0.655186
0.656404
0.657829
0.65949
0.661401
0.663536
0.665677
0.667326
0.668318
0.668828
0.669007
0.668971
0.668808
0.6686
0.668417
0.668271
0.648045
0.648156
0.648433
0.649085
0.650111
0.651395
0.652924
0.654754
0.656922
0.659417
0.662022
0.66414
0.665524
0.666358
0.666807
0.66699
0.667006
0.666936
0.666832
0.666715
0.64273
0.642817
0.643077
0.643735
0.644815
0.646206
0.647893
0.649955
0.652457
0.655412
0.658591
0.661273
0.663121
0.664331
0.66508
0.665511
0.665717
0.665781
0.665746
0.665651
0.637027
0.637091
0.637343
0.638028
0.639199
0.640745
0.64265
0.64502
0.647941
0.651471
0.655356
0.658722
0.661129
0.662782
0.663879
0.664586
0.664998
0.665198
0.665229
0.665154
0.630826
0.630869
0.631119
0.631852
0.633151
0.634902
0.637093
0.639853
0.643308
0.647544
0.652293
0.656501
0.659585
0.661771
0.66327
0.664284
0.664943
0.66529
0.665385
0.665327
0.623988
0.624008
0.624261
0.625065
0.626534
0.628552
0.631116
0.634387
0.638526
0.643652
0.649462
0.654679
0.658562
0.661369
0.663342
0.664716
0.66565
0.666159
0.66632
0.666279
0.616332
0.616341
0.616598
0.617488
0.619181
0.621534
0.62457
0.628483
0.633478
0.639718
0.646833
0.653263
0.658101
0.661647
0.664199
0.666016
0.66726
0.667944
0.668175
0.668148
0.607585
0.60756
0.60787
0.608893
0.610856
0.613635
0.617274
0.621992
0.628047
0.635641
0.644345
0.65226
0.658263
0.662702
0.665936
0.668292
0.66991
0.670802
0.671109
0.671094
0.597465
0.597415
0.597765
0.598969
0.601276
0.604606
0.609013
0.614766
0.622181
0.631487
0.642135
0.651817
0.659177
0.664663
0.668718
0.671705
0.673764
0.674892
0.675282
0.675278
0.585506
0.585427
0.585853
0.587293
0.590055
0.594107
0.599515
0.606603
0.615738
0.627166
0.640171
0.651957
0.660932
0.667669
0.672697
0.676424
0.679006
0.680407
0.680883
0.680885
0.571083
0.570977
0.571519
0.57328
0.57664
0.58165
0.588381
0.597208
0.608537
0.622592
0.638449
0.65273
0.663594
0.671785
0.677969
0.682587
0.68579
0.6875
0.688063
0.688062
0.553219
0.553087
0.553822
0.556071
0.560294
0.566661
0.575231
0.58642
0.600626
0.617981
0.63723
0.654364
0.667355
0.677192
0.684692
0.690311
0.694209
0.696248
0.696888
0.696875
0.530438
0.530291
0.53136
0.534385
0.53994
0.548321
0.559509
0.573911
0.591821
0.613204
0.636443
0.656857
0.672246
0.683917
0.692869
0.699621
0.70427
0.706635
0.707331
0.707296
0.500395
0.500274
0.50196
0.506362
0.51418
0.525748
0.540827
0.559684
0.582381
0.608653
0.636465
0.660463
0.678434
0.692065
0.702558
0.710527
0.715908
0.718547
0.719265
0.719196
0.458962
0.45901
0.462072
0.469358
0.481384
0.498189
0.51905
0.543912
0.572571
0.604561
0.637454
0.665301
0.68597
0.701641
0.713757
0.722957
0.728976
0.731765
0.732448
0.732338
0.398458
0.399661
0.407201
0.420896
0.440631
0.465746
0.49474
0.527259
0.563002
0.601395
0.639708
0.671507
0.694899
0.712588
0.726304
0.736622
0.743134
0.745899
0.746434
0.746285
0.32618
0.328003
0.342428
0.366097
0.396685
0.43161
0.469516
0.510272
0.553686
0.599249
0.64398
0.680831
0.707935
0.728486
0.7443
0.75606
0.763255
0.766132
0.766735
0.766705
0.251489
0.257751
0.27905
0.312889
0.353766
0.398257
0.445067
0.494117
0.545301
0.59817
0.649529
0.691659
0.722643
0.74626
0.7646
0.778059
0.785773
0.788316
0.788728
0.788787
0.190553
0.199047
0.225
0.265859
0.314682
0.367308
0.422132
0.478933
0.537525
0.597418
0.655124
0.702201
0.736756
0.763071
0.783412
0.798084
0.806077
0.808984
0.809866
0.81
0.140929
0.150008
0.179507
0.225552
0.280468
0.339639
0.401204
0.464838
0.530172
0.59661
0.660269
0.71196
0.749745
0.778451
0.800593
0.816463
0.825365
0.828912
0.829983
0.830139
0.0992349
0.108589
0.140519
0.190516
0.250398
0.314989
0.382269
0.451854
0.523222
0.595639
0.664804
0.720731
0.761472
0.792344
0.816064
0.832921
0.842601
0.846621
0.84788
0.848038
0.0630678
0.0725414
0.106303
0.159472
0.223424
0.29261
0.364865
0.439708
0.516506
0.594388
0.668625
0.72846
0.771881
0.80458
0.829425
0.846987
0.85738
0.861815
0.863159
0.863331
0.0307757
0.0403014
0.0754643
0.131313
0.198682
0.271817
0.348464
0.428023
0.509769
0.5927
0.671692
0.735183
0.781019
0.815221
0.840864
0.858933
0.869756
0.87455
0.876021
0.876217
0.00111227
0.0106974
0.0470106
0.105178
0.175503
0.252099
0.332642
0.416465
0.502769
0.590451
0.673977
0.740959
0.789026
0.824536
0.850853
0.869321
0.880429
0.885512
0.887049
0.887238
-0.0267296
-0.017082
0.0202652
0.0804286
0.153388
0.233069
0.317098
0.404801
0.495338
0.587527
0.675458
0.745848
0.796054
0.832757
0.859665
0.878437
0.88972
0.894952
0.8965
0.896696
-0.0532588
-0.0435366
-0.00523016
0.056642
0.132006
0.214446
0.301625
0.392876
0.487355
0.583854
0.67611
0.749903
0.802237
0.840126
0.867628
0.886693
0.898111
0.903379
0.904927
0.90503
-0.0789118
-0.0690169
-0.0298626
0.0336413
0.111136
0.196054
0.286085
0.380582
0.478746
0.57937
0.675895
0.753148
0.807693
0.84685
0.875006
0.894374
0.9059
0.911136
0.912632
0.912724
-0.103867
-0.0937449
-0.0538391
0.0112223
0.0906343
0.177784
0.270394
0.367865
0.469457
0.574022
0.674771
0.75559
0.812504
0.853067
0.881972
0.901667
0.913275
0.918443
0.919842
0.919912
-0.128183
-0.117851
-0.0771629
-0.0107165
0.0704259
0.159589
0.254522
0.354701
0.459464
0.567763
0.672683
0.757211
0.816716
0.85888
0.888637
0.908663
0.920275
0.925299
0.92657
0.92658
-0.15199
-0.141363
-0.0999342
-0.032197
0.0504916
0.141454
0.23847
0.341096
0.448771
0.560578
0.669571
0.757954
0.820337
0.864371
0.895112
0.915444
0.92696
0.93175
0.93283
0.932773
-0.175225
-0.164319
-0.122171
-0.0532464
0.0308437
0.123407
0.222279
0.327095
0.437405
0.552456
0.665381
0.757737
0.823331
0.869592
0.901515
0.922121
0.933357
0.937756
0.938616
0.938502
-0.197931
-0.186722
-0.143814
-0.0738328
0.0115116
0.105487
0.205997
0.312761
0.42542
0.543415
0.66007
0.756467
0.825605
0.874553
0.907996
0.928869
0.939564
0.943338
0.943914
0.943747
-0.219931
-0.208489
-0.16484
-0.0939023
-0.00745109
0.0877672
0.189693
0.298164
0.412887
0.533513
0.653617
0.754046
0.827026
0.879192
0.914711
0.936024
0.945833
0.948545
0.948691
0.948477
-0.241364
-0.229578
-0.185234
-0.113431
-0.0260083
0.0702909
0.173461
0.283385
0.399894
0.522829
0.646034
0.750369
0.827409
0.883329
0.921715
0.94409
0.952827
0.953737
0.952976
0.95268
-0.262067
-0.249967
-0.204966
-0.132373
-0.0440798
0.053144
0.157382
0.268544
0.38655
0.51143
0.637367
0.745345
0.826541
0.886646
0.928788
0.953506
0.961868
0.960338
0.957367
0.956125
-0.282103
-0.2697
-0.223986
-0.150679
-0.0616292
0.0363955
0.141538
0.253721
0.372965
0.499456
0.627696
0.738896
0.824212
0.888701
0.935249
0.964001
0.974335
0.971787
0.964744
0.955493
-0.301394
-0.288745
-0.242396
-0.168509
-0.0788738
0.0197586
0.125582
0.238499
0.358675
0.486386
0.616466
0.730422
0.819861
0.888965
0.940111
0.974349
0.990096
0.989426
0.979164
0.971893
-0.319896
-0.307027
-0.260191
-0.185833
-0.0958129
0.00323381
0.109532
0.222862
0.343637
0.472109
0.6035
0.719574
0.812776
0.886657
0.941094
0.97935
0.997787
1.00224
0.964784
0.912098
-0.337321
-0.323771
-0.27725
-0.202577
-0.112552
-0.013329