/*--------------------------------*- C++ -*----------------------------------*\
  =========                 |
  \\      /  F ield         | OpenFOAM: The Open Source CFD Toolbox
   \\    /   O peration     | Website:  https://openfoam.org
    \\  /    A nd           | Version:  10
     \\/     M anipulation  |
\*---------------------------------------------------------------------------*/
FoamFile
{
    format      ascii;
    class       volScalarField;
    location    "75";
    object      p;
}
// * * * * * * * * * * * * * * * * * * * * * * * * * * * * * * * * * * * * * //

dimensions      [0 2 -2 0 0 0 0];

internalField   nonuniform List<scalar> 
918
(
0.556798
1.17686
0.000465003
0.556258
-0.00950736
1.14389
-0.512935
0.652465
0.537005
-0.107461
-0.0565809
0.539327
1.00438
0.7701
-1.12463
-0.0121031
0.651191
-0.382622
0.536128
-0.0636545
0.681211
0.543538
0.546562
0.537139
0.59658
0.7445
0.885297
0.0266398
0.0135343
0.0063138
-0.01455
-0.0360505
-0.0310012
1.02755
1.07862
1.1013
0.504722
0.333413
-0.378573
-0.452024
-0.438379
-0.542778
0.653198
0.653752
-0.216227
0.654489
0.654316
0.524012
0.536374
0.537287
0.538299
0.537289
0.538666
0.402438
-0.108434
-0.139841
-0.0881247
-0.0813956
0.0499501
-0.0567402
-0.0586983
-0.0554219
-0.0547087
0.453802
0.533722
0.530152
0.543611
0.552817
1.11641
1.08835
1.11449
1.02806
1.04461
0.982389
0.955057
0.790947
0.81267
0.754969
0.743339
-1.55474
-2.50333
-0.536286
-0.286364
-0.0153301
-0.0105867
-0.00508197
0.648529
0.649636
0.650781
0.652587
1.07839
-0.379957
-0.481208
0.536271
0.535082
0.543393
0.544095
0.540116
0.539206
-0.0547975
-0.0519177
-0.053624
-0.0589225
-0.0570213
0.662262
0.665247
0.537666
0.534667
0.560361
0.580839
0.570903
0.276637
0.607676
0.623733
0.577723
0.739735
0.731701
0.741412
0.858804
0.822357
0.922576
0.945712
0.0186462
-0.00171499
-0.0165861
-0.0200075
-0.018899
0.500547
0.49308
0.520806
0.508163
0.510675
0.250368
0.117334
0.418247
0.442989
-0.298172
-0.365755
-0.430791
-0.461268
-0.568934
0.612993
0.654028
0.652548
-0.225606
-0.15393
-0.287943
-0.0808098
-0.144021
0.51426
0.521286
0.516278
0.53185
0.526312
0.528278
0.54065
0.537718
0.539278
0.464534
0.58803
0.328698
0.293149
-0.243773
-0.155229
-0.243071
-0.0713531
-0.0688438
0.0640996
0.0898213
0.0366521
0.024749
-0.0649129
-0.0599248
-0.0622701
-0.0537168
-0.0532248
0.446522
0.435252
0.466509
0.474081
0.520054
0.521567
0.526071
0.524129
0.905908
0.928132
0.935761
0.90965
-3.48983
-6.26617
0.037346
0.173192
-0.0066416
-0.0109732
0.00444082
-0.0106928
-0.00350113
-0.00460212
-0.0105461
-0.0116375
-0.00623666
-0.00514137
0.643051
0.644009
1.00086
1.00825
0.976112
0.929065
0.524513
0.526573
0.53206
0.527946
-0.0521841
-0.0514721
-0.0513051
0.656375
0.660085
0.658433
0.237954
0.14782
0.327921
0.357206
0.63661
0.62563
0.634934
0.637004
0.673171
0.953066
0.971267
0.96957
0.977997
1.02212
1.0386
1.00381
0.479934
0.489948
0.484877
0.523714
0.521575
0.522432
0.518908
0.519855
0.5181
-0.0328123
-0.411879
0.490386
0.506865
0.492617
0.494644
0.693091
0.771662
0.651974
0.652958
0.652823
-0.0111374
-0.0696573
0.248211
0.213911
0.385826
0.422383
0.401271
0.876982
0.837577
0.88764
0.860904
0.822462
0.847874
-0.363419
-1.85981
-0.980655
0.520962
0.336123
0.422642
0.00655831
-0.0100786
-0.00555032
1.00101
1.07294
0.643841
0.818941
0.821346
0.710809
0.740555
0.795507
0.722233
0.756161
0.790276
0.771348
0.568837
0.503588
0.519938
0.840566
0.896116
0.117267
0.0549808
0.0112468
0.108978
0.166565
0.140456
1.03284
0.949614
1.01958
0.53443
0.535154
-0.00516223
-0.017782
0.539412
0.539469
-0.0173088
-0.00478291
0.406257
-0.832122
0.095325
0.52801
0.517865
0.535022
-0.0934475
0.353905
-0.0574003
0.0456954
-0.0108203
0.529345
0.464949
0.423956
-0.00173144
-0.0215338
-0.0540885
-0.213904
0.5321
0.530404
0.53449
0.535427
0.53611
-0.019804
-0.0153335
-0.0106202
-0.0506
-0.0422895
-0.0556075
0.498884
0.518307
-0.172061
0.534637
0.536775
0.536592
0.529866
0.535491
0.533746
-0.0126945
-0.0182035
-0.0194915
0.217755
0.350759
0.644535
0.729749
0.61739
0.39384
0.159848
0.548456
0.611362
0.517657
0.67049
0.649125
0.650512
0.160806
0.010294
0.16993
0.111814
0.525877
0.524617
0.516116
0.513071
0.52989
0.528007
0.532563
0.529593
0.532542
0.53392
-0.0501728
-0.0760391
-0.0856436
-0.15218
0.308699
0.569714
0.253389
0.282652
0.139859
-0.0511218
-0.0528208
-0.0545544
-0.0611215
-0.000703881
-0.02679
0.0403717
0.0404638
0.0124924
-0.0131872
-0.011177
-0.0222899
-0.0163648
0.522607
0.522669
0.527056
0.535754
0.474626
0.478416
0.443169
0.463993
0.449184
0.387698
0.423226
0.398349
-0.00955849
-0.000226453
-0.00642978
-0.0196063
-0.0156547
-0.0355703
-0.0323238
-0.0278873
-0.0235355
-0.0304974
-0.0485291
-0.0518798
-0.171906
-0.287795
0.987491
0.907614
0.137352
0.521241
0.527703
0.52446
0.529401
0.53253
0.533323
0.531026
0.527571
0.518556
0.520088
0.51673
0.517729
-0.103076
-0.245041
-0.0733483
-0.148594
0.14553
0.627665
0.362645
0.297614
0.293081
0.522596
0.914185
0.696296
0.662766
0.656728
-0.34503
0.0427546
-0.281926
0.332491
0.160368
0.64381
0.693086
0.715265
0.662969
0.616133
-0.0997642
0.55544
-0.0766844
-0.0239466
0.178234
0.052848
0.652637
0.637857
0.6454
0.644144
0.655485
0.639935
0.621369
0.621975
0.640214
0.646175
0.480557
0.248388
0.198762
0.160295
0.64269
0.513752
0.562293
0.487932
0.52122
0.523735
0.522393
0.503724
0.511325
0.506837
0.51339
0.517048
0.525613
0.526101
0.521341
0.52347
-0.0566543
-0.0624591
-0.0264254
-0.136238
-0.12888
-0.191149
-0.0602725
0.0740095
0.0356354
0.236481
0.339699
0.051157
-0.0577427
-0.0305814
0.0119577
0.179131
0.207928
0.0728492
0.160066
0.151882
0.132707
0.23566
0.238814
-0.0319634
-0.0331868
-0.0382537
-0.0412381
0.0168082
0.0881582
0.0975821
-0.0102161
-0.0153097
-0.0493883
-0.0503972
-0.0242361
-0.0291652
-0.0243567
0.00293955
-0.0540189
-0.0219494
-0.00819315
-0.0082194
-0.00812989
-0.0134981
0.517481
0.519227
0.51945
0.527978
0.540054
0.554788
0.520916
0.496887
0.487654
0.490664
0.463608
0.473884
0.469753
0.48332
0.504537
0.513107
0.511404
0.514209
0.496557
0.498322
0.484808
0.488453
0.463642
0.44418
0.432157
-0.0442127
-0.00657357
-0.0141508
-0.0400194
-0.0113048
-0.0228703
-0.0128758
0.00594477
-0.010794
-0.0114478
-0.0213094
-0.0283096
-0.0279525
-0.0738101
0.0131037
-0.185852
-0.220869
-0.29444
0.889758
1.01399
0.808626
0.581379
0.602203
0.845765
0.929828
0.541606
0.73414
0.757219
0.587696
0.854725
0.526095
0.525687
0.523287
0.522766
0.523988
-0.0075109
0.0993493
0.0963286
0.160637
0.277309
0.388692
0.320706
0.195095
0.324905
0.327328
0.62051
0.632546
0.588436
0.612344
0.613097
0.424396
0.500008
0.551788
0.512915
0.565352
0.587161
0.540761
0.57406
0.523036
0.4783
0.474442
0.424034
0.443633
0.41911
0.402242
0.516106
0.493078
0.503914
0.494211
0.515902
0.542973
0.540052
0.562175
0.577251
0.497354
0.452347
0.461705
0.491906
0.453433
0.46899
0.484834
0.233532
0.135948
0.218709
-0.0658708
0.00382539
-0.00829623
-0.0572543
-0.00528343
0.278759
-0.411496
-0.38836
-1.0146
0.504772
0.95209
0.580608
0.558442
0.656826
0.644613
0.651019
0.667767
0.662915
0.631206
0.639773
0.644482
0.591185
0.612077
0.630362
0.626284
0.523655
0.37956
0.379715
0.326622
0.196892
0.237147
0.432571
0.356967
0.282242
0.28231
0.455494
0.341758
0.412302
0.444902
0.37609
0.33084
0.533961
0.600347
0.593241
0.56716
0.476541
0.488368
0.512993
0.546441
0.569684
0.603077
0.512832
0.518787
0.52002
0.517486
0.514747
0.517857
0.518141
0.520746
0.521316
0.524354
0.523436
-0.0534938
-0.0398036
-0.0509595
-0.0625176
-0.0188075
-0.0217104
0.0217644
0.00946764
-0.0170877
-0.0128993
-0.0341439
-0.038172
-0.0349723
-0.0273939
0.101939
0.114578
0.0993937
0.0591429
0.249774
0.379639
0.453975
0.328755
0.223141
0.247455
0.266022
-0.014206
0.011456
-0.00106622
0.0382371
0.0303413
-0.0414332
-0.0456982
-0.041899
-0.0333098
-0.0252141
-0.0422913
-0.048033
-0.0386217
-0.0435071
-0.046809
-0.0510154
0.499161
0.49264
0.494238
0.488165
0.486886
0.50113
0.505446
0.50739
0.512834
0.515184
0.505227
0.510648
0.514641
-0.0142012
-0.0373409
-0.0406026
-0.0329014
-0.034187
-0.0315365
-0.0332093
0.123485
0.054565
0.0582291
0.0109394
-0.121895
-0.0637823
0.492359
0.491125
0.4801
0.721276
0.570471
0.491542
0.588732
0.694398
0.276453
0.472748
0.308172
0.888038
0.785006
0.931222
0.541916
0.246267
0.411531
0.453025
0.267271
0.343676
0.323314
0.212547
0.243151
0.282147
0.380719
0.266396
0.243488
-0.000169674
0.190942
0.302263
0.284216
0.408242
0.46864
0.267828
0.18731
0.14222
0.604629
0.624386
0.637798
0.60976
0.632456
0.581106
0.573181
0.588536
0.596537
0.590482
-0.743144
-0.449422
-1.39666
-0.720676
-0.264433
0.535335
0.508689
0.769376
0.644161
0.675581
0.659967
0.619939
0.590295
0.616134
0.63744
0.337817
0.448336
0.42343
0.429591
0.332504
0.262413
0.561038
0.558762
0.591418
0.615438
0.587597
0.617952
0.510634
0.510355
0.509824
0.50606
0.504318
0.506668
0.0574097
0.0247061
0.065986
0.0481898
0.0259522
0.014416
-0.0143169
-0.0245232
-0.0309203
-0.0300463
-0.0154895
-0.0116628
0.172629
0.109525
0.0299117
0.0586572
-0.00236071
-0.0708661
-0.0902939
0.0157872
0.112032
0.102185
0.405294
0.654273
0.474371
0.641826
0.48475
0.540417
0.468362
0.459415
0.484198
0.380167
0.460664
0.253208
-0.255472
-0.164785
0.795435
0.805534
0.58087
0.407256
0.174434
0.350417
0.539302
0.468409
0.503814
0.572835
0.559526
0.0319069
0.0884321
0.378665
0.605411
0.242019
0.232917
0.226287
0.41173
0.329277
)
;

boundaryField
{
    wall-4
    {
        type            zeroGradient;
    }
    velocity-inlet-5
    {
        type            zeroGradient;
    }
    velocity-inlet-6
    {
        type            zeroGradient;
    }
    pressure-outlet-7
    {
        type            fixedValue;
        value           uniform 0;
    }
    wall-8
    {
        type            zeroGradient;
    }
    frontAndBackPlanes
    {
        type            empty;
    }
}


// ************************************************************************* //
