/*--------------------------------*- C++ -*----------------------------------*\
  =========                 |
  \\      /  F ield         | OpenFOAM: The Open Source CFD Toolbox
   \\    /   O peration     | Website:  https://openfoam.org
    \\  /    A nd           | Version:  10
     \\/     M anipulation  |
\*---------------------------------------------------------------------------*/
FoamFile
{
    format      ascii;
    class       volScalarField;
    location    "74";
    object      p;
}
// * * * * * * * * * * * * * * * * * * * * * * * * * * * * * * * * * * * * * //

dimensions      [0 2 -2 0 0 0 0];

internalField   nonuniform List<scalar> 
2200
(
0.773493
0.751996
0.736094
0.720434
0.705832
0.693327
0.682993
0.674916
0.66923
0.66637
0.666903
0.670716
0.677123
0.685722
0.696421
0.709209
0.72401
0.739946
0.755994
0.777493
0.705909
0.702652
0.69973
0.695617
0.690166
0.683708
0.677112
0.671191
0.666733
0.664434
0.664989
0.668321
0.673532
0.680011
0.687019
0.69379
0.699468
0.70357
0.706421
0.709785
0.665959
0.666181
0.668252
0.669609
0.670012
0.669175
0.667217
0.664579
0.662085
0.660635
0.661267
0.663803
0.667126
0.670381
0.672736
0.673743
0.673478
0.672489
0.670856
0.670608
0.643457
0.644912
0.647509
0.649963
0.65242
0.654458
0.655636
0.655899
0.655576
0.655348
0.656046
0.657529
0.658783
0.659211
0.658558
0.656908
0.654763
0.652586
0.649979
0.648576
0.629051
0.631024
0.633848
0.636699
0.639578
0.642434
0.644927
0.646834
0.648111
0.648966
0.649777
0.650337
0.650168
0.649118
0.647296
0.644953
0.642426
0.639711
0.636924
0.635003
0.621646
0.623245
0.625458
0.628003
0.630689
0.633383
0.63601
0.638477
0.640556
0.642146
0.643124
0.643246
0.64249
0.641042
0.639194
0.63709
0.63479
0.63246
0.630368
0.628793
0.618154
0.619175
0.620455
0.622341
0.624512
0.626714
0.628954
0.631306
0.633612
0.635566
0.636712
0.63684
0.63615
0.635013
0.633675
0.632157
0.630487
0.62893
0.627825
0.626808
0.615413
0.616081
0.616723
0.618045
0.619686
0.621411
0.623221
0.625223
0.627393
0.629477
0.63087
0.631311
0.631094
0.630559
0.629847
0.628953
0.62794
0.62704
0.626606
0.625927
0.612058
0.612502
0.612908
0.613926
0.615223
0.616653
0.618215
0.619974
0.621952
0.624062
0.62575
0.626693
0.627084
0.627127
0.626924
0.626516
0.625982
0.625484
0.625313
0.624846
0.607895
0.60819
0.608558
0.60945
0.610592
0.61191
0.613411
0.615111
0.61705
0.619254
0.62133
0.622833
0.623763
0.624273
0.624459
0.624402
0.624167
0.623882
0.623771
0.623444
0.603016
0.603216
0.603594
0.604445
0.605576
0.606937
0.608537
0.610382
0.612502
0.614957
0.617469
0.619516
0.620916
0.621787
0.622256
0.622452
0.622412
0.622285
0.622201
0.621959
0.597655
0.597798
0.59818
0.599017
0.600202
0.601692
0.603483
0.605586
0.608039
0.610926
0.614007
0.616599
0.618436
0.619641
0.620369
0.620749
0.620927
0.620955
0.620906
0.62071
0.591844
0.591953
0.592338
0.593176
0.594433
0.596078
0.598109
0.600553
0.60349
0.606983
0.610742
0.613933
0.616238
0.617812
0.618851
0.61951
0.619914
0.620082
0.620076
0.6199
0.585564
0.585624
0.586019
0.586907
0.588297
0.590151
0.592478
0.595338
0.59885
0.603099
0.607639
0.611538
0.614395
0.616435
0.617879
0.618862
0.619518
0.619842
0.619879
0.61971
0.578768
0.578801
0.579234
0.580158
0.58169
0.58375
0.586374
0.589697
0.593874
0.599012
0.604593
0.609351
0.612913
0.615548
0.617495
0.618888
0.619824
0.620313
0.6204
0.620227
0.57129
0.571247
0.571685
0.572722
0.574472
0.576805
0.57982
0.583711
0.588699
0.594866
0.601593
0.60743
0.611871
0.61525
0.617795
0.619633
0.62089
0.621558
0.621697
0.621518
0.562868
0.562876
0.563308
0.564426
0.566446
0.56913
0.572645
0.577219
0.583128
0.59058
0.598692
0.605823
0.611358
0.615579
0.618803
0.621199
0.622822
0.623666
0.623859
0.623665
0.55327
0.553283
0.553754
0.555042
0.557349
0.560458
0.5646
0.570037
0.57709
0.586013
0.595877
0.604522
0.611337
0.616603
0.620635
0.623622
0.625658
0.626701
0.626947
0.626732
0.542139
0.542105
0.542679
0.544187
0.546869
0.550581
0.555557
0.562095
0.570593
0.581345
0.593214
0.603734
0.611989
0.618394
0.623308
0.627007
0.62951
0.630741
0.631031
0.630789
0.528956
0.528888
0.52958
0.531455
0.534682
0.539167
0.54522
0.55318
0.563502
0.576532
0.590765
0.603332
0.613201
0.620947
0.626921
0.631408
0.634418
0.635849
0.636163
0.635889
0.51328
0.51317
0.513957
0.516206
0.5202
0.525791
0.533306
0.543162
0.555831
0.571587
0.588644
0.603514
0.615253
0.624403
0.631491
0.636848
0.640378
0.64198
0.642303
0.641998
0.494187
0.494104
0.495129
0.497926
0.502929
0.510009
0.519506
0.53186
0.547512
0.566554
0.586778
0.604292
0.617988
0.628724
0.637098
0.643375
0.647414
0.649162
0.649448
0.649113
0.470718
0.470571
0.47191
0.475546
0.481991
0.491171
0.503412
0.519107
0.538496
0.561489
0.585322
0.605684
0.621535
0.633948
0.643615
0.650857
0.655362
0.657202
0.657406
0.657053
0.440395
0.440431
0.44257
0.447682
0.456543
0.468973
0.485107
0.505128
0.529025
0.556536
0.584412
0.607859
0.625977
0.640084
0.651107
0.659218
0.664039
0.665887
0.66597
0.665612
0.400507
0.400754
0.404344
0.412458
0.425382
0.442813
0.464327
0.489816
0.519094
0.551783
0.584073
0.610727
0.631135
0.647024
0.659327
0.668191
0.673161
0.674877
0.674818
0.674478
0.347404
0.347925
0.355131
0.368494
0.387991
0.412743
0.441363
0.47359
0.509191
0.547639
0.584493
0.614366
0.637087
0.654664
0.668197
0.677551
0.682256
0.683515
0.683337
0.68306
0.278111
0.2808
0.296245
0.318307
0.346897
0.380572
0.417396
0.45714
0.499628
0.544317
0.586236
0.619793
0.645199
0.664803
0.679538
0.689195
0.693473
0.694078
0.693962
0.69374
0.199424
0.209311
0.235043
0.26673
0.30553
0.348485
0.393646
0.441101
0.490795
0.542177
0.589639
0.627348
0.655637
0.677182
0.693103
0.702661
0.706237
0.706312
0.706348
0.706195
0.129191
0.143722
0.176346
0.217264
0.265836
0.317738
0.370968
0.426134
0.483051
0.541002
0.593767
0.635273
0.666228
0.689479
0.706129
0.715229
0.71815
0.717983
0.718117
0.718023
0.0753055
0.0893927
0.126502
0.173453
0.229558
0.289097
0.34981
0.412318
0.476112
0.540327
0.598319
0.643458
0.676726
0.701338
0.718668
0.727917
0.730093
0.730156
0.730382
0.730327
0.0309218
0.0441405
0.0852614
0.136239
0.197923
0.263533
0.330773
0.399782
0.469848
0.540052
0.603061
0.651685
0.687131
0.713304
0.731233
0.740633
0.743123
0.743492
0.743598
0.743651
-0.00640776
0.00661891
0.0504269
0.104484
0.170569
0.241029
0.313738
0.38842
0.464202
0.539996
0.607724
0.659787
0.697622
0.725265
0.744318
0.754199
0.75708
0.757583
0.757575
0.757666
-0.03909
-0.0257996
0.0201774
0.0768813
0.146613
0.221108
0.298531
0.378177
0.459106
0.5401
0.612299
0.667641
0.70791
0.737253
0.75757
0.767681
0.770801
0.771186
0.771194
0.771262
-0.0677591
-0.0546481
-0.00687402
0.0522483
0.12519
0.2032
0.284701
0.368721
0.45432
0.540087
0.616665
0.675407
0.717844
0.748498
0.769812
0.780357
0.783608
0.784044
0.784069
0.784109
-0.0938974
-0.0807766
-0.031642
0.0297939
0.105577
0.186696
0.271822
0.359726
0.449558
0.539928
0.621
0.682793
0.727023
0.758997
0.780824
0.791724
0.795317
0.795792
0.79581
0.795833
-0.117862
-0.104727
-0.0547129
0.00891124
0.0872321
0.171164
0.259507
0.350891
0.444736
0.539634
0.624861
0.689532
0.735679
0.768574
0.790666
0.802116
0.805812
0.806366
0.806361
0.806367
-0.140402
-0.12699
-0.0763558
-0.0107435
0.0697827
0.15623
0.247486
0.34212
0.439729
0.538705
0.627788
0.695554
0.743524
0.777481
0.799741
0.811348
0.815162
0.815755
0.815734
0.815724
-0.161682
-0.147882
-0.0967913
-0.0294669
0.0529437
0.141691
0.235621
0.333206
0.434115
0.536754
0.629949
0.701035
0.750996
0.785744
0.808094
0.819794
0.823433
0.824063
0.824006
0.823979
-0.181782
-0.167931
-0.116182
-0.0473948
0.0366192
0.127403
0.2237
0.323881
0.427732
0.533968
0.631473
0.705944
0.758049
0.793887
0.816132
0.827215
0.830749
0.831315
0.831259
0.831217
-0.200941
-0.187022
-0.134706
-0.0646997
0.0206709
0.113236
0.211603
0.314073
0.420654
0.530473
0.632209
0.710333
0.765143
0.801959
0.823822
0.834301
0.837287
0.837742
0.837645
0.83759
-0.219581
-0.205318
-0.152514
-0.081468
0.00506432
0.0991429
0.199281
0.303827
0.413026
0.526238
0.632038
0.714128
0.772137
0.810568
0.832004
0.84111
0.843162
0.843243
0.843159
0.843184
-0.23776
-0.222875
-0.16972
-0.0977913
-0.0102727
0.0851032
0.18681
0.293277
0.40489
0.521157
0.630923
0.717359
0.779127
0.819742
0.841048
0.848439
0.848424
0.848087
0.847716
0.847684
-0.255544
-0.239948
-0.186423
-0.113679
-0.0252963
0.0711984
0.174273
0.282463
0.396238
0.515245
0.628804
0.719817
0.785903
0.829865
0.852172
0.857123
0.854911
0.853478
0.853503
0.854417
-0.272718
-0.25655
-0.202644
-0.129137
-0.0399912
0.0574731
0.161738
0.271425
0.387083
0.508513
0.625549
0.721319
0.792425
0.840745
0.865589
0.869662
0.864338
0.857376
0.853051
0.852636
-0.289328
-0.27273
-0.218376
-0.144127
-0.0542908
0.0440032
0.14925
0.260175
0.377455
0.501019
0.62113
0.721526
0.798005
0.852213
0.88168
0.886707
0.88068
0.871124
0.872138
0.876318
-0.305285
-0.28835
-0.233549
-0.158619
-0.0681772
0.0308076
0.136844
0.248779
0.367437
0.492859
0.615555
0.720194
0.802393
0.863314
0.899399
0.908638
0.900523
0.871384
0.835465
0.804672
-0.320605
-0.303446
-0.248192
-0.172674
-0.0817392
0.0177721
0.124381
0.237076
0.356842
0.483819
0.608607
0.716855
0.804375
0.873232
0.918552
0.934719
0.939487
0.910594
0.928304
0.991794
-0.335209
-0.317968
-0.262363
-0.186441
-0.095186
0.00464323
0.111582
0.224755
0.345257
0.473336
0.599701
0.710708
0.803027
0.878933
0.93076
0.95223
0.947734
0.916086
0.870216
0.888788
-0.349109
-0.331949
-0.276039
-0.19987
-0.108435
-0.00847104
0.0985797
0.211948
0.33279
0.46144
0.588727
0.701297
0.795894
0.87581
0.929651
0.952202
0.927125
0.864969
0.797721
0.784305
-0.362268
-0.345315
-0.289196
-0.212968
-0.121501
-0.0215815
0.0853822
0.198679
0.319454
0.448093
0.575536
0.688283
0.782577
0.859702
0.908693
0.905403
0.86277
0.779008
0.701155
0.673779
-0.374746
-0.358128
-0.301879
-0.225751
-0.134388
-0.0346782
0.072005
0.184953
0.305256
0.433292
0.559997
0.671278
0.761214
0.827408
0.85175
0.831515
0.763123
0.656621
0.566161
0.540669
-0.386957
-0.370707
-0.31443
-0.238568
-0.147442
-0.0480744
0.0581714
0.17054
0.290013
0.416861
0.541858
0.649709
0.732651
0.782193
0.773535
0.732592
0.61224
0.484834
0.374134
0.343917
-0.399749
-0.383904
-0.327562
-0.252001
-0.161176
-0.0622046
0.0435052
0.155112
0.273468
0.398599
0.520849
0.623087
0.698726
0.722155
0.68685
0.590945
0.429194
0.272238
0.139399
0.109032
-0.413602
-0.397962
-0.341498
-0.266269
-0.17578
-0.0772137
0.0279041
0.138628
0.255632
0.378536
0.496908
0.592292
0.65702
0.650679
0.596896
0.44025
0.236465
0.0206989
-0.161612
-0.212653
-0.428659
-0.413143
-0.356391
-0.281389
-0.191201
-0.0930447
0.0114178
0.121127
0.23656
0.356746
0.470002
0.558761
0.608133
0.569807
0.479301
0.287243
0.0539331
-0.236636
-0.557914
-0.708618
-0.444962
-0.429348
-0.372255
-0.297468
-0.207549
-0.109806
-0.00605252
0.102541
0.216211
0.333273
0.440357
0.522271
0.553011
0.484336
0.343454
0.135866
-0.0987099
-0.44309
-1.02731
-1.59761
-0.462631
-0.446889
-0.389286
-0.31456
-0.224809
-0.12746
-0.0244486
0.0829522
0.194733
0.308456
0.409118
0.482845
0.493735
0.409
0.213363
-0.0212212
-0.224251
-0.458516
-1.00845
-2.50423
-0.481654
-0.465589
-0.407451
-0.332817
-0.2432
-0.14625
-0.0440374
0.0620767
0.171794
0.28197
0.376192
0.439962
0.42917
0.349477
0.119515
-0.118534
-0.267152
-0.305074
-0.29417
-0.676876
-0.501996
-0.485895
-0.427081
-0.35251
-0.263053
-0.166619
-0.0654044
0.0391556
0.146452
0.252474
0.340629
0.393548
0.366112
0.297752
0.0694427
-0.133029
-0.244558
-0.253411
-0.201028
-0.240983
-0.523515
-0.507323
-0.447987
-0.373737
-0.284539
-0.188767
-0.0887615
0.0139888
0.118475
0.219775
0.30264
0.345016
0.31069
0.242212
0.036366
-0.124131
-0.207118
-0.215663
-0.263396
-0.267402
-0.546195
-0.530167
-0.470303
-0.396462
-0.30756
-0.212656
-0.114126
-0.0134824
0.0878454
0.184262
0.261975
0.294197
0.262483
0.179783
0.00778942
-0.115291
-0.186314
-0.1633
-0.183742
-0.185433
-0.569728
-0.553408
-0.493666
-0.420623
-0.332082
-0.238294
-0.141466
-0.0431566
0.0547065
0.146323
0.218994
0.239959
0.22044
0.111492
-0.02806
-0.110964
-0.150782
-0.198647
-0.172897
-0.181545
-0.594099
-0.577338
-0.518164
-0.445989
-0.357759
-0.265463
-0.170581
-0.0748319
0.0192102
0.106263
0.174561
0.184777
0.176764
0.0501136
-0.0652699
-0.12931
-0.107652
-0.167206
-0.147713
-0.152788
-0.618064
-0.601158
-0.543473
-0.472208
-0.384417
-0.294013
-0.201209
-0.108158
-0.0184142
0.0644981
0.129902
0.132287
0.124184
-0.00134729
-0.0928022
-0.144248
-0.131389
-0.147465
-0.152626
-0.150961
-0.641456
-0.62471
-0.569092
-0.498595
-0.411582
-0.323514
-0.232956
-0.142789
-0.0576576
0.0213939
0.0853339
0.0839018
0.0666442
-0.0440301
-0.106532
-0.138946
-0.176456
-0.1485
-0.154003
-0.148469
-0.663095
-0.647066
-0.593511
-0.524259
-0.439123
-0.353512
-0.265298
-0.178124
-0.0976513
-0.0227308
0.0407234
0.0399444
0.0107226
-0.0785971
-0.119857
-0.114775
-0.186486
-0.128949
-0.14399
-0.136086
-0.682481
-0.667575
-0.616171
-0.548291
-0.466352
-0.383162
-0.297615
-0.21368
-0.137496
-0.0673843
-0.00425954
-0.000703131
-0.0347984
-0.0973497
-0.126522
-0.0877551
-0.134059
-0.114997
-0.120911
-0.117484
-0.697885
-0.684584
-0.635852
-0.570236
-0.492276
-0.411617
-0.329075
-0.248579
-0.176207
-0.111813
-0.0495746
-0.0387068
-0.0664807
-0.0977547
-0.113997
-0.0921028
-0.105701
-0.10965
-0.110905
-0.110918
-0.708607
-0.697441
-0.652158
-0.589262
-0.515253
-0.437849
-0.358836
-0.282121
-0.213121
-0.1548
-0.0939407
-0.0735962
-0.0897796
-0.0945003
-0.101448
-0.11107
-0.105015
-0.110308
-0.109768
-0.110746
-0.713185
-0.704375
-0.663277
-0.604042
-0.534263
-0.460785
-0.385774
-0.313091
-0.247367
-0.194718
-0.135206
-0.107215
-0.117573
-0.0959897
-0.101424
-0.123351
-0.112974
-0.119639
-0.115568
-0.117281
-0.711752
-0.704984
-0.668342
-0.613226
-0.547929
-0.479108
-0.408771
-0.340447
-0.278294
-0.229643
-0.171936
-0.139167
-0.140602
-0.114044
-0.121107
-0.16408
-0.133485
-0.138683
-0.131555
-0.133129
-0.70332
-0.696091
-0.664473
-0.615173
-0.555508
-0.491881
-0.426526
-0.362571
-0.304071
-0.258142
-0.202994
-0.167851
-0.154147
-0.125087
-0.0983363
-0.092101
-0.0848462
-0.0921443
-0.0926022
-0.0948835
-0.681941
-0.673674
-0.650517
-0.608931
-0.555769
-0.498106
-0.438293
-0.378409
-0.322674
-0.278144
-0.225693
-0.183666
-0.160844
-0.148347
-0.137893
-0.16367
-0.171984
-0.169293
-0.168077
-0.16384
-0.638985
-0.631368
-0.623383
-0.594031
-0.549606
-0.498241
-0.443573
-0.386907
-0.332423
-0.287374
-0.236275
-0.182793
-0.196165
-0.259971
-0.410871
-0.549345
-0.577454
-0.563738
-0.516632
-0.471686
-0.599398
-0.596788
-0.595112
-0.572992
-0.537916
-0.49349
-0.443002
-0.388317
-0.332119
-0.282501
-0.232303
-0.159037
-0.163352
-0.231086
-0.344189
-0.393167
-0.364488
-0.308603
-0.266224
-0.245904
-0.575986
-0.577834
-0.567549
-0.555321
-0.527256
-0.486815
-0.43836
-0.384505
-0.323926
-0.263669
-0.206797
-0.101748
0.0195222
0.189328
0.345366
0.506123
0.631546
0.70542
0.747829
0.782924
-0.545876
-0.545261
-0.543002
-0.542116
-0.518656
-0.481879
-0.433785
-0.377589
-0.31214
-0.238114
-0.163569
-0.03716
0.154338
0.445753
0.726976
0.966368
1.14262
1.24257
1.28763
1.30217
-0.535527
-0.533713
-0.53744
-0.528899
-0.512524
-0.479106
-0.431315
-0.372568
-0.30227
-0.21679
-0.124697
-0.00208986
0.217648
0.528697
0.833865
1.09056
1.28187
1.39083
1.43825
1.45482
-0.519948
-0.518503
-0.521912
-0.513778
-0.509757
-0.477076
-0.428336
-0.367717
-0.29521
-0.203542
-0.101713
0.00478626
0.221675
0.50018
0.774861
1.0112
1.19604
1.30632
1.3551
1.36864
-0.508245
-0.508136
-0.507364
-0.506691
-0.505451
-0.477596
-0.430011
-0.3681
-0.29348
-0.200454
-0.0984503
-0.0123199
0.174849
0.413054
0.640932
0.836338
0.994298
1.09098
1.13316
1.14365
-0.503667
-0.504437
-0.501808
-0.505589
-0.498859
-0.47603
-0.431881
-0.371962
-0.298721
-0.208907
-0.110903
-0.0421312
0.106868
0.307231
0.490535
0.642855
0.766131
0.842927
0.875719
0.883495
-0.500232
-0.50099
-0.500138
-0.504351
-0.498899
-0.479552
-0.435415
-0.377337
-0.307593
-0.224373
-0.13221
-0.0745149
0.0367192
0.201964
0.347372
0.463047
0.5551
0.61384
0.638712
0.644974
-0.491013
-0.491157
-0.48912
-0.49009
-0.484275
-0.481609
-0.444589
-0.387321
-0.318921
-0.242251
-0.156047
-0.104578
-0.025441
0.108575
0.222605
0.309693
0.37727
0.421262
0.438501
0.442061
-0.490679
-0.488494
-0.483976
-0.476667
-0.473037
-0.478794
-0.449429
-0.396143
-0.328893
-0.258419
-0.178345
-0.130763
-0.0763377
0.0313293
0.119619
0.184387
0.234168
0.266697
0.278721
0.28261
-0.516202
-0.512459
-0.508518
-0.505686
-0.507031
-0.502895
-0.459865
-0.401701
-0.33325
-0.26895
-0.195947
-0.151665
-0.115163
-0.0290193
0.0384819
0.0867977
0.124835
0.150198
0.159457
0.161852
-0.56586
-0.565962
-0.570487
-0.578342
-0.57826
-0.555266
-0.483147
-0.40753
-0.333353
-0.272868
-0.207397
-0.166571
-0.140948
-0.072437
-0.0214707
0.0149112
0.0438954
0.0617031
0.0695638
0.071762
-0.600778
-0.606995
-0.622986
-0.63331
-0.635903
-0.588957
-0.496073
-0.40742
-0.327389
-0.269206
-0.211767
-0.174966
-0.153662
-0.100649
-0.0628076
-0.0354668
-0.0148941
-0.00309938
0.00181794
0.00268452
-0.546944
-0.551069
-0.569221
-0.581866
-0.583701
-0.542859
-0.463901
-0.384268
-0.31036
-0.254925
-0.207597
-0.175964
-0.155456
-0.11651
-0.0891273
-0.0699959
-0.0566649
-0.0496215
-0.0473146
-0.0476837
-0.393419
-0.400909
-0.411875
-0.422162
-0.42434
-0.40455
-0.366001
-0.321426
-0.271573
-0.22836
-0.193645
-0.168976
-0.150016
-0.122664
-0.1041
-0.0918868
-0.0842998
-0.0811887
-0.0809834
-0.081982
-0.223815
-0.227539
-0.233923
-0.242743
-0.250043
-0.249943
-0.243492
-0.231818
-0.211324
-0.18975
-0.169775
-0.153851
-0.139479
-0.121276
-0.109866
-0.103491
-0.100512
-0.100236
-0.101362
-0.102651
-0.083503
-0.0855933
-0.0902399
-0.098947
-0.110994
-0.123676
-0.136087
-0.145519
-0.146938
-0.145093
-0.138365
-0.131672
-0.124662
-0.113704
-0.108286
-0.106518
-0.106778
-0.108402
-0.110162
-0.11152
0.0105333
0.00881818
0.00534462
-0.00328417
-0.0186249
-0.0384071
-0.0592664
-0.0782639
-0.0914866
-0.102218
-0.104714
-0.105682
-0.105902
-0.100829
-0.100911
-0.10275
-0.105132
-0.107688
-0.109575
-0.110863
0.0570015
0.0564715
0.054346
0.0468468
0.0314521
0.00984538
-0.0134604
-0.0352995
-0.0522031
-0.0674719
-0.0741335
-0.0797501
-0.0851294
-0.0854705
-0.0895477
-0.0937092
-0.0973368
-0.100258
-0.102057
-0.103221
0.0764148
0.0757882
0.0739757
0.0675551
0.0539659
0.0340293
0.0115039
-0.0104503
-0.0278788
-0.0436479
-0.0505876
-0.0570873
-0.0647798
-0.0698191
-0.0763348
-0.0817318
-0.085845
-0.0887817
-0.0903323
-0.0913699
0.0777762
0.0773317
0.0759657
0.0709745
0.0601732
0.0438228
0.0242456
0.00384545
-0.0129289
-0.0283784
-0.034916
-0.0402012
-0.0476933
-0.0549332
-0.0625238
-0.0683787
-0.0726658
-0.0755463
-0.0768007
-0.0776801
0.0704437
0.0701587
0.0691559
0.0655079
0.0574195
0.0449662
0.0293958
0.0119625
-0.00307055
-0.0179793
-0.0245404
-0.02882
-0.0352799
-0.0423904
-0.049753
-0.0553755
-0.0595056
-0.0622537
-0.0632644
-0.0639781
0.0593485
0.0592013
0.058485
0.0559562
0.0501218
0.0410484
0.0294328
0.0157694
0.00366982
-0.00997602
-0.0167431
-0.0208305
-0.0263932
-0.0325684
-0.0389984
-0.0438507
-0.0474444
-0.0498473
-0.0506117
-0.0511654
0.0472403
0.0471823
0.046687
0.0450376
0.040986
0.0345858
0.0262356
0.0161038
0.00741907
-0.00383826
-0.0100491
-0.0142983
-0.0193534
-0.0244916
-0.0298101
-0.0338119
-0.0367866
-0.0388084
-0.0394292
-0.0398442
0.0353439
0.0353578
0.0350099
0.034014
0.0313449
0.0270381
0.0212325
0.0138904
0.0081513
-0.000180904
-0.00455875
-0.0083031
-0.0129134
-0.0173121
-0.0217533
-0.0250066
-0.0273709
-0.0289613
-0.0294221
-0.0297227
0.0242203
0.0242538
0.0240531
0.0234954
0.0218483
0.0191624
0.0153815
0.0102773
0.00679692
0.00104524
-0.001234
-0.00367487
-0.00726747
-0.0107672
-0.0145174
-0.0171665
-0.0189856
-0.0201867
-0.0205835
-0.0208123
0.0138186
0.0138424
0.0137775
0.0136063
0.0127546
0.0113357
0.00931743
0.00613543
0.00441657
0.000805954
-0.000145164
-0.00106715
-0.00325815
-0.00538734
-0.00837377
-0.0103132
-0.0116275
-0.0124156
-0.0125324
-0.0126618
0.00433259
0.00435974
0.00436618
0.00446289
0.00429755
0.00389428
0.00335803
0.00193236
0.00166267
5.46365e-05
9.65871e-05
0.000293269
-0.000737175
-0.00145465
-0.00352717
-0.0046497
-0.0057025
-0.00620918
-0.0059424
-0.00589859
-1.07658
-0.243102
0.026631
0.300271
0.478166
0.629681
0.749324
0.87183
1.00905
1.09513
-0.103139
0.300281
0.313612
0.499815
0.619574
0.726984
0.818835
0.901181
0.927622
0.886798
0.267477
0.478819
0.51081
0.645838
0.728637
0.8059
0.869715
0.917769
0.919347
0.934114
0.492662
0.632864
0.666826
0.765998
0.822022
0.877636
0.921493
0.953342
0.962163
0.986093
0.667184
0.766372
0.795952
0.861387
0.905572
0.945269
0.976824
1.00088
1.01049
1.04225
0.808101
0.875612
0.905636
0.947432
0.982988
1.01253
1.03647
1.05717
1.07112
1.09956
0.925735
0.975577
1.00086
1.02833
1.05554
1.07903
1.0988
1.11802
1.1328
1.15942
1.02857
1.0652
1.08606
1.10645
1.12699
1.14621
1.16354
1.18165
1.19649
1.22019
1.12199
1.15092
1.16712
1.18227
1.19825
1.21424
1.22976
1.24665
1.26027
1.2826
1.20996
1.23033
1.24511
1.25822
1.27174
1.28548
1.29897
1.31356
1.3251
1.34474
1.29525
1.311
1.3248
1.33659
1.34849
1.36012
1.37125
1.38291
1.39059
1.40738
1.38042
1.39296
1.40666
1.4184
1.42903
1.43882
1.44765
1.4559
1.45946
1.47068
1.46915
1.47998
1.49345
1.50297
1.51053
1.51783
1.525
1.53145
1.53257
1.53991
1.56755
1.57216
1.58035
1.58507
1.58847
1.59294
1.59893
1.60657
1.61049
1.62036
1.68082
1.6677
1.66042
1.65471
1.65199
1.65332
1.65962
1.67199
1.68683
1.7165
1.80278
1.74673
1.71571
1.69852
1.6903
1.69022
1.6991
1.71874
1.75049
1.81978
)
;

boundaryField
{
    wall-4
    {
        type            zeroGradient;
    }
    pressure-outlet-7
    {
        type            fixedValue;
        value           uniform 0;
    }
    velocity-inlet-6
    {
        type            zeroGradient;
    }
    velocity-inlet-5
    {
        type            zeroGradient;
    }
    frontAndBackPlanes
    {
        type            empty;
    }
}


// ************************************************************************* //
