/*--------------------------------*- C++ -*----------------------------------*\
  =========                 |
  \\      /  F ield         | OpenFOAM: The Open Source CFD Toolbox
   \\    /   O peration     | Website:  https://openfoam.org
    \\  /    A nd           | Version:  10
     \\/     M anipulation  |
\*---------------------------------------------------------------------------*/
FoamFile
{
    format      ascii;
    class       surfaceScalarField;
    location    "74";
    object      phi;
}
// * * * * * * * * * * * * * * * * * * * * * * * * * * * * * * * * * * * * * //

dimensions      [0 3 -1 0 0 0 0];

internalField   nonuniform List<scalar> 
4262
(
0.107131
0.470857
0.0955652
0.705152
0.0693717
0.858497
0.0473407
1.02079
0.0309429
1.21491
0.0197247
1.44944
0.0122837
1.7333
0.00701819
2.0763
0.0030508
2.48921
-0.000777216
2.98612
-0.00452333
2.98604
-0.00816723
2.48889
-0.013098
2.07597
-0.0202478
1.73301
-0.0311659
1.44914
-0.0472026
1.21455
-0.0689304
1.02049
-0.0951943
0.858567
-0.107066
0.705457
0.470923
0.112856
0.358001
0.135242
0.682765
0.120339
0.873399
0.0978074
1.04333
0.0745716
1.23815
0.0528497
1.47116
0.03449
1.75166
0.0203544
2.09044
0.00911702
2.50045
-0.000864845
2.9961
-0.0109635
2.99614
-0.0224025
2.50033
-0.0365379
2.0901
-0.0547926
1.75127
-0.0766029
1.47095
-0.100358
1.23831
-0.123556
1.04369
-0.137048
0.872059
-0.113579
0.681989
0.357343
0.0920354
0.265966
0.124951
0.649849
0.121067
0.877284
0.104734
1.05966
0.0860388
1.25685
0.0668514
1.49035
0.0478082
1.77071
0.0296176
2.10863
0.0129223
2.51714
-0.00298033
3.012
-0.0184766
3.01163
-0.0342689
2.51612
-0.0517707
2.1076
-0.070263
1.76976
-0.0886272
1.48931
-0.105803
1.25548
-0.119852
1.05774
-0.125266
0.877473
-0.0923746
0.649097
0.264969
0.0639348
0.202031
0.104704
0.60908
0.106456
0.875532
0.0950853
1.07103
0.0811753
1.27076
0.0664504
1.50507
0.0503507
1.78681
0.0332712
2.12571
0.0156746
2.53474
-0.0029761
3.03066
-0.0217838
3.03044
-0.0393391
2.53367
-0.0557973
2.12406
-0.070912
1.78487
-0.0846427
1.50304
-0.0983218
1.26916
-0.110089
1.06951
-0.107077
0.87446
-0.0649233
0.606944
0.200045
0.0374566
0.164575
0.0806537
0.565883
0.0908667
0.865319
0.0836113
1.07829
0.0709245
1.28344
0.058975
1.51702
0.0458303
1.79995
0.0306946
2.14084
0.0135642
2.55187
-0.00559418
3.04981
-0.0240419
3.04889
-0.0397035
2.54934
-0.0535619
2.13792
-0.0657163
1.79703
-0.076998
1.51432
-0.0889141
1.28108
-0.0952374
1.07583
-0.0833606
0.862583
-0.0384518
0.562035
0.161594
0.0194295
0.145145
0.0570832
0.528229
0.0724108
0.849992
0.0702727
1.08042
0.0614801
1.29223
0.0506579
1.52784
0.0395817
1.81103
0.0270613
2.15336
0.0120284
2.5669
-0.00577211
3.06761
-0.0234333
3.06655
-0.0380234
2.56393
-0.049516
2.14941
-0.0593138
1.80683
-0.0690698
1.52408
-0.0766699
1.28868
-0.0774298
1.07659
-0.0601935
0.845347
-0.0204415
0.522283
0.141152
0.0105779
0.134567
0.0422025
0.496605
0.0582283
0.833966
0.0584107
1.08024
0.0521139
1.29853
0.0425541
1.5374
0.0319468
1.82164
0.0203374
2.16497
0.00688386
2.58036
-0.00901755
3.08352
-0.0240786
3.08161
-0.0356205
2.57547
-0.045353
2.15915
-0.0542731
1.81575
-0.0621913
1.532
-0.0666902
1.29318
-0.064644
1.07454
-0.0461234
0.826827
-0.0117736
0.487933
0.129378
0.00651504
0.128052
0.0327563
0.470363
0.0488886
0.817834
0.050317
1.07881
0.0452094
1.30364
0.0368627
1.54575
0.0272945
1.8312
0.0165517
2.17572
0.0045245
2.59238
-0.00966984
3.09771
-0.0234601
3.0954
-0.034468
2.58648
-0.0435677
2.16825
-0.0510839
1.82326
-0.0574739
1.53839
-0.0605781
1.29628
-0.0568295
1.07079
-0.0375089
0.807506
-0.00795248
0.458377
0.121426
0.00465713
0.123395
0.0263671
0.448653
0.0420411
0.80216
0.0440326
1.07682
0.0392453
1.30843
0.0314051
1.55359
0.0219938
1.84061
0.0110167
2.18669
-0.000975202
2.60438
-0.0138033
3.11054
-0.0252874
3.10689
-0.034766
2.59595
-0.0429987
2.17648
-0.0499296
1.83019
-0.0552755
1.54373
-0.0573778
1.29838
-0.0521679
1.06558
-0.0322959
0.787634
-0.00645461
0.432536
0.114971
0.00366078
0.119734
0.0214069
0.430907
0.0363258
0.787241
0.0388828
1.07426
0.0343934
1.31292
0.0269435
1.56104
0.0181529
1.84941
0.00829629
2.19655
-0.00275243
2.61542
-0.0153356
3.12312
-0.0273452
3.11889
-0.0368063
2.60542
-0.0440468
2.18372
-0.0497525
1.8359
-0.0542957
1.54828
-0.0554135
1.2995
-0.0488906
1.05906
-0.0286654
0.767409
-0.00587127
0.409742
0.1091
0.00298639
0.116748
0.0173126
0.416581
0.0310985
0.773455
0.0339734
1.07139
0.029717
1.31717
0.0224403
1.56832
0.013629
1.85822
0.00312823
2.20705
-0.00890563
2.62746
-0.0210645
3.13528
-0.0313461
3.12918
-0.0392996
2.61337
-0.0458528
2.19027
-0.0511044
1.84115
-0.0547292
1.5519
-0.0546364
1.29941
-0.0465524
1.05098
-0.0260827
0.746939
-0.00565676
0.389316
0.103443
0.00225415
0.114494
0.0134354
0.4054
0.0256449
0.761246
0.0284041
1.06863
0.0241641
1.32141
0.0168601
1.57562
0.00817757
1.8669
-0.00141792
2.21665
-0.0117336
2.63777
-0.0235245
3.14707
-0.0345979
3.14025
-0.0427327
2.6215
-0.0483508
2.19589
-0.0525474
1.84535
-0.0551935
1.55455
-0.0544416
1.29866
-0.044928
1.04146
-0.0242535
0.726265
-0.00553782
0.3706
0.0979055
0.00160112
0.112893
0.0102155
0.396785
0.0208282
0.750633
0.0233319
1.06613
0.0190763
1.32567
0.0118819
1.58282
0.00317757
1.8756
-0.00704947
2.22687
-0.0189641
2.64969
-0.0314285
3.15954
-0.0411551
3.14998
-0.047618
2.62797
-0.0522914
2.20056
-0.055675
1.84873
-0.0571874
1.55606
-0.0553799
1.29685
-0.0443836
1.03047
-0.0232271
0.705108
-0.00553195
0.352905
0.0923735
0.000727102
0.112166
0.00671679
0.390796
0.0154546
0.741895
0.0172541
1.06433
0.0125643
1.33036
0.0048453
1.59053
-0.00442434
1.88487
-0.0146248
2.23707
-0.0252506
2.66031
-0.0363695
3.17065
-0.0460694
3.15968
-0.0524554
2.63435
-0.05628
2.20439
-0.05897
1.85142
-0.0595774
1.55667
-0.0565932
1.29387
-0.0441842
1.01806
-0.0225716
0.683496
-0.0055093
0.335842
0.0868642
2.68397e-06
0.112163
0.00367084
0.387128
0.0100595
0.735506
0.0108941
1.06349
0.0058208
1.33543
-0.00206502
1.59842
-0.0114537
1.89426
-0.0220249
2.24764
-0.033846
2.67214
-0.0463263
3.18313
-0.0553956
3.16875
-0.0602758
2.63923
-0.0630489
2.20716
-0.064569
1.85294
-0.0640723
1.55617
-0.0594689
1.28926
-0.0451646
1.00375
-0.0225994
0.66093
-0.00561682
0.31886
0.0812474
-0.000906344
0.113069
0.00026296
0.385958
0.00463466
0.731135
0.00431692
1.06381
-0.0016517
1.3414
-0.0106635
1.60743
-0.021207
1.90481
-0.0326862
2.25912
-0.0444716
2.68392
-0.0550482
3.19371
-0.0626828
3.17638
-0.0673526
2.6439
-0.0695906
2.2094
-0.0706464
1.854
-0.069318
1.55484
-0.0629884
1.28293
-0.0467384
0.987504
-0.0230646
0.637257
-0.00580119
0.301596
0.0754462
-0.00192184
0.114991
-0.0032207
0.387257
-0.00209945
0.730014
-0.00408359
1.06579
-0.0108879
1.3482
-0.0204621
1.61701
-0.0314921
1.91584
-0.0434239
2.27106
-0.0556394
2.69614
-0.0677549
3.20583
-0.0762232
3.18485
-0.0795422
2.64722
-0.0803801
2.21024
-0.0797945
1.85341
-0.0767221
1.55177
-0.0683826
1.27459
-0.0496008
0.968722
-0.0241652
0.611821
-0.00611666
0.283548
0.0693295
-0.00320808
0.118199
-0.006869
0.390918
-0.00896203
0.732107
-0.0128074
1.06964
-0.0209087
1.3563
-0.0319564
1.62805
-0.0445182
1.9284
-0.0579917
2.28453
-0.0716042
2.70975
-0.083147
3.21737
-0.0889115
3.19061
-0.0911203
2.64943
-0.0910332
2.21015
-0.0896625
1.85204
-0.0857061
1.54781
-0.0749258
1.26381
-0.0532091
0.947005
-0.0257049
0.584317
-0.0065222
0.264365
0.0628074
-0.00459238
0.122791
-0.0113317
0.397657
-0.0169969
0.737772
-0.0237803
1.07642
-0.0331645
1.36569
-0.0454469
1.64034
-0.059139
1.94209
-0.0735925
2.29898
-0.0874867
2.72364
-0.0988296
3.22871
-0.105499
3.19728
-0.107426
2.65136
-0.106677
2.2094
-0.103388
1.84875
-0.0969454
1.54137
-0.0834382
1.25031
-0.0582403
0.921807
-0.0278149
0.553892
-0.00701409
0.243564
0.0557933
-0.00606796
0.128859
-0.0162568
0.407846
-0.0259169
0.747432
-0.0357252
1.08623
-0.0474945
1.37746
-0.0619057
1.65475
-0.0776873
1.95787
-0.0941168
2.31541
-0.109854
2.73938
-0.1224
3.24126
-0.127506
3.20239
-0.126826
2.65068
-0.123371
2.20595
-0.118682
1.84406
-0.110843
1.53353
-0.093635
1.2331
-0.0639817
0.892154
-0.0301828
0.520093
-0.00750898
0.220891
0.0482843
-0.00834034
0.1372
-0.0232018
0.422708
-0.0383276
0.762558
-0.0513928
1.0993
-0.0649807
1.39105
-0.0815262
1.67129
-0.0994193
1.97576
-0.117662
2.33365
-0.134116
2.75583
-0.145856
3.253
-0.149504
3.20604
-0.14877
2.64994
-0.145349
2.20252
-0.138838
1.83755
-0.127427
1.52212
-0.106093
1.21176
-0.0712298
0.857291
-0.0329597
0.481823
-0.0080335
0.195964
0.0402508
-0.0108144
0.148014
-0.0304572
0.44235
-0.0515554
0.783656
-0.0698494
1.11759
-0.0873469
1.40854
-0.107036
1.69098
-0.127798
1.99653
-0.148122
2.35398
-0.165466
2.77318
-0.176822
3.26435
-0.179819
3.20903
-0.175956
2.64608
-0.168825
2.19539
-0.160056
1.82878
-0.146366
1.50843
-0.119694
1.18509
-0.078368
0.815965
-0.0353427
0.438797
-0.00833924
0.168961
0.0319115
-0.0156333
0.163648
-0.0428803
0.469597
-0.0710211
0.811797
-0.0943598
1.14093
-0.115466
1.42965
-0.138784
1.7143
-0.162079
2.01982
-0.183764
2.37566
-0.201259
2.79067
-0.211728
3.27482
-0.211851
3.20916
-0.206359
2.64059
-0.1987
2.18774
-0.187678
1.81776
-0.16894
1.48969
-0.135836
1.15199
-0.0868256
0.766954
-0.0377097
0.389682
-0.00855042
0.139802
0.0233611
-0.0197351
0.183383
-0.0558331
0.505695
-0.0935171
0.849481
-0.124413
1.17182
-0.151751
1.45699
-0.180036
1.74258
-0.206641
2.04643
-0.229599
2.39862
-0.246266
2.80734
-0.25307
3.28163
-0.249509
3.20559
-0.241023
2.6321
-0.229535
2.17625
-0.215536
1.80376
-0.192996
1.46715
-0.151718
1.11071
-0.0932754
0.708511
-0.0385563
0.334962
-0.00819722
0.109443
0.0151639
-0.0332495
0.216632
-0.0830835
0.555529
-0.131682
0.898079
-0.169661
1.2098
-0.202365
1.48969
-0.234216
1.77444
-0.26129
2.0735
-0.282946
2.42028
-0.296505
2.8209
-0.29976
3.28488
-0.293136
3.19897
-0.281147
2.62011
-0.268093
2.16319
-0.25057
1.78624
-0.220023
1.43661
-0.168674
1.05936
-0.1
0.639838
-0.0390268
0.273989
-0.00775895
0.0781747
0.00740495
-0.0476155
0.264248
-0.122248
0.630162
-0.186772
0.962603
-0.232796
1.25583
-0.271442
1.52834
-0.304629
1.80762
-0.330039
2.09891
-0.348222
2.43846
-0.357363
2.83004
-0.354574
3.28209
-0.340845
3.18524
-0.324654
2.60392
-0.306589
2.14513
-0.283552
1.7632
-0.245806
1.39886
-0.181952
0.995507
-0.100489
0.558375
-0.036582
0.210082
-0.00728142
0.0488741
0.000123533
-0.0346444
0.298892
-0.0992164
0.694734
-0.15805
1.02144
-0.206987
1.30476
-0.252303
1.57365
-0.292842
1.84816
-0.33123
2.1373
-0.366934
2.47416
-0.395908
2.85901
-0.41493
3.30112
-0.421527
3.19184
-0.416977
2.59937
-0.405867
2.13402
-0.380634
1.73797
-0.322944
1.34117
-0.225933
0.898496
-0.114138
0.44658
-0.0403095
0.136254
-0.00841858
0.0169831
-0.00829505
-0.0126976
0.31159
-0.0485961
0.730632
-0.091777
1.06462
-0.132245
1.34523
-0.172325
1.61373
-0.208972
1.88481
-0.244104
2.17243
-0.275379
2.50544
-0.299624
2.88326
-0.313088
3.31458
-0.311665
3.19042
-0.301504
2.58921
-0.283954
2.11647
-0.252453
1.70647
-0.201797
1.29052
-0.12924
0.825939
-0.0584709
0.375811
-0.0218159
0.0995991
-0.00484183
9.06313e-06
-0.0131369
-0.000731424
0.312321
-0.0237866
0.753687
-0.0536748
1.09451
-0.0855757
1.37713
-0.119221
1.64738
-0.151751
1.91734
-0.181997
2.20268
-0.208094
2.53154
-0.227049
2.90221
-0.234384
3.32192
-0.227435
3.18347
-0.212516
2.57429
-0.192782
2.09673
-0.166233
1.67992
-0.12264
1.24692
-0.0671922
0.770491
-0.0271265
0.335745
-0.0117582
0.0842308
-0.00329635
-0.00845283
-0.0164332
0.00150886
0.310812
-0.0142445
0.769441
-0.0358549
1.11612
-0.0602651
1.40154
-0.086535
1.67365
-0.113599
1.9444
-0.1395
2.22858
-0.161681
2.55372
-0.176654
2.91719
-0.179733
3.325
-0.169602
3.17334
-0.153015
2.55771
-0.130969
2.07469
-0.0990155
1.64796
-0.0622928
1.2102
-0.0283027
0.736501
-0.0106415
0.318084
-0.00607351
0.0796628
-0.00242051
-0.0121058
-0.0188537
0.00542691
0.305385
-0.00202653
0.776894
-0.0208465
1.13494
-0.0429934
1.42369
-0.0660949
1.69675
-0.089081
1.96739
-0.110902
2.2504
-0.129116
2.57193
-0.140384
2.92845
-0.140451
3.32506
-0.1274
3.16029
-0.106263
2.53657
-0.0808107
2.04924
-0.0556074
1.62276
-0.0257184
1.18031
-0.00138522
0.712168
0.00312644
0.313572
0.000570986
0.0822183
-0.000618163
-0.0109167
-0.0194719
0.00510362
0.300282
-0.000927876
0.782926
-0.0165092
1.15052
-0.0345892
1.44177
-0.0538782
1.71604
-0.0735675
1.98708
-0.092316
2.26914
-0.108035
2.58765
-0.117295
2.93771
-0.114745
3.32251
-0.0995375
3.14508
-0.0789819
2.51601
-0.0542652
2.02452
-0.0238851
1.59238
0.00149745
1.15493
0.0144028
0.699262
0.0133769
0.314598
0.00615343
0.0894418
0.00123606
-0.00599932
-0.0182358
0.00549456
0.294787
0.0020566
0.786364
-0.0108052
1.16338
-0.0277516
1.45872
-0.0456596
1.73395
-0.0634188
2.00484
-0.0802521
2.28598
-0.0940739
2.60147
-0.101478
2.94512
-0.0979078
3.31894
-0.0826059
3.12978
-0.0593883
2.4928
-0.0323557
1.99749
-0.0104641
1.57049
0.00933995
1.13512
0.0207258
0.687877
0.0167411
0.318583
0.00838795
0.097795
0.00203698
0.000351648
-0.0161989
0.00282563
0.291961
-0.00018129
0.78937
-0.0114409
1.17464
-0.0258599
1.47314
-0.0416954
1.74978
-0.057883
2.02102
-0.0732311
2.30133
-0.0859943
2.61424
-0.0929205
2.95204
-0.0888987
3.31492
-0.0729345
3.11381
-0.0522916
2.47215
-0.0299573
1.97515
-0.00295353
1.54349
0.016005
1.11617
0.0221027
0.681779
0.017863
0.322822
0.00917846
0.106479
0.00245248
0.00707762
-0.0137464
0.00234568
0.289616
0.000233671
0.791482
-0.0101313
1.185
-0.0237537
1.48676
-0.0389528
1.76498
-0.0541652
2.03624
-0.0688397
2.316
-0.0811432
2.62654
-0.0877603
2.95866
-0.084781
3.31194
-0.0705443
3.09958
-0.0483345
2.44994
-0.0233642
1.95018
-0.00447684
1.5246
0.0121591
1.09953
0.0210748
0.672863
0.0167265
0.327171
0.00892732
0.114279
0.00251267
0.0134923
-0.0112337
-0.000339692
0.289955
-0.00381219
0.794955
-0.0127646
1.19396
-0.0246174
1.49861
-0.0384336
1.7788
-0.0528831
2.05069
-0.0669499
2.33007
-0.0790949
2.63869
-0.0865255
2.96609
-0.084322
3.30974
-0.0695287
3.08478
-0.0499026
2.43032
-0.0302834
1.93056
-0.00654258
1.50086
0.0105395
1.08245
0.0161664
0.667236
0.0140559
0.329281
0.00771969
0.120615
0.00228862
0.0189233
-0.00894509
-0.000650751
0.290606
-0.00416214
0.798466
-0.0129615
1.20276
-0.024527
1.51018
-0.0379701
1.79224
-0.0518315
2.06455
-0.0657854
2.34402
-0.0784439
2.65134
-0.0867037
2.97435
-0.0862965
3.30933
-0.0742277
3.07271
-0.053593
2.40968
-0.0301788
1.90715
-0.013001
1.48368
0.00234282
1.0671
0.011749
0.65783
0.0104851
0.330545
0.00616828
0.124932
0.00193851
0.0231531
-0.00700658
-0.00200359
0.29261
-0.00734255
0.803805
-0.0156248
1.21104
-0.0261238
1.52068
-0.0385604
1.80468
-0.0520416
2.07803
-0.0659588
2.35794
-0.0788943
2.66428
-0.0881256
2.98358
-0.0892043
3.31041
-0.0771145
3.06062
-0.0591462
2.39171
-0.0409786
1.88898
-0.0184413
1.46114
-0.00166343
1.05033
0.00531141
0.650855
0.0070944
0.328762
0.0044979
0.127528
0.00154536
0.0261056
-0.00546122
-0.00313594
0.295746
-0.0075843
0.808254
-0.015808
1.21926
-0.0264078
1.53128
-0.0387683
1.81704
-0.051927
2.09119
-0.0658261
2.37184
-0.0793129
2.67777
-0.0899246
2.99419
-0.0938696
3.31435
-0.0851663
3.05192
-0.0673178
2.37387
-0.0435286
1.86519
-0.0257282
1.44334
-0.0101326
1.03473
0.00122032
0.639502
0.00381228
0.32617
0.00308169
0.128259
0.00117066
0.0280167
-0.00429057
-0.00391373
0.299659
-0.00973047
0.81407
-0.0178232
1.22735
-0.0276962
1.54115
-0.0393343
1.82868
-0.0522203
2.10407
-0.0661793
2.3858
-0.080095
2.69168
-0.0919956
3.00609
-0.0976956
3.32005
-0.0903069
3.04453
-0.0739711
2.35753
-0.0552098
1.84643
-0.03065
1.41878
-0.0118042
1.01589
-0.0022228
0.629921
0.00218668
0.321761
0.00216585
0.12828
0.000965287
0.0292172
-0.00332528
-0.0039432
0.303603
-0.00952761
0.819655
-0.017642
1.23547
-0.0276386
1.55114
-0.0393149
1.84035
-0.0519891
2.11675
-0.0659206
2.39973
-0.0804173
2.70618
-0.0938637
3.01954
-0.102642
3.32883
-0.0994371
3.04133
-0.0836621
2.34175
-0.0581449
1.82091
-0.035944
1.39658
-0.0163073
0.996248
-0.00313979
0.616753
0.000939739
0.317681
0.00126809
0.127951
5.02757e-06
0.0304803
-0.00332026
-0.00413265
0.307735
-0.0107895
0.826312
-0.0188832
1.24356
-0.0282849
1.56055
-0.0393304
1.8514
-0.0517462
2.12916
-0.0657956
2.41378
-0.0807909
2.72117
-0.0953621
3.03411
-0.105828
3.3393
-0.10425
3.03975
-0.0905673
2.32807
-0.0700914
1.80044
-0.0394572
1.36595
-0.0133201
0.970111
-0.000180325
0.603614
0.00646758
0.311033
0.00622179
0.128197
0.00289061
0.0338115
-0.000429645
-0.00402403
0.311759
-0.0102731
0.832561
-0.0182282
1.25152
-0.0277042
1.57002
-0.0387913
1.86249
-0.0510794
2.14145
-0.0650906
2.42779
-0.0804887
2.73657
-0.096346
3.04997
-0.10976
3.35271
-0.112915
3.0429
-0.100801
2.31596
-0.0736599
1.7733
-0.043861
1.33615
-0.0128658
0.939116
0.00988052
0.580867
0.0157757
0.305138
0.00789365
0.136079
-0.00154508
0.0432502
-0.00197473
-0.0041759
0.315935
-0.0109917
0.839376
-0.0188095
1.25934
-0.0277406
1.57895
-0.038232
1.87298
-0.0502355
2.15346
-0.0642882
2.44184
-0.08007
2.75235
-0.0968231
3.06672
-0.11169
3.36758
-0.116919
3.04813
-0.107652
2.30669
-0.0868435
1.75249
-0.0482461
1.29755
-0.00614341
0.897013
0.0255761
0.549148
0.0473494
0.283365
0.0510184
0.13241
0.0298667
0.0644019
0.027892
-0.00403634
0.319972
-0.0102987
0.845639
-0.0178344
1.26687
-0.0267425
1.58786
-0.0372186
1.88345
-0.0490927
2.16533
-0.0630172
2.45577
-0.0789886
2.76833
-0.0966843
3.08442
-0.114056
3.38495
-0.123963
3.05804
-0.118077
2.3008
-0.0923613
1.72677
-0.0552563
1.26045
-0.00584424
0.847601
0.0401697
0.503134
0.0719691
0.251565
0.0576293
0.14675
0.0247747
0.0972564
0.0526667
-0.00401927
0.323991
-0.0106323
0.852252
-0.0179812
1.27422
-0.0263357
1.59622
-0.0362401
1.89336
-0.0477599
2.17685
-0.0616056
2.46961
-0.0778181
2.78454
-0.0961625
3.10276
-0.114741
3.40353
-0.12581
3.06911
-0.124252
2.29925
-0.107942
1.71046
-0.065821
1.21832
-0.0081151
0.789895
0.0610692
0.43395
0.154775
0.15786
0.213105
0.0884201
0.188415
0.121946
0.241082
-0.00386512
0.327856
-0.010012
0.858399
-0.0172494
1.28146
-0.0258372
1.6048
-0.0361937
1.90371
-0.048275
2.18893
-0.0629706
2.48431
-0.0806653
2.80223
-0.101663
3.12376
-0.124939
3.42681
-0.142851
3.08702
-0.1473
2.30369
-0.127739
1.6909
-0.0884108
1.179
-0.0203417
0.721826
0.0401349
0.373473
-0.033876
0.23187
-0.350449
0.404993
-0.94671
0.718207
0.903094
-1.60872
-0.00378011
0.331636
-0.010228
0.864847
-0.0173885
1.28862
-0.0256411
1.61306
-0.0356606
1.91373
-0.0477387
2.20101
-0.0629063
2.49947
-0.0816781
2.821
-0.104531
3.14661
-0.130866
3.45314
-0.152736
3.10889
-0.162511
2.31347
-0.161076
1.68947
-0.12639
1.14431
-0.0860922
0.681528
-0.193408
0.480789
-0.693966
0.732428
-1.45915
1.17017
-2.06259
1.32165
1.2151
-2.37459
-0.00355061
0.335187
-0.00941481
0.870711
-0.0162867
1.29549
-0.0245641
1.62133
-0.0347403
1.92391
-0.0470625
2.21333
-0.0626393
2.51505
-0.0822607
2.84063
-0.107047
3.1714
-0.13765
3.48375
-0.167266
3.13851
-0.18587
2.33207
-0.184175
1.68777
-0.158699
1.11883
-0.245228
0.768057
-0.752868
0.988429
-1.56572
1.54528
-2.11986
1.72432
-2.35633
1.55812
1.32828
-2.46952
-0.00346363
0.33865
-0.00940057
0.876648
-0.0161244
1.30221
-0.0240349
1.62924
-0.0338235
1.9337
-0.0460606
2.22557
-0.0619866
2.53098
-0.0825776
2.86122
-0.109192
3.19801
-0.143145
3.5177
-0.17784
3.1732
-0.204147
2.35838
-0.222049
1.70568
-0.291303
1.18809
-0.669429
1.14618
-1.45089
1.76989
-2.03406
2.12846
-2.27191
1.96216
-2.38394
1.67015
1.39124
-2.44689
-0.00315312
0.341803
-0.00843268
0.881927
-0.0147639
1.30855
-0.0226023
1.63708
-0.0325307
1.94363
-0.0449609
2.238
-0.0611977
2.54721
-0.0824815
2.8825
-0.110893
3.22643
-0.149218
3.55602
-0.192861
3.21684
-0.231525
2.39704
-0.263917
1.73807
-0.447833
1.372
-1.0993
1.79765
-1.79723
2.46781
-2.11162
2.44285
-2.25817
2.10871
-2.33979
1.75177
1.45748
-2.40604
-0.00316681
0.34497
-0.00872201
0.887483
-0.0151472
1.31497
-0.0228765
1.64481
-0.0327885
1.95354
-0.0453735
2.25058
-0.062132
2.56397
-0.0845216
2.90489
-0.114846
3.25675
-0.156617
3.59779
-0.205906
3.26613
-0.248157
2.4393
-0.331452
1.82136
-0.734086
1.77464
-1.49561
2.55918
-1.96328
2.93548
-2.16272
2.64228
-2.26841
2.2144
-2.34569
1.82905
1.52047
-2.40868
-0.0032195
0.34819
-0.00861821
0.892881
-0.0152636
1.32162
-0.0236021
1.65315
-0.0343144
1.96425
-0.0477635
2.26403
-0.0654619
2.58167
-0.0890454
2.92847
-0.121487
3.28919
-0.167841
3.64415
-0.223826
3.32212
-0.282111
2.49758
-0.467054
2.0063
-1.04501
2.3526
-1.68164
3.1958
-1.95209
3.20594
-2.09812
2.78832
-2.21198
2.32826
-2.30574
1.92281
1.58197
-2.36723
-0.00336489
0.351555
-0.00958257
0.899099
-0.0168036
1.32884
-0.0254011
1.66175
-0.0362898
1.97514
-0.0501558
2.2779
-0.068695
2.60021
-0.0937573
2.95354
-0.128369
3.3238
-0.178346
3.69413
-0.239037
3.38281
-0.321643
2.58019
-0.605746
2.29041
-1.26389
3.01074
-1.74947
3.68138
-1.95653
3.413
-2.09545
2.92724
-2.21949
2.4523
-2.32954
2.03287
1.64067
-2.38825
-0.00329409
0.354849
-0.00919027
0.904995
-0.0166648
1.33631
-0.026061
1.67114
-0.0379518
1.98703
-0.0528439
2.29279
-0.0724493
2.61982
-0.0987539
2.97984
-0.13543
3.36048
-0.189298
3.74799
-0.256369
3.44988
-0.37905
2.70287
-0.768806
2.68016
-1.4096
3.65154
-1.75851
4.03029
-1.93079
3.58528
-2.03232
3.02877
-2.12108
2.54105
-2.18752
2.09931
1.63324
-2.18009
-0.00332608
0.358175
-0.0102624
0.911931
-0.0184688
1.34452
-0.0281068
1.68078
-0.0401182
1.99904
-0.0553732
2.30805
-0.0758002
2.64024
-0.103637
3.00768
-0.142471
3.39931
-0.198661
3.80418
-0.275108
3.52633
-0.444291
2.87205
-0.90186
3.13773
-1.45899
4.20867
-1.71899
4.29029
-1.87006
3.73635
-1.96385
3.12256
-1.96432
2.54153
-1.89411
2.0291
1.59483
-1.85571
-0.00309972
0.361274
-0.0093814
0.918213
-0.0177094
1.35285
-0.0282099
1.69128
-0.0412936
2.01213
-0.0574901
2.32424
-0.0786193
2.66137
-0.106853
3.03591
-0.146236
3.4387
-0.202614
3.86056
-0.28736
3.61107
-0.490766
3.07546
-0.985022
3.63199
-1.42512
4.64877
-1.58926
4.45442
-1.65581
3.8029
-1.66017
3.12692
-1.51266
2.39401
-1.01376
1.5302
0.581074
-0.00271979
0.363994
-0.0103837
0.925877
-0.0196319
1.36209
-0.0304235
1.70207
-0.0438113
2.02551
-0.0608014
2.34123
-0.0835584
2.68413
-0.114683
3.06704
-0.158251
3.48226
-0.220789
3.9231
-0.323067
3.71335
-0.577158
3.32955
-1.12012
4.17495
-1.47659
5.00524
-1.57535
4.55318
-1.57349
3.80104
-1.47016
3.02359
-1.2317
2.15556
-0.629347
0.927842
-0.0482724
-0.00242461
0.366419
-0.00863282
0.932085
-0.0177739
1.37124
-0.0297915
1.71409
-0.0449666
2.04069
-0.0639296
2.3602
-0.0889356
2.70913
-0.122673
3.10077
-0.170537
3.53013
-0.24
3.99256
-0.362161
3.83551
-0.6763
3.64369
-1.23771
4.73636
-1.49617
5.2637
-1.55522
4.61223
-1.53305
3.77887
-1.33162
2.82216
-0.779951
1.60388
-0.10824
0.256131
-0.156512
-0.00147601
0.367895
-0.00929865
0.939908
-0.0194547
1.38139
-0.0316077
1.72624
-0.0467526
2.05583
-0.0662381
2.37968
-0.0927251
2.73562
-0.129482
3.13753
-0.18134
3.58199
-0.258426
4.06965
-0.40671
3.9838
-0.779241
4.01622
-1.31478
5.27189
-1.49044
5.43937
-1.52111
4.6429
-1.43334
3.6911
-1.09811
2.48693
-0.312144
0.817923
0.0247134
-0.080727
-0.131799
-0.000931269
0.368826
-0.00602674
0.945003
-0.0155389
1.3909
-0.0289781
1.73968
-0.0460847
2.07294
-0.0677469
2.40134
-0.0966555
2.76453
-0.135828
3.1767
-0.190746
3.6369
-0.276939
4.15584
-0.450926
4.15778
-0.88872
4.45401
-1.35916
5.74233
-1.47432
5.55452
-1.47757
4.64616
-1.25451
3.46803
-0.68462
1.91704
-0.0630571
0.196361
0.0299941
-0.173778
-0.101805
9.95016e-05
0.368727
-0.00585468
0.950957
-0.0161966
1.40125
-0.0295396
1.75303
-0.0459556
2.08936
-0.0677429
2.42313
-0.0976488
2.79444
-0.139294
3.21835
-0.197427
3.69504
-0.292503
4.25092
-0.493382
4.35866
-0.980591
4.94122
-1.35329
6.11504
-1.41901
5.62023
-1.37284
4.59999
-1.08524
3.18043
-0.32322
1.15502
0.00331687
-0.130176
0.0140917
-0.184553
-0.0877129
0.00335416
0.365372
0.0011158
0.953196
-0.00880059
1.41116
-0.0233256
1.76755
-0.0416184
2.10765
-0.0657313
2.44724
-0.0979331
2.82664
-0.141371
3.26179
-0.202348
3.75602
-0.306006
4.35458
-0.531483
4.58414
-1.0424
5.45214
-1.31799
6.39063
-1.35714
5.65938
-1.21918
4.46203
-0.770431
2.73168
-0.0701461
0.454739
0.0435613
-0.243883
0.0237261
-0.164718
-0.0639869
0.00429944
0.361073
0.00239887
0.955096
-0.0074533
1.42101
-0.0209233
1.78102
-0.0376268
2.12435
-0.0612153
2.47083
-0.0934223
2.85885
-0.138489
3.30685
-0.202004
3.81953
-0.313144
4.46572
-0.569779
4.84077
-1.06383
5.94619
-1.25283
6.57963
-1.26378
5.67034
-1.04602
4.24427
-0.460331
2.14599
-0.0184396
0.0128482
-0.00673464
-0.255588
0.00481427
-0.176267
-0.0591726
0.00871622
0.352357
0.0107645
0.953048
0.00489387
1.42688
-0.00818583
1.7941
-0.0271719
2.14334
-0.0526268
2.49629
-0.0865161
2.89273
-0.132074
3.35241
-0.197232
3.88469
-0.315044
4.58353
-0.591067
5.11679
-1.0403
6.39542
-1.16539
6.70471
-1.14881
5.65376
-0.890763
3.98622
-0.266018
1.52125
-0.0712964
-0.181874
-0.0391946
-0.28769
-0.0145912
-0.20087
-0.0737638
0.0113467
0.34101
0.0160329
0.948362
0.0109797
1.43194
0.000847478
1.80423
-0.0167283
2.16091
-0.0399257
2.51948
-0.0720852
2.92489
-0.117665
3.39799
-0.183453
3.95048
-0.304405
4.70448
-0.589811
5.4022
-0.976866
6.78248
-1.04002
6.76787
-0.974103
5.58784
-0.676818
3.68894
-0.073515
0.917945
0.0126971
-0.268086
-0.00175287
-0.27324
-0.00253021
-0.200093
-0.076294
0.0185287
0.322481
0.0309564
0.935934
0.0311852
1.43171
0.020994
1.81443
0.0036966
2.17821
-0.0196146
2.5428
-0.0522623
2.95754
-0.0966136
3.44234
-0.160681
4.01454
-0.28191
4.82571
-0.557905
5.6782
-0.863366
7.08794
-0.90031
6.80481
-0.794826
5.48236
-0.439814
3.33393
0.0682784
0.409853
0.0797266
-0.279534
0.0595652
-0.253079
0.0220129
-0.16254
-0.0542811
0.0243005
0.298181
0.0425604
0.917674
0.0456581
1.42861
0.0392406
1.82084
0.0274092
2.19004
0.00711909
2.56309
-0.0215192
2.98618
-0.0627954
3.48362
-0.124077
4.07583
-0.238574
4.94021
-0.48544
5.92506
-0.706445
7.30895
-0.732664
6.83103
-0.636058
5.38575
-0.299607
2.99748
0.0143889
0.0958563
0.027615
-0.29276
0.0371806
-0.262644
0.01747
-0.14283
-0.0368111
0.0352012
0.26298
0.0662828
0.886593
0.0791296
1.41576
0.0770693
1.8229
0.0665546
2.20056
0.0470151
2.58262
0.0193276
3.01387
-0.0189862
3.52193
-0.0736783
4.13052
-0.173295
5.03982
-0.372679
6.12445
-0.526543
7.46281
-0.550287
6.85477
-0.455076
5.29054
-0.187884
2.73029
-0.072336
-0.0196918
-0.0485671
-0.316529
-0.0162813
-0.29493
0.00127263
-0.160384
-0.0355384
0.0447218
0.218258
0.0876308
0.843684
0.108072
1.39532
0.112914
1.81806
0.109354
2.20412
0.0964547
2.59552
0.0766053
3.03372
0.0452996
3.55324
-0.00603882
4.18186
-0.0796321
5.11342
-0.216679
6.26149
-0.305494
7.55162
-0.316872
6.86615
-0.267374
5.24104
-0.115847
2.57876
-0.116376
-0.0191628
-0.0969018
-0.336003
-0.0602002
-0.331632
-0.0154488
-0.205135
-0.0509873
0.0579627
0.160295
0.12179
0.779856
0.160815
1.3563
0.175228
1.80365
0.176098
2.20325
0.165599
2.60602
0.14965
3.04967
0.126441
3.57645
0.0915716
4.21673
0.0418562
5.16313
-0.0103167
6.31367
-0.0409467
7.58225
-0.0397599
6.86496
-0.00820047
5.20948
0.0141196
2.55644
-0.155781
0.150737
-0.152679
-0.339104
-0.0957224
-0.388589
-0.0182231
-0.282634
-0.0692103
0.0595103
0.100785
0.151355
0.688012
0.209091
1.29856
0.236717
1.77602
0.248889
2.19108
0.24954
2.60537
0.243974
3.05523
0.232329
3.58809
0.213056
4.236
0.1913
5.18489
0.232423
6.27254
0.290403
7.52427
0.325817
6.82955
0.303665
5.23164
0.157119
2.70298
-0.128351
0.436207
-0.199141
-0.268313
-0.135967
-0.451763
-0.0325694
-0.386032
-0.10178
0.0485831
0.0522018
0.184823
0.551772
0.283658
1.19973
0.333361
1.72632
0.355032
2.16941
0.362139
2.59826
0.360456
3.05692
0.361171
3.58738
0.36267
4.2345
0.374048
5.17351
0.523995
6.12259
0.669149
7.37912
0.680192
6.81851
0.479672
5.43216
-0.00828268
3.19094
-0.359098
0.787022
-0.418018
-0.209393
-0.331995
-0.537787
-0.16667
-0.551356
-0.26845
0.0339798
0.018222
0.218703
0.367049
0.348794
1.06964
0.427663
1.64745
0.470105
2.12696
0.495722
2.57265
0.504751
3.04789
0.518288
3.57384
0.54091
4.21188
0.593794
5.12063
0.809156
5.90723
1.12126
7.06701
1.24838
6.69138
1.23835
5.44219
0.738527
3.69076
0.0137961
1.51175
-0.400908
0.205311
-0.482746
-0.45595
-0.270906
-0.763196
-0.539356
0.0301541
-0.0119321
0.231778
0.165424
0.45233
0.849084
0.574708
1.52507
0.629561
2.07211
0.661994
2.54021
0.682353
3.02753
0.705562
3.55063
0.750735
4.16671
0.845042
5.02632
1.16281
5.58946
1.71943
6.51039
2.04899
6.36182
2.28617
5.20502
2.17859
3.79834
1.4154
2.27494
0.687006
0.933704
0.176303
0.0547534
-0.0379795
-0.548914
-0.577335
0.0223226
-0.0342547
0.153088
0.0346589
0.493625
0.508547
0.695728
1.32297
0.803458
1.96438
0.857721
2.48595
0.894554
2.9907
0.918836
3.52635
0.980342
4.1052
1.10273
4.90393
1.46563
5.22656
2.22293
5.75309
2.60193
5.98283
2.78084
5.0261
2.64337
3.93582
2.14236
2.77595
1.48555
1.59051
0.901496
0.638809
0.33476
0.0178218
-0.242575
0.00148228
-0.035737
0.0750102
-0.038869
0.406565
0.176992
0.723562
1.00597
0.872028
1.81591
0.91383
2.44415
0.921969
2.98256
0.904975
3.54334
0.900148
4.11003
0.932811
4.87126
1.09316
5.06621
1.5357
5.31055
1.71382
5.80471
1.76084
4.97908
1.67324
4.02341
1.41032
3.03888
0.997795
2.00303
0.584223
1.05238
0.250633
0.351412
0.00805854
0.00479867
-0.0405356
0.0424289
-0.0764993
0.199807
0.0196136
0.549955
0.655826
0.737069
1.6288
0.804249
2.37697
0.818957
2.96785
0.814757
3.54754
0.798344
4.12644
0.815472
4.85414
0.898041
4.98365
1.21091
4.99769
1.39082
5.62479
1.4088
4.9611
1.35191
4.0803
1.18562
3.20517
0.894442
2.29421
0.565603
1.38122
0.234161
0.682854
0.24222
-0.00145285
-0.0390828
0.00654002
-0.0844921
0.0720156
-0.0458621
0.371708
0.356134
0.594792
1.40572
0.699665
2.2721
0.721898
2.94561
0.717764
3.55168
0.690901
4.1533
0.688135
4.8569
0.719314
4.95247
0.910546
4.80646
1.08024
5.4551
1.08118
4.96017
1.0281
4.13338
0.904697
3.32858
0.694302
2.50461
0.431638
1.64388
0.176504
0.937987
0.418724
-0.00606038
-0.0330224
-0.00563005
-0.0849225
0.0283622
-0.0798543
0.238657
0.14584
0.47285
1.17152
0.57842
2.16653
0.612529
2.91151
0.61679
3.54742
0.585957
4.18414
0.558946
4.88391
0.56215
4.94926
0.67013
4.69848
0.809641
5.31559
0.799639
4.97017
0.742877
4.19014
0.646989
3.42446
0.498158
2.65344
0.306438
1.8356
0.118377
1.12605
0.537101
0.000693953
-0.0337164
0.0112474
-0.0954759
0.0408568
-0.109464
0.149353
0.037343
0.36481
0.956065
0.478048
2.05329
0.505046
2.88451
0.502586
3.54987
0.478182
4.20854
0.450142
4.91195
0.432882
4.96652
0.49197
4.63939
0.586458
5.2211
0.575567