/*--------------------------------*- C++ -*----------------------------------*\
  =========                 |
  \\      /  F ield         | OpenFOAM: The Open Source CFD Toolbox
   \\    /   O peration     | Website:  https://openfoam.org
    \\  /    A nd           | Version:  10
     \\/     M anipulation  |
\*---------------------------------------------------------------------------*/
FoamFile
{
    format      ascii;
    class       volScalarField;
    location    "5";
    object      p;
}
// * * * * * * * * * * * * * * * * * * * * * * * * * * * * * * * * * * * * * //

dimensions      [0 2 -2 0 0 0 0];

internalField   nonuniform List<scalar> 
8800
(
0.530696
0.483266
0.445168
0.416882
0.3968
0.382794
0.372998
0.366209
0.361859
0.359934
0.360813
0.364275
0.370006
0.378325
0.390115
0.406931
0.430899
0.46413
0.506054
0.564665
0.360921
0.368966
0.37766
0.381869
0.381391
0.377421
0.371922
0.366574
0.36224
0.359398
0.358886
0.361077
0.364967
0.370062
0.375749
0.380809
0.383265
0.381577
0.374936
0.365329
0.339343
0.346081
0.351591
0.355486
0.357974
0.35907
0.358629
0.357229
0.355765
0.355073
0.355542
0.357031
0.358863
0.360086
0.359923
0.358159
0.355055
0.35038
0.344357
0.340694
0.340467
0.342813
0.346392
0.34949
0.3518
0.352846
0.353251
0.353063
0.352543
0.352214
0.352655
0.353533
0.354192
0.354274
0.353727
0.352161
0.349518
0.34608
0.342938
0.342004
0.34108
0.341535
0.342509
0.343662
0.344894
0.346191
0.347096
0.347554
0.347723
0.347862
0.34819
0.348526
0.348575
0.348149
0.347158
0.345964
0.344854
0.343772
0.343083
0.3429
0.338637
0.33887
0.339407
0.34007
0.340749
0.341383
0.34194
0.342395
0.342742
0.343053
0.34339
0.343624
0.343635
0.343411
0.343007
0.34247
0.341867
0.341283
0.340909
0.340822
0.335283
0.335378
0.335603
0.335947
0.336387
0.336905
0.337453
0.337981
0.338471
0.338941
0.339331
0.339537
0.339527
0.339336
0.339033
0.338703
0.338402
0.338162
0.338029
0.337991
0.331231
0.331289
0.331423
0.331628
0.331901
0.332249
0.332669
0.333153
0.333684
0.334248
0.334742
0.335048
0.335167
0.335152
0.335061
0.33494
0.334818
0.334714
0.33465
0.334627
0.326907
0.326943
0.327036
0.327185
0.327401
0.3277
0.328093
0.328587
0.329181
0.329864
0.330496
0.330931
0.331175
0.331283
0.331307
0.331289
0.331253
0.331215
0.331189
0.331175
0.322335
0.322358
0.322431
0.322554
0.322744
0.323024
0.323418
0.32395
0.324632
0.325462
0.326275
0.326877
0.327265
0.3275
0.32763
0.327694
0.327721
0.327726
0.327723
0.327715
0.317529
0.317551
0.317617
0.317737
0.31793
0.318226
0.318659
0.319266
0.32008
0.321107
0.322145
0.322945
0.323498
0.323859
0.324085
0.324218
0.324292
0.324328
0.324341
0.324335
0.312473
0.312491
0.312564
0.312697
0.312915
0.313255
0.313763
0.314491
0.315486
0.316768
0.318092
0.319139
0.319882
0.32038
0.320702
0.320902
0.32102
0.321083
0.321109
0.321105
0.307138
0.307157
0.307241
0.307397
0.307656
0.308067
0.308686
0.309582
0.310822
0.312438
0.314126
0.315477
0.31644
0.317098
0.31753
0.317802
0.317965
0.318055
0.318093
0.318089
0.301452
0.301475
0.301577
0.301769
0.302091
0.302601
0.303374
0.304498
0.30606
0.308105
0.31025
0.311974
0.313213
0.314063
0.314624
0.314979
0.315194
0.315314
0.315366
0.315362
0.295333
0.295361
0.295489
0.295731
0.296137
0.296781
0.297759
0.299184
0.301164
0.30376
0.306485
0.308678
0.310256
0.311341
0.312058
0.312514
0.31279
0.312944
0.313011
0.313007
0.288662
0.288698
0.288861
0.28917
0.289689
0.290512
0.29176
0.293576
0.296098
0.299398
0.302857
0.305637
0.307637
0.309012
0.309922
0.3105
0.310851
0.311048
0.311134
0.311128
0.28128
0.281327
0.281538
0.281937
0.282606
0.283665
0.285268
0.287595
0.290815
0.295015
0.2994
0.302917
0.305443
0.307178
0.308326
0.309056
0.309498
0.309747
0.309855
0.309849
0.272978
0.273039
0.273316
0.273836
0.274704
0.276077
0.278148
0.281141
0.285264
0.29061
0.296162
0.3006
0.30378
0.305963
0.307407
0.308325
0.308882
0.309194
0.30933
0.309322
0.26347
0.263553
0.263919
0.264603
0.265742
0.267534
0.270226
0.274093
0.279382
0.286188
0.293207
0.298791
0.302784
0.305524
0.307334
0.308486
0.309184
0.309575
0.309745
0.309734
0.252366
0.252481
0.252971
0.253883
0.255395
0.257758
0.261283
0.266305
0.273106
0.281764
0.290612
0.297614
0.302613
0.306042
0.308309
0.309752
0.310627
0.311118
0.311331
0.311316
0.23912
0.239282
0.239952
0.241189
0.243226
0.246386
0.251047
0.257608
0.266371
0.277368
0.288478
0.29722
0.303454
0.307736
0.310574
0.312384
0.313484
0.3141
0.314367
0.314348
0.222952
0.22319
0.224124
0.225845
0.228653
0.232953
0.239199
0.247831
0.259137
0.273058
0.286925
0.297773
0.305516
0.310856
0.314414
0.316693
0.318082
0.31886
0.319196
0.319173
0.202692
0.20305
0.204397
0.206888
0.210897
0.216897
0.2254
0.236841
0.251421
0.268939
0.286099
0.299449
0.309013
0.315666
0.320146
0.323045
0.32482
0.325814
0.326241
0.326214
0.176418
0.176965
0.179059
0.182926
0.188935
0.197579
0.209357
0.224602
0.243334
0.265171
0.286155
0.302401
0.314123
0.3224
0.328085
0.331842
0.33418
0.335492
0.336048
0.336016
0.140661
0.141624
0.145413
0.152022
0.161548
0.174398
0.190931
0.211234
0.235084
0.261936
0.287205
0.306692
0.320901
0.331161
0.33844
0.343452
0.346719
0.34863
0.349454
0.349403
0.0886184
0.091497
0.0998562
0.112173
0.127901
0.147305
0.17046
0.197158
0.227006
0.259412
0.289271
0.312224
0.329179
0.341761
0.351085
0.357924
0.362818
0.366057
0.367689
0.367653
0.00831703
0.0225334
0.0420661
0.0646734
0.0898655
0.118068
0.149229
0.183142
0.21948
0.257786
0.292535
0.319293
0.339421
0.354868
0.366935
0.376509
0.384196
0.390274
0.394735
0.396041
-0.0767892
-0.0466963
-0.0152617
0.0178202
0.0527421
0.0896205
0.128564
0.16953
0.212357
0.256844
0.29709
0.328384
0.352381
0.371331
0.386688
0.399455
0.410246
0.419766
0.429052
0.430964
-0.136649
-0.104327
-0.0650082
-0.0237589
0.0191404
0.0636501
0.109666
0.15708
0.205796
0.25576
0.300663
0.335525
0.362283
0.383401
0.400407
0.414324
0.425872
0.435553
0.443517
0.445367
-0.181024
-0.146616
-0.103279
-0.0570491
-0.00866104
0.0414737
0.0929928
0.145623
0.19919
0.253663
0.302317
0.339893
0.368504
0.390806
0.408491
0.422716
0.434332
0.443935
0.451776
0.453705
-0.213415
-0.17862
-0.132655
-0.0831436
-0.0310775
0.0230722
0.0787634
0.135496
0.192949
0.251069
0.302742
0.342431
0.372409
0.395535
0.413651
0.428041
0.439624
0.44907
0.45656
0.458485
-0.238381
-0.203387
-0.155958
-0.104121
-0.0492684
0.00793485
0.0667651
0.126583
0.186963
0.247864
0.301953
0.343437
0.374622
0.398485
0.416994
0.431534
0.443126
0.452476
0.459732
0.461664
-0.258747
-0.22346
-0.174825
-0.121306
-0.0643984
-0.00488559
0.0563329
0.118442
0.180952
0.243933
0.300031
0.343221
0.375666
0.400364
0.419364
0.434141
0.445803
0.455099
0.462179
0.464127
-0.27598
-0.240203
-0.190501
-0.13557
-0.0770301
-0.0157564
0.0472174
0.110921
0.174818
0.239201
0.296988
0.34195
0.37589
0.401668
0.42136
0.436524
0.448359
0.457671
0.464648
0.466627
-0.290674
-0.254433
-0.203769
-0.147659
-0.0877442
-0.0250753
0.0391672
0.103852
0.168424
0.233518
0.292709
0.339647
0.375492
0.402757
0.423454
0.439227
0.451369
0.460792
0.467707
0.469698
-0.303623
-0.266779
-0.215144
-0.157968
-0.0969033
-0.0331196
0.032004
0.0971363
0.161673
0.22673
0.286992
0.336214
0.374556
0.40389
0.426051
0.442741
0.455383
0.465036
0.47197
0.473991
-0.314945
-0.277537
-0.225114
-0.166861
-0.104758
-0.0400534
0.0256365
0.0907348
0.154521
0.218678
0.279548
0.331414
0.373049
0.405261
0.429518
0.44756
0.460978
0.471027
0.478042
0.480097
-0.325191
-0.287117
-0.23381
-0.174571
-0.111503
-0.0460137
0.0200151
0.0846642
0.146985
0.209207
0.270019
0.324882
0.370819
0.406988
0.434209
0.45419
0.468743
0.479407
0.486609
0.488725
-0.334491
-0.29576
-0.24149
-0.181298
-0.11728
-0.0510848
0.0151277
0.0789798
0.139123
0.198233
0.257993
0.316124
0.367587
0.409115
0.440448
0.463165
0.479331
0.490716
0.498394
0.500583
-0.343018
-0.303583
-0.24837
-0.187197
-0.122228
-0.0553298
0.0109791
0.0737799
0.131079
0.185722
0.243033
0.304495
0.362916
0.411609
0.448565
0.47504
0.493462
0.506093
0.513999
0.516455
-0.350976
-0.310816
-0.254597
-0.192396
-0.126463
-0.0588297
0.00757692
0.0691699
0.123035
0.171741
0.224724
0.289222
0.356244
0.414375
0.458799
0.490306
0.511747
0.525943
0.534479
0.53702
-0.358586
-0.317473
-0.260281
-0.197019
-0.130071
-0.0616579
0.00491242
0.0652678
0.115229
0.156426
0.202688
0.269387
0.346856
0.417153
0.471336
0.509421
0.534872
0.551234
0.560671
0.563093
-0.365828
-0.323752
-0.265538
-0.201189
-0.133164
-0.0638726
0.00296277
0.0621526
0.107931
0.14006
0.176625
0.243951
0.333907
0.419446
0.486243
0.532835
0.563348
0.582387
0.592804
0.594884
-0.372777
-0.32975
-0.270461
-0.204985
-0.135841
-0.0655796
0.00169933
0.0598912
0.10139
0.123017
0.146368
0.211781
0.316033
0.420828
0.503427
0.560919
0.597849
0.619798
0.630847
0.632291
-0.379665
-0.335535
-0.275137
-0.208504
-0.138181
-0.0668596
0.00105459
0.0585389
0.0958518
0.105756
0.111799
0.171673
0.291844
0.42047
0.52257
0.593732
0.639089
0.66458
0.67457
0.673863
-0.386355
-0.341152
-0.279589
-0.211793
-0.140284
-0.0677898
0.000952653
0.0580698
0.091532
0.0888194
0.0730102
0.122737
0.259221
0.418101
0.544417
0.629363
0.684747
0.717299
0.724958
0.716745
-0.393119
-0.346668
-0.283849
-0.214914
-0.14222
-0.0684662
0.00132402
0.0584546
0.0885438
0.0725044
0.0291968
0.0605187
0.214473
0.412125
0.566768
0.665998
0.730957
0.778011
0.794052
0.768151
-0.39988
-0.352026
-0.287935
-0.217984
-0.144126
-0.0689883
0.00206118
0.059678
0.086978
0.0567108
-0.021987
-0.0236365
0.146847
0.402905
0.592098
0.700105
0.758544
0.794859
0.803987
0.762177
-0.406396
-0.357001
-0.291683
-0.220988
-0.145937
-0.0693232
0.00308786
0.0617428
0.0871341
0.0426714
-0.079925
-0.137395
0.045399
0.38163
0.604905
0.706283
0.736938
0.736162
0.660144
0.603955
-0.411794
-0.361048
-0.294642
-0.223373
-0.147165
-0.0691829
0.00449098
0.0647164
0.0892686
0.0310965
-0.144866
-0.296257
-0.119987
0.352562
0.617586
0.689548
0.688789
0.614944
0.503282
0.432592
-0.480697
-0.361646
-0.29815
-0.226087
-0.149027
-0.0697216
0.00630697
0.0689106
0.0944742
0.0240369
-0.217325
-0.53707
-0.417538
0.205602
0.593418
0.61708
0.528883
0.417583
0.292456
0.223312
-0.382049
-0.36356
-0.303241
-0.2303
-0.151741
-0.0699691
0.00852108
0.0744426
0.10221
0.0219237
-0.32035
-1.07788
-1.19938
-0.200161
0.245134
0.142835
0.0247638
-0.0561219
-0.15656
-0.060027
-0.414335
-0.37228
-0.308571
-0.235228
-0.155167
-0.0716579
0.00990938
0.0794558
0.112467
0.0348057
-0.372741
-1.49351
-1.91656
-0.776349
-0.249617
-0.299295
-0.386879
-0.459556
-0.577598
-0.427623
-0.432183
-0.384158
-0.31698
-0.241862
-0.159922
-0.0742878
0.0103308
0.0839624
0.123472
0.0516011
-0.413505
-1.82483
-2.49838
-1.32831
-0.829439
-0.772735
-0.846828
-0.92423
-1.0868
-0.891089
-0.44965
-0.396522
-0.326298
-0.248652
-0.164643
-0.076689
0.0108089
0.0888937
0.13584
0.0760241
-0.41064
-1.95312
-2.70416
-1.66344
-1.24789
-1.19768
-1.31915
-1.44941
-1.68592
-1.55431
-0.465391
-0.40916
-0.336189
-0.256069
-0.169822
-0.0794827
0.0110604
0.0939033
0.14929
0.108245
-0.339199
-1.79493
-2.4897
-1.74114
-1.47209
-1.50783
-1.70668
-1.95476
-2.30128
-2.61946
-0.480243
-0.42226
-0.347071
-0.264633
-0.176041
-0.083224
0.0105704
0.0981337
0.162673
0.144708
-0.220587
-1.40127
-1.97983
-1.57645
-1.55228
-1.69411
-1.92043
-2.17413
-2.30543
-2.65755
-0.495547
-0.43625
-0.35924
-0.274588
-0.183698
-0.0882445
0.00880642
0.101304
0.175521
0.18318
-0.0744539
-0.889926
-1.34759
-1.29495
-1.49105
-1.8085
-2.03618
-2.06943
-2.12125
-2.20611
-0.511862
-0.451518
-0.372858
-0.286143
-0.192978
-0.0948699
0.00541388
0.102969
0.186465
0.221552
0.0766482
-0.387071
-0.750028
-0.963222
-1.3873
-1.91398
-2.31796
-2.07828
-2.05711
-2.18131
-0.529873
-0.468481
-0.388186
-0.299486
-0.204035
-0.103372
0.000197612
0.102385
0.194966
0.25477
0.207505
-8.42122e-05
-0.271458
-0.636324
-1.23227
-2.04423
-3.01621
-3.18652
-2.85873
-2.75849
-0.550286
-0.487596
-0.405587
-0.314846
-0.217177
-0.113912
-0.00730315
0.0991794
0.199754
0.281153
0.304275
0.241169
0.0404805
-0.341374
-0.990218
-2.02421
-3.37052
-3.85838
-3.45925
-3.16374
-0.573463
-0.509266
-0.425359
-0.33251
-0.232544
-0.126836
-0.0173083
0.093383
0.201126
0.298975
0.365639
0.373173
0.245645
-0.0497931
-0.548294
-1.28296
-2.03143
-2.31958
-2.17741
-2.0158
-0.599433
-0.533722
-0.44771
-0.352626
-0.250322
-0.142055
-0.029598
0.0846197
0.198374
0.309
0.401508
0.44741
0.394533
0.237841
-0.0004836
-0.28309
-0.481604
-0.557129
-0.517028
-0.489986
-0.628499
-0.561086
-0.472654
-0.375123
-0.270351
-0.159655
-0.0445358
0.0733788
0.192709
0.313186
0.42184
0.494227
0.504464
0.46661
0.405335
0.347777
0.341398
0.377064
0.406605
0.413894
-0.660293
-0.591038
-0.499977
-0.399946
-0.292629
-0.179234
-0.0611953
0.0602044
0.18421
0.313003
0.434084
0.526871
0.581373
0.611623
0.637496
0.673744
0.723281
0.773722
0.804527
0.811151
-0.694145
-0.622898
-0.52922
-0.426397
-0.316327
-0.200222
-0.079333
0.0454323
0.173955
0.310061
0.441032
0.549015
0.631205
0.697258
0.757971
0.818471
0.877069
0.92617
0.955181
0.961439
-0.728694
-0.655911
-0.559522
-0.453816
-0.340909
-0.221939
-0.0980826
0.0299205
0.162919
0.305035
0.444065
0.562082
0.658317
0.739084
0.80944
0.871763
0.925628
0.968644
0.995814
1.00228
-0.763169
-0.688564
-0.589491
-0.480874
-0.36505
-0.243293
-0.116622
0.0146054
0.15187
0.298944
0.443915
0.567289
0.669193
0.753867
0.824458
0.883118
0.931183
0.969368
0.99513
1.00175
-0.794994
-0.718777
-0.617429
-0.505918
-0.387397
-0.263096
-0.133762
0.000492262
0.141217
0.292639
0.440863
0.566469
0.669352
0.753461
0.82197
0.877516
0.92227
0.957899
0.981002
0.988122
-0.820643
-0.744267
-0.640727
-0.526828
-0.406145
-0.279733
-0.148245
-0.0117321
0.131433
0.285143
0.434557
0.559983
0.661597
0.743755
0.809987
0.863284
0.906118
0.940265
0.962491
0.969608
-0.836807
-0.761146
-0.656542
-0.54109
-0.418959
-0.291439
-0.158947
-0.0214956
0.122442
0.276446
0.424609
0.548081
0.647118
0.726807
0.790853
0.842323
0.883715
0.916701
0.938298
0.945549
-0.839349
-0.764806
-0.661199
-0.545504
-0.423496
-0.296323
-0.164625
-0.028279
0.114242
0.266002
0.41072
0.530554
0.626066
0.702887
0.764734
0.814579
0.854833
0.886721
0.908064
0.915577
-0.822316
-0.751542
-0.650131
-0.536103
-0.416675
-0.29265
-0.164344
-0.0316666
0.106699
0.253388
0.392341
0.506606
0.597575
0.670924
0.730314
0.77845
0.817596
0.848511
0.869768
0.877516
-0.777528
-0.712824
-0.617273
-0.508886
-0.395511
-0.278025
-0.15665
-0.0310517
0.0999122
0.23834
0.368678
0.475125
0.559947
0.628678
0.684841
0.730777
0.768348
0.798634
0.820409
0.828139
-0.698979
-0.643572
-0.556959
-0.45952
-0.357117
-0.250812
-0.140482
-0.0257737
0.0941717
0.220829
0.339345
0.435306
0.511463
0.573231
0.624168
0.666352
0.700922
0.728994
0.750669
0.758512
-0.580022
-0.539067
-0.466558
-0.385355
-0.299948
-0.209892
-0.115075
-0.0152618
0.0899964
0.201372
0.304888
0.387442
0.451773
0.502873
0.544272
0.578589
0.606786
0.628675
0.644005
0.649376
-0.399984
-0.380241
-0.337404
-0.284223
-0.223955
-0.156339
-0.0816439
0.000217843
0.0891586
0.18501
0.274652
0.345682
0.400069
0.442144
0.474608
0.499257
0.518333
0.534113
0.546272
0.549827
-0.223207
-0.217687
-0.200215
-0.174464
-0.139945
-0.096256
-0.0429494
0.0198562
0.0918172
0.172146
0.24841
0.308573
0.353671
0.387128
0.411779
0.42993
0.442793
0.450851
0.455202
0.456264
-0.101975
-0.100609
-0.0949395
-0.0835921
-0.0658252
-0.0397993
-0.00422717
0.0415726
0.0974844
0.162599
0.22581
0.275691
0.312467
0.33907
0.357673
0.369884
0.377385
0.381824
0.38401
0.384329
-0.0284925
-0.0291118
-0.0282372
-0.0234048
-0.0132568
0.00333105
0.0276433
0.0608888
0.103655
0.155439
0.206768
0.24731
0.276722
0.297277
0.311095
0.320075
0.325534
0.328343
0.329315
0.329399
0.0133212
0.0130043
0.0133836
0.0159867
0.0220845
0.0330818
0.0503241
0.0749386
0.107679
0.148436
0.189518
0.222069
0.245552
0.261877
0.27276
0.279577
0.283495
0.285482
0.286253
0.28636
0.040068
0.0400491
0.0405678
0.0425759
0.0469182
0.0546354
0.066987
0.0852319
0.110269
0.142199
0.174856
0.200819
0.219451
0.23222
0.240571
0.245771
0.248799
0.250362
0.250988
0.251084
0.0577611
0.0578284
0.058329
0.0598838
0.0631262
0.0688713
0.0780948
0.091849
0.11103
0.13592
0.161684
0.182237
0.19695
0.207005
0.213579
0.217661
0.220022
0.221241
0.221735
0.221811
0.0692657
0.0693733
0.0698587
0.0711224
0.0736182
0.077962
0.0849367
0.0954195
0.110193
0.129588
0.149847
0.166065
0.177671
0.185582
0.190734
0.193925
0.195776
0.196736
0.19713
0.197189
0.0764111
0.0765158
0.0769336
0.0779461
0.0798924
0.0832372
0.088581
0.0966257
0.108035
0.12314
0.139024
0.151779
0.160908
0.167124
0.17117
0.173674
0.175125
0.175877
0.176184
0.176228
0.080269
0.0803596
0.0807035
0.0815057
0.083022
0.085608
0.0897297
0.0959391
0.104778
0.116542
0.128978
0.138989
0.146157
0.151037
0.15421
0.156173
0.157309
0.157895
0.158137
0.15817
0.0816159
0.0816903
0.0819657
0.0825963
0.0837787
0.0857854
0.0889763
0.0937855
0.100645
0.10981
0.119535
0.127379
0.133
0.136828
0.139314
0.140851
0.141737
0.142195
0.142379
0.142404
0.081025
0.0810849
0.0813029
0.081797
0.082718
0.0842774
0.0867542
0.090486
0.0958178
0.10296
0.110557
0.116697
0.121099
0.124094
0.12604
0.127242
0.127935
0.12829
0.128431
0.128449
0.0789349
0.0789822
0.0791532
0.0795387
0.0802561
0.0814684
0.0833925
0.0862933
0.0904409
0.096006
0.101939
0.106738
0.11018
0.112523
0.114045
0.114983
0.115523
0.1158
0.115908
0.115922
0.0756818
0.0757191
0.0758531
0.0761539
0.0767121
0.0776551
0.0791513
0.0814063
0.0846329
0.0889686
0.0935968
0.0973453
0.100036
0.101866
0.103054
0.103786
0.104206
0.10442
0.104504
0.104514
0.0715264
0.0715554
0.0716596
0.0718934
0.0723278
0.0730611
0.0742243
0.0759781
0.0784889
0.0818655
0.0854741
0.0883979
0.0904964
0.0919245
0.0928507
0.0934202
0.0937466
0.0939128
0.0939775
0.0939852
0.0666695
0.066692
0.066773
0.0669548
0.0672924
0.0678621
0.0687654
0.0701278
0.0720799
0.0747069
0.0775166
0.0797945
0.0814291
0.0825407
0.0832614
0.0837055
0.0839601
0.0840888
0.0841384
0.084144
0.0612677
0.0612851
0.0613478
0.0614887
0.06175
0.0621916
0.0628929
0.063951
0.0654666
0.0675068
0.0696908
0.0714614
0.0727318
0.0735963
0.0741567
0.0745009
0.0746971
0.0747961
0.0748339
0.0748381
0.0554435
0.0554566
0.0555049
0.0556136
0.0558161
0.056158
0.0567
0.057518
0.0586913
0.0602724
0.0619651
0.0633383
0.0643246
0.0649952
0.0654283
0.0656935
0.0658449
0.0659211
0.06595
0.065953
0.0492915
0.0493016
0.0493387
0.0494222
0.0495772
0.0498396
0.0502574
0.050888
0.0517926
0.0530121
0.0543178
0.0553773
0.0561376
0.0566535
0.0569875
0.0571927
0.0573092
0.0573672
0.0573891
0.0573914
0.0428883
0.0428958
0.0429234
0.0429864
0.0431042
0.0433046
0.043624
0.0441068
0.0447994
0.0457328
0.0467326
0.0475427
0.0481232
0.0485177
0.0487729
0.0489292
0.0490184
0.0490628
0.0490794
0.0490811
0.0362914
0.0362968
0.0363168
0.0363638
0.0364528
0.0366038
0.0368442
0.0372079
0.0377303
0.0384352
0.0391909
0.0398043
0.0402445
0.0405435
0.0407365
0.0408536
0.0409193
0.0409517
0.0409632
0.0409642
0.0295473
0.0295511
0.0295655
0.0295995
0.0296646
0.0297761
0.029954
0.0302231
0.0306095
0.0311311
0.0316904
0.0321436
0.0324678
0.0326864
0.0328265
0.0329126
0.0329612
0.0329848
0.0329934
0.0329941
0.0226934
0.0226959
0.0227052
0.0227288
0.0227748
0.0228536
0.022979
0.0231696
0.0234443
0.0238147
0.0242108
0.0245312
0.0247602
0.0249156
0.0250156
0.0250757
0.0251091
0.0251251
0.0251301
0.0251304
0.0157611
0.0157623
0.0157688
0.0157842
0.0158135
0.0158637
0.0159449
0.0160689
0.0162476
0.0164892
0.0167488
0.0169595
0.0171112
0.0172141
0.0172788
0.0173169
0.0173369
0.0173453
0.0173473
0.0173474
0.00877705
0.00877748
0.00878023
0.00878759
0.0088025
0.00882955
0.00887361
0.00894019
0.00903601
0.00916598
0.00930472
0.00941757
0.00949617
0.00954803
0.009582
0.00960258
0.00961339
0.00961798
0.00961917
0.00961929
0.00175452
0.00175283
0.00175026
0.00174958
0.00175159
0.00175591
0.00176259
0.00177345
0.0017902
0.00181384
0.00184789
0.00187314
0.00189304
0.00190883
0.00191902
0.00192458
0.00192744
0.0019284
0.00192728
0.00192497
-1.09347
-0.750764
-0.381159
-0.0814476
0.157715
0.35148
0.514485
0.655067
0.73354
0.700986
-0.455815
-0.239079
-0.0205482
0.166524
0.324478
0.457383
0.566214
0.646244
0.684917
0.684527
-0.058317
0.0756482
0.212449
0.334363
0.438961
0.526203
0.594406
0.641694
0.668951
0.675216
0.19293
0.28025
0.370492
0.449845
0.518274
0.575145
0.619717
0.651167
0.671689
0.679136
0.363352
0.419628
0.478171
0.531999
0.579833
0.620835
0.653263
0.676139
0.69031
0.698223
0.484894
0.523022
0.565863
0.607249
0.643811
0.674111
0.697448
0.713702
0.725816
0.735989
0.57603
0.606742
0.6421
0.674932
0.704128
0.729696
0.751424
0.768505
0.780069
0.792521
0.650503
0.680812
0.715697
0.748357
0.779159
0.806387
0.828561
0.844822
0.854948
0.869151
0.735397
0.771851
0.811209
0.847236
0.878135
0.903665
0.924449
0.940315
0.950226
0.966133
0.848678
0.889398
0.930596
0.965317
0.995129
1.02002
1.03996
1.05474
1.06497
1.08217
0.99422
1.03383
1.07094
1.10265
1.12846
1.15039
1.16909
1.1843
1.1965
1.21427
1.16954
1.20216
1.22875
1.25123
1.27144
1.29037
1.30815
1.32446
1.3396
1.35759
1.35876
1.37617
1.3915
1.40789
1.42375
1.43822
1.45146
1.46549
1.48323
1.50328
1.54104
1.5505
1.56202
1.57287
1.58236
1.59204
1.60275
1.6141
1.62544
1.64082
1.74772
1.75153
1.73677
1.72224
1.716
1.72167
1.74028
1.77058
1.80262
1.82922
2.05475
1.91997
1.84321
1.80039
1.78289
1.78704
1.81421
1.87066
1.97353
2.19798
0.420981
0.419181
0.415278
0.407518
0.396142
0.384904
0.375528
0.368362
0.363248
0.360182
0.359643
0.361905
0.366256
0.372563
0.380955
0.391464
0.403129
0.413267
0.418546
0.421131
0.344182
0.350222
0.357679
0.363301
0.366755
0.367449
0.365737
0.362769
0.359804
0.357778
0.357449
0.359077
0.361947
0.365239
0.36787
0.368556
0.366525
0.361913
0.355513
0.348003
0.339011
0.340981
0.345733
0.350076
0.352828
0.354314
0.355074
0.354896
0.354112
0.353341
0.353315
0.354169
0.355343
0.356109
0.356005
0.354964
0.352981
0.3495
0.344695
0.341047
0.34151
0.341908
0.343518
0.345695
0.347723
0.349487
0.350517
0.350949
0.350913
0.350725
0.350844
0.3514
0.351897
0.351963
0.351403
0.350133
0.348283
0.346228
0.344231
0.343219
0.339932
0.34004
0.340504
0.341246
0.342014
0.342799
0.343554
0.344156
0.344549
0.344806
0.345091
0.34541
0.345536
0.34535
0.344874
0.344226
0.343531
0.342825
0.342209
0.341957
0.337105
0.337164
0.337424
0.337878
0.338439
0.339054
0.339661
0.340204
0.340662
0.341068
0.341456
0.34175
0.341848
0.341726
0.341409
0.340963
0.340479
0.340025
0.339682
0.339544
0.333295
0.333322
0.333433
0.333638
0.333923
0.334289
0.33473
0.335221
0.335732
0.336246
0.336736
0.337093
0.337238
0.337206
0.33706
0.336868
0.336676
0.336508
0.336388
0.336339
0.329103
0.32912
0.329197
0.32934
0.329548
0.329829
0.33019
0.330634
0.331157
0.331751
0.33236
0.332833
0.333099
0.333206
0.333208
0.333154
0.333078
0.333003
0.332944
0.332916
0.324649
0.324657
0.324712
0.324817
0.32498
0.325219
0.325553
0.326
0.326572
0.327268
0.328027
0.328657
0.329066
0.329301
0.329421
0.329469
0.329479
0.32947
0.329456
0.329445
0.319963
0.31997
0.320012
0.320104
0.320255
0.320488
0.320831
0.321314
0.321965
0.3228
0.323752
0.324582
0.325154
0.325532
0.325763
0.325897
0.32597
0.326004
0.326016
0.326016
0.315032
0.315034
0.315081
0.315176
0.315337
0.315591
0.315976
0.316534
0.31731
0.318334
0.319532
0.320607
0.321377
0.321906
0.322249
0.322464
0.322592
0.322662
0.322695
0.322703
0.309845
0.309845
0.309895
0.310002
0.310188
0.310486
0.310944
0.311619
0.31257
0.313844
0.31536
0.316741
0.317755
0.318454
0.31892
0.319218
0.319401
0.319506
0.319558
0.319572
0.304343
0.304343
0.304402
0.30453
0.304755
0.305119
0.305683
0.30652
0.307708
0.309312
0.311234
0.312997
0.314298
0.315208
0.315819
0.316214
0.316458
0.3166
0.316672
0.316692
0.298454
0.298452
0.298525
0.298685
0.298966
0.299423
0.300132
0.301185
0.302686
0.304716
0.307156
0.309399
0.31106
0.312225
0.31301
0.313518
0.313834
0.314019
0.314114
0.314141
0.292075
0.292073
0.292165
0.292369
0.292725
0.293306
0.294207
0.295547
0.297454
0.300035
0.303133
0.305981
0.30809
0.309571
0.310569
0.311217
0.31162
0.311856
0.311978
0.312012
0.285071
0.285068
0.285187
0.285449
0.285907
0.286652
0.287806
0.28952
0.291956
0.295243
0.299178
0.302788
0.305456
0.307329
0.308592
0.309412
0.309922
0.310221
0.310376
0.310419
0.27726
0.277257
0.277411
0.27775
0.278344
0.279308
0.280797
0.283001
0.286122
0.290315
0.295312
0.299879
0.303245
0.305606
0.307197
0.308229
0.308871
0.309249
0.309444
0.309498
0.268397
0.268393
0.268597
0.269042
0.269818
0.271073
0.273006
0.275855
0.279867
0.285223
0.291565
0.297329
0.301566
0.304533
0.306531
0.307828
0.308634
0.309107
0.309352
0.30942
0.258151
0.258147
0.25842
0.259011
0.260037
0.261688
0.264216
0.267919
0.273094
0.279942
0.287978
0.295234
0.300551
0.304269
0.306773
0.308397
0.309408
0.310001
0.310307
0.310391
0.24606
0.246059
0.246432
0.247232
0.248607
0.250804
0.254144
0.258992
0.265693
0.274452
0.284611
0.29371
0.300355
0.305001
0.308132
0.310166
0.311433
0.312178
0.312562
0.312667
0.231463
0.231469
0.231996
0.233109
0.234989
0.237963
0.242435
0.248838
0.257552
0.268751
0.281543
0.292894
0.301161
0.306949
0.31086
0.31341
0.315003
0.315943
0.31643
0.316562
0.213369
0.213391
0.214178
0.215784
0.218427
0.222546
0.228642
0.237198
0.248578
0.262868
0.278878
0.292933
0.303157
0.310345
0.315236
0.318447
0.320469
0.321672
0.322303
0.322475
0.190237
0.190314
0.191578
0.194002
0.197861
0.203753
0.21226
0.223835
0.238732
0.256882
0.27674
0.293972
0.306513
0.315409
0.321542
0.325628
0.32824
0.329828
0.330685
0.330924
0.159538
0.159799
0.162016
0.165909
0.171882
0.180707
0.192889
0.208687
0.22814
0.250973
0.275289
0.296135
0.311347
0.322291
0.330008
0.335293
0.338778
0.340972
0.342212
0.342581
0.116531
0.117305
0.121826
0.128845
0.13896
0.152839
0.170564
0.192085
0.217203
0.245477
0.274733
0.299512
0.317679
0.330996
0.340689
0.347629
0.352466
0.355711
0.357694
0.358283
0.0526327
0.0552083
0.0659063
0.08022
0.0984521
0.120472
0.145963
0.174733
0.20648
0.240737
0.275182
0.304018
0.325276
0.341183
0.353189
0.362275
0.369125
0.374283
0.377856
0.378518
-0.0255651
-0.0195384
0.000535608
0.0268492
0.0556158
0.086914
0.120762
0.157102
0.195728
0.236348
0.276614
0.31037
0.335691
0.355229
0.370633
0.382988
0.393057
0.401391
0.406758
0.408852
-0.104054
-0.089894
-0.0591259
-0.0228458
0.0154511
0.0555417
0.0973525
0.140848
0.185974
0.232617
0.278449
0.316874
0.345875
0.368508
0.386636
0.401414
0.41356
0.423603
0.430946
0.434813
-0.156637
-0.141585
-0.106262
-0.0636996
-0.0186812
0.0281217
0.0764334
0.126045
0.176798
0.228595
0.279029
0.321091
0.352727
0.377256
0.396664
0.412209
0.424729
0.43485
0.442202
0.445953
-0.195366
-0.180157
-0.141437
-0.0951204
-0.045919
0.00549666
0.0585895
0.112922
0.168174
0.2242
0.278426
0.323411
0.356993
0.382757
0.402895
0.418832
0.431518
0.441645
0.449057
0.452872
-0.223984
-0.208983
-0.168656
-0.119869
-0.0676479
-0.0128908
0.0437712
0.101728
0.160471
0.219781
0.276974
0.324282
0.359426
0.386176
0.406874
0.423077
0.435855
0.445954
0.453421
0.457271
-0.246813
-0.231779
-0.190429
-0.139885
-0.085461
-0.0281424
0.031252
0.0919226
0.153258
0.215013
0.274537
0.323853
0.360456
0.388182
0.409468
0.425982
0.438891
0.44901
0.456551
0.460421
-0.265729
-0.250672
-0.208276
-0.156307
-0.100196
-0.0409533
0.0204947
0.083179
0.146358
0.209819
0.271128
0.322277
0.360433
0.389306
0.411337
0.428287
0.441422
0.451624
0.459255
0.463146
-0.281865
-0.26661
-0.223291
-0.170085
-0.11257
-0.0517796
0.0112179
0.0753096
0.139625
0.204062
0.266633
0.319569
0.359538
0.38989
0.412964
0.430569
0.444076
0.45447
0.462185
0.466154
-0.295798
-0.280397
-0.236095
-0.181826
-0.123089
-0.0610418
0.00313206
0.0681276
0.132944
0.197622
0.260893
0.315615
0.357817
0.390163
0.414719
0.433297
0.447379
0.458074
0.465939
0.469975
-0.308087
-0.292404
-0.2472
-0.191938
-0.132098
-0.0689843
-0.00392274
0.0615526
0.126257
0.190382
0.253683
0.310194
0.355192
0.390259
0.416919
0.436916
0.451863
0.463039
0.471155
0.475319
-0.319012
-0.303036
-0.256967
-0.200704
-0.139869
-0.0757954
-0.0100556
0.0555463
0.119563
0.182276
0.244758
0.302963
0.351468
0.390208
0.419826
0.441864
0.45808
0.469961
0.478437
0.48273
-0.328953
-0.312554
-0.265657
-0.20838
-0.146576
-0.0816289
-0.0153402
0.0501215
0.112917
0.173291
0.233852
0.293462
0.346292
0.389946
0.423655
0.448583
0.466603
0.479503
0.488508
0.492997
-0.338007
-0.321225
-0.273368
-0.215158
-0.152377
-0.0865812
-0.0198227
0.0453186
0.106428
0.163477
0.220737
0.281152
0.339172
0.389293
0.428597
0.457508
0.478046
0.492394
0.502081
0.506806
-0.346435
-0.329255
-0.280405
-0.221192
-0.157406
-0.090749
-0.0235353
0.0411784
0.100241
0.152966
0.205214
0.265395
0.329464
0.387957
0.434758
0.469056
0.493018
0.509348
0.520002
0.524976
-0.35426
-0.336642
-0.286838
-0.226612
-0.161791
-0.0942211
-0.026504
0.0377566
0.0945153
0.141985
0.187195
0.245488
0.316352
0.385533
0.442188
0.483697
0.512173
0.531045
0.542941
0.548326
-0.361757
-0.343613
-0.292811
-0.231526
-0.16564
-0.0970994
-0.0287852
0.0351087
0.0894301
0.130794
0.166687
0.220677
0.298869
0.381506
0.450836
0.50158
0.535978
0.558116
0.571575
0.577418
-0.368849
-0.350266
-0.298432
-0.236051
-0.169046
-0.0994636
-0.0304527
0.0332424
0.0851681
0.119738
0.143814
0.190195
0.275787
0.375
0.460341
0.522985
0.565116
0.591405
0.606743
0.612898
-0.375808
-0.356694
-0.30378
-0.240271
-0.172117
-0.10142
-0.0315614
0.0321269
0.0818669
0.109204
0.118815
0.153224
0.245861
0.364897
0.470545
0.548032
0.599539
0.631187
0.647963
0.653563
-0.382592
-0.36291
-0.308925
-0.24425
-0.174914
-0.103053
-0.0321986
0.0317482
0.0796145
0.0995929
0.0920354
0.108886
0.206901
0.350176
0.481322
0.576627
0.639363
0.678115
0.696055
0.69739
-0.389378
-0.369093
-0.313876
-0.24802
-0.177521
-0.104446
-0.03246
0.0320311
0.0784673
0.0912497
0.0640231
0.0571593
0.156314
0.329626
0.491265
0.605787
0.680527
0.729907
0.755778
0.745971
-0.396164
-0.375269
-0.318656
-0.251635
-0.180031
-0.105689
-0.032403
0.0329293
0.0784583
0.0841838
0.0339072
-0.00718064
0.0867866
0.29764
0.502275
0.638889
0.719816
0.776709
0.814429
0.819295
-0.402891
-0.381318
-0.323148
-0.255124
-0.182531
-0.106882
-0.0321325
0.0343553
0.0796251
0.0788912
0.0025103
-0.0884398
-0.0118689
0.247345
0.51183
0.661275
0.732189
0.767422
0.766795
0.696008
-0.409105
-0.386863
-0.327157
-0.258682
-0.185142
-0.108253
-0.0318327
0.0362287