/*--------------------------------*- C++ -*----------------------------------*\
  =========                 |
  \\      /  F ield         | OpenFOAM: The Open Source CFD Toolbox
   \\    /   O peration     | Website:  https://openfoam.org
    \\  /    A nd           | Version:  10
     \\/     M anipulation  |
\*---------------------------------------------------------------------------*/
FoamFile
{
    format      ascii;
    class       volScalarField;
    location    "62";
    object      p;
}
// * * * * * * * * * * * * * * * * * * * * * * * * * * * * * * * * * * * * * //

dimensions      [0 2 -2 0 0 0 0];

internalField   nonuniform List<scalar> 
2200
(
0.772981
0.751483
0.735577
0.719911
0.705303
0.69279
0.682443
0.674353
0.668667
0.66574
0.666262
0.6701
0.676448
0.685015
0.695702
0.708478
0.723273
0.739206
0.755253
0.77675
0.705393
0.702135
0.699212
0.695099
0.689643
0.683176
0.676567
0.670626
0.666137
0.663776
0.664268
0.667613
0.672817
0.679294
0.686291
0.693051
0.698718
0.702812
0.705658
0.709022
0.66546
0.665681
0.667743
0.669091
0.669486
0.668641
0.666673
0.66401
0.661488
0.660026
0.660602
0.663074
0.666381
0.669623
0.671967
0.67297
0.672705
0.671716
0.670084
0.669835
0.642969
0.644421
0.64702
0.649475
0.651923
0.653949
0.655114
0.655362
0.655014
0.654756
0.655438
0.656847
0.658063
0.658471
0.657799
0.656131
0.653973
0.651787
0.649174
0.64777
0.628596
0.630569
0.63339
0.636231
0.6391
0.641942
0.644414
0.646291
0.647542
0.64838
0.64915
0.649652
0.649445
0.64836
0.64652
0.644166
0.641625
0.638897
0.636098
0.634176
0.621221
0.622819
0.625026
0.627565
0.630243
0.632924
0.635537
0.637983
0.640032
0.641576
0.642489
0.642554
0.641755
0.640268
0.638391
0.636265
0.633953
0.631616
0.629519
0.627945
0.617781
0.618803
0.620076
0.621948
0.624099
0.626279
0.628491
0.63081
0.633066
0.634958
0.636039
0.63611
0.635376
0.634207
0.632838
0.631296
0.629606
0.628036
0.626925
0.625909
0.615088
0.615757
0.616393
0.617703
0.619329
0.621035
0.622813
0.624768
0.626879
0.628906
0.63021
0.630571
0.630296
0.629708
0.628963
0.628042
0.627008
0.626094
0.62565
0.624973
0.611798
0.612243
0.612644
0.613647
0.61492
0.61632
0.617844
0.619549
0.621452
0.623481
0.625082
0.625934
0.626255
0.62625
0.625999
0.625554
0.624997
0.624477
0.624296
0.623831
0.607699
0.607996
0.608357
0.609233
0.610358
0.61165
0.61311
0.614758
0.616626
0.618734
0.620682
0.622089
0.622929
0.623353
0.623477
0.62337
0.623094
0.622785
0.622664
0.622339
0.602926
0.603126
0.603501
0.604339
0.605446
0.606776
0.608332
0.610115
0.612138
0.614461
0.616847
0.618754
0.620049
0.620833
0.621225
0.621351
0.621266
0.62111
0.621011
0.620772
0.597667
0.597812
0.598186
0.599001
0.600154
0.601603
0.603339
0.605371
0.60773
0.610475
0.613394
0.615834
0.617525
0.618608
0.619237
0.619551
0.619667
0.619653
0.619589
0.619397
0.591961
0.592071
0.592453
0.593281
0.594519
0.596134
0.598121
0.6005
0.603338
0.606692
0.61023
0.613217
0.61533
0.616746
0.617652
0.618201
0.618525
0.618651
0.61863
0.61846
0.585852
0.585918
0.586302
0.587162
0.588518
0.590326
0.592594
0.595372
0.598769
0.602863
0.607197
0.610834
0.613452
0.61529
0.616571
0.617423
0.617988
0.618258
0.618276
0.618115
0.579217
0.579255
0.579682
0.580597
0.582095
0.584119
0.586685
0.589922
0.593977
0.5989
0.604168
0.608649
0.611948
0.614339
0.61608
0.617312
0.618129
0.618549
0.618615
0.618455
0.571955
0.571921
0.572344
0.573352
0.575047
0.577333
0.580261
0.584029
0.588846
0.594802
0.601211
0.606696
0.610842
0.613931
0.616251
0.617913
0.619025
0.619611
0.619729
0.619563
0.56374
0.563726
0.564181
0.565304
0.56727
0.569891
0.573311
0.577758
0.583487
0.590649
0.598394
0.605106
0.610267
0.614179
0.617143
0.619301
0.620756
0.621514
0.621688
0.621511
0.55448
0.554502
0.554953
0.556207
0.558466
0.561514
0.565556
0.570823
0.577625
0.5862
0.595626
0.603865
0.610241
0.615152
0.618855
0.621565
0.623406
0.624353
0.624578
0.624383
0.543706
0.543682
0.544236
0.545708
0.548336
0.551962
0.556819
0.563174
0.571394
0.581769
0.593148
0.603126
0.61091
0.616891
0.621419
0.624795
0.627059
0.62819
0.628464
0.628247
0.530919
0.530853
0.531529
0.53337
0.536564
0.540988
0.546929
0.554703
0.564735
0.577328
0.591031
0.603006
0.612315
0.619504
0.624999
0.629074
0.631813
0.633137
0.633445
0.633199
0.515829
0.515727
0.516501
0.51871
0.52264
0.52815
0.53556
0.545235
0.55762
0.572923
0.589356
0.603512
0.614542
0.623061
0.629582
0.634481
0.637705
0.639197
0.639531
0.639253
0.497393
0.497309
0.498328
0.501123
0.50607
0.513055
0.522443
0.534616
0.549983
0.568552
0.588068
0.60479
0.617699
0.62766
0.635347
0.641064
0.644764
0.646415
0.646741
0.64643
0.474712
0.474565
0.475872
0.479461
0.485878
0.494985
0.507091
0.522547
0.541587
0.56406
0.587147
0.606653
0.621604
0.633186
0.642106
0.648748
0.652922
0.654693
0.654978
0.654638
0.445398
0.445425
0.447526
0.4526
0.461344
0.473615
0.489585
0.509357
0.532902
0.559865
0.586934
0.609412
0.626581
0.639805
0.650022
0.657514
0.662045
0.663885
0.664097
0.663728
0.406717
0.406959
0.410502
0.418504
0.431326
0.448589
0.469862
0.494992
0.523802
0.555863
0.587305
0.613051
0.63252
0.647465
0.65891
0.667166
0.671946
0.673726
0.673837
0.673459
0.355328
0.355743
0.36275
0.376005
0.395255
0.419678
0.447954
0.479749
0.514799
0.552571
0.58866
0.617614
0.639387
0.656045
0.668743
0.677595
0.682252
0.683692
0.683644
0.683332
0.287834
0.2906
0.305728
0.327265
0.355441
0.388785
0.425233
0.464524
0.506504
0.550574
0.591733
0.624468
0.649048
0.667763
0.681806
0.691232
0.69566
0.696581
0.696503
0.696307
0.211127
0.220721
0.245985
0.277291
0.315653
0.358153
0.402875
0.449902
0.49915
0.550036
0.596941
0.63403
0.661613
0.682597
0.698273
0.708249
0.71236
0.712808
0.712826
0.712736
0.14269
0.157381
0.188965
0.229304
0.277335
0.328721
0.381543
0.436318
0.49288
0.550519
0.603091
0.644082
0.67472
0.697846
0.714699
0.725004
0.728916
0.729055
0.729161
0.729147
0.0906298
0.103846
0.140504
0.18696
0.242391
0.301345
0.361596
0.423659
0.4871
0.550929
0.608613
0.653741
0.687356
0.712409
0.73061
0.741536
0.745323
0.745877
0.746094
0.746069
0.0475383
0.0600444
0.10052
0.150859
0.211749
0.276696
0.343378
0.411824
0.481414
0.551271
0.614385
0.663471
0.699478
0.72647
0.745982
0.757354
0.761923
0.762769
0.7628
0.762864
0.0108197
0.0235235
0.0666642
0.119873
0.185119
0.25489
0.326958
0.401026
0.476433
0.552295
0.62051
0.6728
0.711279
0.739869
0.760772
0.772827
0.777592
0.778538
0.778592
0.778659
-0.0212059
-0.00829435
0.0370112
0.0928139
0.161679
0.235442
0.312208
0.391375
0.472134
0.553181
0.625585
0.681234
0.72207
0.752241
0.774265
0.786761
0.791958
0.793005
0.793103
0.793152
-0.0495745
-0.0366913
0.0102691
0.0685247
0.140594
0.217907
0.298818
0.382385
0.467709
0.55334
0.630062
0.689146
0.731956
0.763332
0.786046
0.799268
0.804685
0.805908
0.80602
0.806059
-0.0754633
-0.0625651
-0.0142826
0.04637
0.121258
0.201645
0.286108
0.373442
0.462865
0.553044
0.634128
0.696
0.740645
0.773363
0.796451
0.810151
0.815927
0.817259
0.817408
0.81742
-0.0994196
-0.0863296
-0.0372511
0.0256574
0.103021
0.186134
0.273701
0.364398
0.457672
0.55214
0.637262
0.701975
0.74855
0.782132
0.805668
0.819874
0.82572
0.827199
0.827339
0.827326
-0.121988
-0.108596
-0.0588118
0.00604981
0.0855086
0.171023
0.26137
0.355164
0.452025
0.550446
0.639547
0.707308
0.755657
0.790302
0.814161
0.828299
0.834376
0.835824
0.83598
0.835931
-0.143243
-0.129696
-0.079254
-0.0127862
0.0684636
0.156173
0.249068
0.345707
0.44584
0.54797
0.641076
0.712031
0.762233
0.797803
0.821971
0.835935
0.84191
0.843242
0.843455
0.843335
-0.163461
-0.149863
-0.0987476
-0.0309293
0.0518542
0.141516
0.236708
0.335907
0.438971
0.544573
0.641694
0.716103
0.768502
0.805277
0.829387
0.842786
0.848547
0.849864
0.849945
0.849834
-0.183023
-0.169093
-0.117487
-0.0485284
0.0355944
0.127
0.224223
0.325673
0.431364
0.540317
0.641505
0.719587
0.774756
0.812679
0.836681
0.849517
0.854514
0.855644
0.855675
0.855593
-0.20226
-0.187667
-0.135609
-0.0656179
0.0196685
0.112564
0.211533
0.314988
0.423124
0.535278
0.640378
0.722435
0.780833
0.820668
0.844569
0.856229
0.860248
0.86076
0.860802
0.860784
-0.221037
-0.205701
-0.153233
-0.0822983
0.0040003
0.0981769
0.198657
0.303923
0.414322
0.529385
0.63824
0.724629
0.786789
0.829145
0.853541
0.864024
0.865927
0.865523
0.865396
0.865245
-0.239345
-0.223352
-0.170404
-0.0985728
-0.0113924
0.0838715
0.185654
0.292548
0.405004
0.522685
0.635091
0.725951
0.792403
0.838414
0.864364
0.873387
0.872644
0.870631
0.870331
0.871282
-0.257014
-0.240545
-0.187116
-0.114459
-0.0264999
0.0697069
0.172618
0.280934
0.395197
0.515188
0.630791
0.726114
0.797583
0.848162
0.877259
0.886043
0.882556
0.8757
0.870822
0.869814
-0.274107
-0.257258
-0.203314
-0.129893
-0.0412431
0.0557671
0.159619
0.269133
0.384958
0.506975
0.625348
0.724852
0.801579
0.858145
0.892277
0.903012
0.899587
0.888608
0.888526
0.892675
-0.290553
-0.273364
-0.218931
-0.144833
-0.055577
0.0421114
0.146733
0.257228
0.374371
0.498106
0.618736
0.721927
0.804135
0.867284
0.908367
0.924405
0.921752
0.892429
0.854137
0.820696
-0.306356
-0.288903
-0.233991
-0.159317
-0.069574
0.0286292
0.133812
0.245047
0.36322
0.488326
0.610771
0.716987
0.804059
0.874661
0.924926
0.949381
0.960712
0.936258
0.953687
1.01493
-0.32143
-0.30386
-0.24857
-0.173499
-0.0834325
0.0150842
0.120585
0.232261
0.351066
0.477075
0.600839
0.709175
0.800342
0.877232
0.933664
0.963032
0.966118
0.939295
0.895725
0.912429
-0.335782
-0.31826
-0.262639
-0.187317
-0.0970664
0.0015763
0.10717
0.218988
0.338013
0.464419
0.588906
0.698285
0.790835
0.87042
0.928157
0.957937
0.939143
0.881191
0.815511
0.802661
-0.349372
-0.332045
-0.276186
-0.200788
-0.110494
-0.0119016
0.0935774
0.205256
0.324107
0.450384
0.574817
0.68386
0.775174
0.850894
0.903445
0.906648
0.867946
0.787727
0.71156
0.686878
-0.362258
-0.345263
-0.289242
-0.213922
-0.123722
-0.0253533
0.0798111
0.19108
0.309375
0.434942
0.558452
0.665733
0.75201
0.816188
0.843945
0.827996
0.765306
0.66146
0.572647
0.548901
-0.374866
-0.358251
-0.302174
-0.227091
-0.137112
-0.0390936
0.0656052
0.176243
0.293655
0.417967
0.53961
0.643182
0.722144
0.770239
0.764081
0.726934
0.612004
0.48746
0.378607
0.350055
-0.388074
-0.371865
-0.315687
-0.240881
-0.151196
-0.0535823
0.0505611
0.160416
0.276679
0.39921
0.517993
0.615978
0.687669
0.710552
0.676621
0.585838
0.427672
0.273339
0.142568
0.113764
-0.402378
-0.386385
-0.330057
-0.255551
-0.166178
-0.0689596
0.034593
0.143556
0.258446
0.378716
0.493564
0.584817
0.6457
0.639781
0.587261
0.43518
0.234228
0.0206967
-0.160121
-0.209642
-0.417927
-0.402046
-0.345389
-0.271085
-0.182
-0.0851815
0.0177289
0.125692
0.239007
0.356553
0.466328
0.551345
0.596981
0.559247
0.471425
0.282566
0.0512132
-0.237602
-0.558366
-0.707463
-0.434764
-0.418785
-0.361751
-0.287624
-0.198771
-0.102335
-0.000104635
0.10676
0.218311
0.33275
0.43662
0.514892
0.5425
0.474304
0.337111
0.131706
-0.101668
-0.444774
-1.02959
-1.6004
-0.453016
-0.43688
-0.379283
-0.305181
-0.21647
-0.120399
-0.0188745
0.086835
0.196518
0.307691
0.40557
0.475526
0.484049
0.399719
0.20789
-0.0249945
-0.226831
-0.460211
-1.01198
-2.51686
-0.472665
-0.45619
-0.398015
-0.323945
-0.235312
-0.139595
-0.0388233
0.0656366
0.173296
0.281018
0.372872
0.43296
0.420657
0.341214
0.114758
-0.122098
-0.269252
-0.305819
-0.294233
-0.679501
-0.493684
-0.477127
-0.418218
-0.344146
-0.25564
-0.160399
-0.0605707
0.042401
0.147711
0.251395
0.337494
0.386971
0.358655
0.291217
0.0652106
-0.135841
-0.245993
-0.253672
-0.200416
-0.240377
-0.515925
-0.499248
-0.439769
-0.365926
-0.277611
-0.182972
-0.0842851
0.0169438
0.119549
0.218714
0.299647
0.339081
0.304205
0.237109
0.0331401
-0.126074
-0.207912
-0.215857
-0.263815
-0.267721
-0.539372
-0.522828
-0.462736
-0.389195
-0.30115
-0.207315
-0.110014
-0.010786
0.0887907
0.183314
0.259138
0.28904
0.256992
0.176242
0.00500602
-0.116648
-0.18629
-0.163661
-0.183945
-0.185572
-0.563709
-0.546897
-0.486799
-0.413948
-0.326191
-0.23338
-0.13769
-0.0406952
0.0555759
0.145514
0.216331
0.235545
0.215978
0.108233
-0.0302143
-0.111733
-0.149918
-0.198417
-0.172684
-0.181287
-0.588894
-0.571668
-0.511986
-0.439912
-0.352431
-0.261003
-0.167143
-0.0725607
0.020021
0.105589
0.172265
0.181093
0.173158
0.0477617
-0.0668766
-0.130288
-0.106779
-0.166708
-0.147626
-0.15256
-0.613707
-0.596325
-0.538027
-0.466843
-0.379601
-0.289961
-0.198085
-0.106088
-0.0176694
0.0639765
0.127908
0.129204
0.121414
-0.00354417
-0.0937247
-0.144286
-0.132803
-0.147551
-0.15308
-0.151238
-0.637969
-0.620735
-0.564393
-0.494001
-0.407288
-0.319923
-0.230148
-0.140855
-0.0569403
0.0210434
0.0838085
0.0814138
0.0638573
-0.045932
-0.107276
-0.138166
-0.177344
-0.148563
-0.154353
-0.148722
-0.660445
-0.643924
-0.589659
-0.520492
-0.435229
-0.350338
-0.262766
-0.176369
-0.0969537
-0.0229215
0.0394095
0.0379805
0.00834192
-0.0813199
-0.121313
-0.113375
-0.186422
-0.129109
-0.144246
-0.136431
-0.680706
-0.66529
-0.613074
-0.545159
-0.46302
-0.380459
-0.29532
-0.211986
-0.136683
-0.067374
-0.0055296
-0.00239146
-0.0371074
-0.100369
-0.129023
-0.0886298
-0.133035
-0.115907
-0.122008
-0.118913
-0.696927
-0.683151
-0.633554
-0.567746
-0.489554
-0.409167
-0.326921
-0.246955
-0.175319
-0.11161
-0.0510454
-0.0403756
-0.0687244
-0.10162
-0.119538
-0.0959422
-0.110214
-0.113782
-0.114691
-0.114916
-0.708474
-0.696866
-0.650579
-0.587315
-0.513116
-0.435686
-0.356753
-0.280373
-0.212027
-0.15432
-0.0955431
-0.0760156
-0.0923236
-0.0968703
-0.11031
-0.123513
-0.114591
-0.118663
-0.116378
-0.117068
-0.713765
-0.704584
-0.662493
-0.602738
-0.532515
-0.458774
-0.383703
-0.311214
-0.246019
-0.193842
-0.136651
-0.111563
-0.121001
-0.0970794
-0.10076
-0.134138
-0.113002
-0.121981
-0.11584
-0.117967
-0.713017
-0.705988
-0.668235
-0.612352
-0.546496
-0.477241
-0.406551
-0.33814
-0.276327
-0.228258
-0.172892
-0.146702
-0.148783
-0.113616
-0.083383
-0.112724
-0.0980376
-0.120022
-0.120152
-0.123512
-0.705156
-0.697838
-0.665154
-0.614966
-0.554381
-0.490002
-0.424104
-0.359787
-0.301304
-0.255942
-0.203564
-0.178429
-0.175623
-0.142199
-0.0777929
-0.0853348
-0.105405
-0.121567
-0.126471
-0.128923
-0.684738
-0.676332
-0.651814
-0.608974
-0.554696
-0.496054
-0.435212
-0.374598
-0.318647
-0.274597
-0.225554
-0.204479
-0.218427
-0.281339
-0.383734
-0.461958
-0.475904
-0.443854
-0.409189
-0.384764
-0.642173
-0.634196
-0.625394
-0.594843
-0.548648
-0.495874
-0.439916
-0.381919
-0.326491
-0.28169
-0.234309
-0.204362
-0.290056
-0.444598
-0.683463
-0.827613
-0.838046
-0.809605
-0.764825
-0.713131
-0.600917
-0.597985
-0.597114
-0.573338
-0.536413
-0.490209
-0.437831
-0.381155
-0.323257
-0.273323
-0.224199
-0.158065
-0.160851
-0.212672
-0.309638
-0.317311
-0.24152
-0.172449
-0.103868
-0.0626372
-0.578686
-0.580314
-0.570313
-0.555761
-0.525774
-0.483043
-0.431928
-0.374808
-0.310862
-0.246314
-0.183937
-0.0630072
0.0916656
0.335814
0.572834
0.78006
0.93358
1.0246
1.066
1.10256
-0.547388
-0.547144
-0.54385
-0.541958
-0.516625
-0.47619
-0.424318
-0.364374
-0.293922
-0.212075
-0.125133
0.0145592
0.233819
0.567619
0.901237
1.1764
1.36683
1.48223
1.53974
1.55883
-0.534537
-0.532694
-0.535386
-0.529079
-0.510784
-0.472825
-0.41923
-0.354762
-0.278422
-0.184756
-0.0816748
0.0486556
0.285564
0.606568
0.927328
1.19896
1.39914
1.51948
1.57265
1.5879
-0.522362
-0.521239
-0.524765
-0.517905
-0.507701
-0.469458
-0.414913
-0.348037
-0.268329
-0.169203
-0.0608905
0.0444075
0.263051
0.538465
0.811077
1.04679
1.22978
1.33951
1.38759
1.40103
-0.507554
-0.507532
-0.50869
-0.507057
-0.503855
-0.466506
-0.412962
-0.345351
-0.264668
-0.166254
-0.0619105
0.0175817
0.199398
0.431228
0.651236
0.839859
0.990511
1.08188
1.12136
1.13132
-0.492333
-0.492276
-0.490251
-0.490506
-0.4872
-0.463127
-0.415365
-0.347373
-0.267709
-0.174583
-0.075919
-0.0144607
0.126367
0.319753
0.494052
0.637553
0.752164
0.822766
0.852809
0.860474
-0.489739
-0.487695
-0.481812
-0.479876
-0.475005
-0.461655
-0.417399
-0.349834
-0.272928
-0.188382
-0.0951047
-0.0432473
0.0581218
0.21581
0.35265
0.460112
0.544108
0.596923
0.618614
0.622977
-0.509236
-0.506301
-0.502862
-0.503744
-0.50185
-0.484287
-0.424176
-0.352039
-0.275703
-0.200603
-0.11369
-0.0662222
0.00133503
0.126281
0.23269
0.313005
0.374474
0.41371
0.428773
0.433849
-0.552888
-0.554127
-0.558076
-0.567476
-0.561461
-0.520137
-0.436337
-0.354168
-0.274939
-0.207493
-0.128317
-0.0833558
-0.0395542
0.0578291
0.138359
0.197425
0.243581
0.274357
0.284793
0.287847
-0.566562
-0.571189
-0.583001
-0.595577
-0.583923
-0.524679
-0.433229
-0.347512
-0.267415
-0.205998
-0.136507
-0.0946424
-0.0653889
0.0116108
0.0708006
0.112608
0.147247
0.169117
0.178401
0.181065
-0.48677
-0.492171
-0.509174
-0.518806
-0.511645
-0.462809
-0.390887
-0.318532
-0.248018
-0.193452
-0.1369
-0.100121
-0.0784903
-0.0180645
0.024266
0.0538576
0.0773664
0.0913957
0.0977502
0.0994061
-0.331181
-0.337443
-0.345209
-0.351719
-0.350124
-0.330153
-0.296779
-0.257443
-0.210646
-0.169088
-0.129291
-0.100051
-0.0809027
-0.0370073
-0.00736459
0.013033
0.027722
0.0358106
0.0387038
0.0387161
-0.173554
-0.176204
-0.180811
-0.187614
-0.192568
-0.193026
-0.18871
-0.178991
-0.158818
-0.136963
-0.113649
-0.0936207
-0.0767965
-0.0480508
-0.028529
-0.0155531
-0.00728689
-0.00388889
-0.00361923
-0.00451276
-0.0522197
-0.0536452
-0.056945
-0.0642604
-0.0749428
-0.0871927
-0.0988045
-0.106779
-0.105939
-0.101927
-0.0917102
-0.0807368
-0.0688527
-0.0517299
-0.0407055
-0.0340489
-0.0308389
-0.0307175
-0.0321849
-0.0334679
0.0217193
0.0207275
0.0183207
0.0107771
-0.00331127
-0.0213518
-0.0389186
-0.0535863
-0.0624393
-0.06934
-0.0676244
-0.0630542
-0.0587157
-0.0501569
-0.0457309
-0.0443203
-0.0447517
-0.0467332
-0.0488868
-0.0502532
0.0564831
0.0558384
0.053933
0.0471026
0.0332217
0.0143708
-0.00445993
-0.0211958
-0.033453
-0.0441225
-0.046477
-0.0463906
-0.0477988
-0.0455759
-0.0457398
-0.0476077
-0.0502965
-0.0533526
-0.0555814
-0.0569026
0.0680758
0.0675571
0.0659806
0.0603413
0.0486161
0.0319772
0.0143058
-0.00266581
-0.0159391
-0.0272339
-0.0307819
-0.033623
-0.0376716
-0.0392799
-0.0424128
-0.0461425
-0.049698
-0.0528203
-0.0548314
-0.0560451
0.0671222
0.0667444
0.0655185
0.061196
0.0521319
0.0389239
0.0239566
0.00826894
-0.00473632
-0.0161336
-0.0201741
-0.0242632
-0.0290051
-0.0325198
-0.0369458
-0.0413756
-0.0450527
-0.0478759
-0.0495068
-0.0505673
0.0604193
0.0601689
0.0592727
0.056115
0.0494135
0.039483
0.0277284
0.0145422
0.00308731
-0.0080992
-0.0128056
-0.0169616
-0.0217338
-0.0257726
-0.0305638
-0.0348927
-0.038208
-0.0406321
-0.0418461
-0.0427527
0.0516143
0.051458
0.0508109
0.0485853
0.0438102
0.0365399
0.0276561
0.0172236
0.00813555
-0.00208145
-0.00718275
-0.0107988
-0.0152798
-0.0193789
-0.0239551
-0.02786
-0.0307504
-0.0327897
-0.0336387
-0.0343964
0.0425946
0.0425153
0.042069
0.0405372
0.0372146
0.0320555
0.0255364
0.017491
0.0107068
0.002067
-0.00267113
-0.00558039
-0.00953095
-0.0133911
-0.0177133
-0.0213143
-0.0238929
-0.0256609
-0.0262774
-0.0268992
0.0340314
0.0340016
0.0337078
0.0327038
0.0304352
0.0268075
0.0221464
0.0160888
0.0113297
0.00452351
0.000856448
-0.00153184
-0.00506185
-0.00855839
-0.0124498
-0.015604
-0.0178887
-0.0194759
-0.0199443
-0.0204358
0.0262089
0.0261906
0.0259875
0.0253311
0.0238191
0.0213244
0.0180126
0.0134791
0.0103368
0.0052212
0.00282756
0.0011565
-0.00202737
-0.00511097
-0.00841731
-0.0110151
-0.0128999
-0.0142049
-0.0145761
-0.0149827
0.0192463
0.019237
0.0191009
0.01869
0.017718
0.0160926
0.0138519
0.0105158
0.00852105
0.00466016
0.00316334
0.00208124
-0.000504283
-0.00289307
-0.00553833
-0.00750832
-0.00888065
-0.00981199
-0.0100608
-0.0104035
0.0130253
0.0130134
0.0129436
0.0127246
0.012164
0.011188
0.00988215
0.00757422
0.00649028
0.00348575
0.00253147
0.00186062
-0.000161182
-0.00166746
-0.00362039
-0.00497817
-0.00585347
-0.00646759
-0.00668541
-0.00697574
0.00738115
0.00736579
0.00734491
0.00729327
0.00706477
0.00657703
0.00602384
0.00454043
0.0042409
0.00200334
0.00153622
0.0012114
-0.000337481
-0.000775182
-0.0022747
-0.0032176
-0.00374406
-0.00412153
-0.00413844
-0.00433581
0.00244198
0.00246593
0.0025051
0.00255938
0.00256645
0.00238517
0.0023379
0.00151958
0.00179924
0.000497458
0.00064334
0.000805215
-0.000196314
5.3064e-05
-0.00142744
-0.00225652
-0.00299853
-0.00354303
-0.00332536
-0.00332255
-1.07329
-0.236804
0.033122
0.308126
0.487997
0.641945
0.765196
0.89102
1.0306
1.11481
-0.0964057
0.308666
0.323683
0.51096
0.632938
0.742383
0.836292
0.920179
0.94713
0.905593
0.277502
0.490111
0.523764
0.659498
0.743963
0.822567
0.887447
0.936205
0.93803
0.952411
0.504925
0.646557
0.681124
0.781647
0.83817
0.89485
0.939208
0.971305
0.98024
1.00402
0.681253
0.781602
0.81129
0.877868
0.922214
0.962588
0.994439
1.0186
1.02829
1.05995
0.823421
0.891618
0.921805
0.964176
1.00002
1.02987
1.05398
1.07469
1.08873
1.11709
0.941864
0.992088
1.01752
1.04525
1.0727
1.09634
1.11621
1.13544
1.15027
1.17683
1.04519
1.08203
1.103
1.12352
1.14419
1.16351
1.18087
1.19897
1.21384
1.23752
1.13891
1.16793
1.18421
1.19942
1.21547
1.2315
1.24703
1.26393
1.27755
1.29988
1.22703
1.24745
1.26227
1.27541
1.28896
1.30272
1.31621
1.3308
1.34234
1.36199
1.3124
1.32817
1.34198
1.35379
1.3657
1.37733
1.38847
1.40015
1.40782
1.42462
1.39761
1.41015
1.42386
1.4356
1.44624
1.45603
1.46486
1.47312
1.47668
1.48791
1.48635
1.49718
1.51065
1.52017
1.52774
1.53503
1.54222
1.54869
1.54979
1.55715
1.58476
1.58937
1.59756
1.6023
1.60569
1.61017
1.61616
1.62382
1.62773
1.6376
1.69805
1.68494
1.67765
1.67194
1.66921
1.67055
1.67688
1.68925
1.70407
1.73374
1.82003
1.76399
1.73297
1.71577
1.70755
1.70748
1.71633
1.73595
1.76774
1.83701
)
;

boundaryField
{
    wall-4
    {
        type            zeroGradient;
    }
    pressure-outlet-7
    {
        type            fixedValue;
        value           uniform 0;
    }
    velocity-inlet-6
    {
        type            zeroGradient;
    }
    velocity-inlet-5
    {
        type            zeroGradient;
    }
    frontAndBackPlanes
    {
        type            empty;
    }
}


// ************************************************************************* //
