/*--------------------------------*- C++ -*----------------------------------*\
  =========                 |
  \\      /  F ield         | OpenFOAM: The Open Source CFD Toolbox
   \\    /   O peration     | Website:  https://openfoam.org
    \\  /    A nd           | Version:  10
     \\/     M anipulation  |
\*---------------------------------------------------------------------------*/
FoamFile
{
    format      ascii;
    class       surfaceScalarField;
    location    "62";
    object      phi;
}
// * * * * * * * * * * * * * * * * * * * * * * * * * * * * * * * * * * * * * //

dimensions      [0 3 -1 0 0 0 0];

internalField   nonuniform List<scalar> 
4262
(
0.107129
0.470859
0.0955523
0.705163
0.0693513
0.858504
0.0473202
1.02079
0.0309304
1.21491
0.019723
1.44943
0.0123169
1.73327
0.0070959
2.07626
0.00308511
2.48925
-0.000652363
2.98603
-0.00422382
2.98586
-0.00799279
2.48901
-0.0130399
2.07608
-0.0201977
1.73302
-0.0311239
1.44915
-0.0471651
1.21456
-0.0688988
1.0205
-0.0951751
0.858579
-0.107059
0.70547
0.470929
0.112876
0.357983
0.135294
0.682745
0.120412
0.873386
0.09787
1.04334
0.0746165
1.23816
0.0528736
1.47117
0.0344496
1.75169
0.0202161
2.09049
0.00899559
2.50047
-0.000923373
2.99595
-0.0111067
2.99605
-0.0223205
2.50023
-0.0363511
2.09011
-0.054686
1.75136
-0.0765435
1.471
-0.100333
1.23835
-0.123559
1.04372
-0.137042
0.872061
-0.11357
0.681998
0.357359
0.092045
0.265938
0.124968
0.649822
0.121096
0.877258
0.104836
1.0596
0.0862069
1.25679
0.067081
1.4903
0.0481287
1.77065
0.0300776
2.10854
0.013484
2.51707
-0.00263321
3.01207
-0.0183794
3.01179
-0.0343465
2.51619
-0.051862
2.10763
-0.0702223
1.76972
-0.0885118
1.48929
-0.105671
1.25551
-0.119722
1.05777
-0.125187
0.877527
-0.0923354
0.649146
0.265024
0.0639813
0.201957
0.104808
0.608995
0.106579
0.875487
0.0951794
1.071
0.0812374
1.27073
0.0664912
1.50504
0.0503608
1.78678
0.0331862
2.12572
0.0155135
2.53474
-0.00307279
3.03065
-0.0215802
3.0303
-0.0389561
2.53357
-0.0554167
2.12409
-0.070712
1.78501
-0.0845917
1.50317
-0.0983237
1.26924
-0.110087
1.06954
-0.107085
0.874526
-0.0649278
0.606989
0.200096
0.0374873
0.164469
0.0807319
0.565751
0.091015
0.865204
0.0838108
1.0782
0.0711857
1.28336
0.0593005
1.51693
0.0462581
1.79982
0.0313122
2.14066
0.0143488
2.5517
-0.00500683
3.05001
-0.0237278
3.04902
-0.039562
2.5494
-0.0534234
2.13795
-0.0654739
1.79706
-0.0767004
1.5144
-0.0886453
1.28118
-0.0950485
1.07594
-0.0832226
0.8627
-0.0384055
0.562172
0.16169
0.0194593
0.14501
0.0571811
0.528029
0.0725564
0.849829
0.0704455
1.08031
0.0616379
1.29216
0.0507669
1.5278
0.0395946
1.81099
0.0269192
2.15334
0.0118375
2.56679
-0.00567789
3.06752
-0.0229864
3.06633
-0.0374392
2.56386
-0.0490223
2.14953
-0.0590033
1.80704
-0.0688732
1.52427
-0.0764878
1.2888
-0.0772496
1.0767
-0.0600548
0.845505
-0.0203874
0.522504
0.141303
0.0106028
0.134407
0.0423
0.496332
0.0583888
0.83374
0.0586613
1.08004
0.0525124
1.29831
0.0431308
1.53718
0.0327246
1.8214
0.0213528
2.16471
0.00801933
2.58012
-0.00811837
3.08366
-0.0236057
3.08182
-0.0354083
2.57566
-0.0451525
2.15928
-0.0539679
1.81586
-0.0618131
1.53211
-0.0663418
1.29333
-0.0644103
1.07477
-0.0459826
0.827077
-0.0117319
0.488254
0.129571
0.00656888
0.127838
0.0329353
0.469966
0.0491897
0.817485
0.0506813
1.07855
0.0455679
1.30343
0.0371887
1.54556
0.027547
1.83104
0.0166484
2.17561
0.00458155
2.59219
-0.00924272
3.09749
-0.0225903
3.09517
-0.0335471
2.58662
-0.0428017
2.16853
-0.0505028
1.82356
-0.0570082
1.53862
-0.0601765
1.29649
-0.0564771
1.07107
-0.037295
0.807895
-0.00788822
0.458847
0.121683
0.00470435
0.123134
0.0265232
0.448147
0.0422958
0.801713
0.0443591
1.07648
0.0396881
1.3081
0.0320098
1.55324
0.0228498
1.8402
0.0122423
2.18622
0.000449422
2.60398
-0.0126183
3.11055
-0.0246164
3.10716
-0.0342322
2.59623
-0.042362
2.17666
-0.0492457
1.83044
-0.054642
1.54402
-0.0568796
1.29873
-0.0517813
1.06597
-0.0320534
0.788167
-0.006383
0.433176
0.1153
0.00374145
0.119393
0.0216739
0.430214
0.0368245
0.786562
0.0395683
1.07374
0.0351516
1.31251
0.0276959
1.56069
0.0188489
1.84905
0.00883592
2.19623
-0.00232122
2.61514
-0.0145019
3.12273
-0.0258566
3.11852
-0.035253
2.60563
-0.0428224
2.18423
-0.0488205
1.83644
-0.0535369
1.54873
-0.0547307
1.29993
-0.0483368
1.05958
-0.0283575
0.768188
-0.0057884
0.410607
0.109511
0.00303607
0.116357
0.0174914
0.415759
0.0313795
0.772674
0.0343145
1.0708
0.0301784
1.31665
0.0230582
1.56781
0.0144497
1.85765
0.00431869
2.20636
-0.00719057
2.62665
-0.0193604
3.1349
-0.0301469
3.1293
-0.0381658
2.61365
-0.0445844
2.19065
-0.0498904
1.84175
-0.0536273
1.55247
-0.0537188
1.30002
-0.0458618
1.05172
-0.0256762
0.748003
-0.00553142
0.390462
0.10398
0.00235884
0.113998
0.0138023
0.404315
0.0263573
0.760119
0.0294366
1.06773
0.0254037
1.32068
0.0182903
1.57493
0.00977864
1.86617
0.000176334
2.21596
-0.0104866
2.63731
-0.0223617
3.14678
-0.0330728
3.14002
-0.0413183
2.62189
-0.0472164
2.19655
-0.0513475
1.84588
-0.0539974
1.55512
-0.0533245
1.29934
-0.0440734
1.04247
-0.0237836
0.727713
-0.00541446
0.372093
0.0985656
0.00170056
0.112297
0.010534
0.395482
0.0213361
0.749317
0.0239183
1.06514
0.019796
1.3248
0.0127468
1.58198
0.00415804
1.87476
-0.00583827
2.22596
-0.017192
2.64866
-0.0291761
3.15876
-0.0390238
3.14986
-0.0454444
2.62831
-0.0500646
2.20117
-0.0536601
1.84947
-0.0553791
1.55684
-0.0537431
1.29771
-0.0431617
1.03189
-0.0225618
0.707113
-0.00534174
0.354873
0.0932239
0.000817002
0.11148
0.00702423
0.389275
0.0161278
0.740213
0.0183427
1.06293
0.0139335
1.32921
0.00652035
1.58939
-0.00225839
1.88353
-0.0120298
2.23573
-0.022653
2.65929
-0.033907
3.17002
-0.0435802
3.15954
-0.0501602
2.63489
-0.0541032
2.20511
-0.0567133
1.85208
-0.0574115
1.55754
-0.0548074
1.2951
-0.0428587
1.01994
-0.0218482
0.686102
-0.00531924
0.338344
0.0879046
0.000137558
0.111343
0.00418512
0.385227
0.0109119
0.733487
0.011863
1.06198
0.00686637
1.33421
-0.000960869
1.59722
-0.0103463
1.89292
-0.0208022
2.24619
-0.0320909
2.67057
-0.0434996
3.18143
-0.0518735
3.16791
-0.0564061
2.63943
-0.0592568
2.20796
-0.061211
1.85404
-0.0611219
1.55745
-0.0569301
1.29091
-0.0433158
1.00633
-0.0216387
0.664425
-0.00537292
0.322078
0.0825317
-0.000835272
0.112178
0.000491263
0.383901
0.00525144
0.728727
0.00553889
1.06169
4.7399e-05
1.3397
-0.00850977
1.60577
-0.0184285
1.90284
-0.0290877
2.25684
-0.0402236
2.68171
-0.0510873
3.19229
-0.0592687
3.17609
-0.063908
2.64406
-0.0659253
2.20998
-0.0669437
1.85506
-0.0658415
1.55634
-0.0600173
1.28509
-0.0445498
0.990859
-0.0219317
0.641807
-0.00552128
0.305668
0.0770104
-0.00168973
0.113868
-0.0025754
0.384786
-0.000686672
0.726838
-0.00242489
1.06343
-0.00905424
1.34633
-0.0184764
1.6152
-0.0294773
1.91384
-0.0415057
2.26887
-0.05366
2.69386
-0.064482
3.20311
-0.0712395
3.18285
-0.0743471
2.64717
-0.0755096
2.21114
-0.0750927
1.85464
-0.0722617
1.55351
-0.0644588
1.27729
-0.046796
0.973197
-0.0227953
0.617807
-0.00580255
0.288675
0.0712079
-0.00306503
0.116933
-0.00635355
0.388075
-0.00808435
0.728569
-0.0113733
1.06672
-0.018847
1.35381
-0.0291558
1.6255
-0.0408299
1.92551
-0.0531481
2.28119
-0.0654076
2.70612
-0.0763699
3.21407
-0.083158
3.18964
-0.0855672
2.64958
-0.0851799
2.21076
-0.0838395
1.8533
-0.0801684
1.54984
-0.0702093
1.26733
-0.0499651
0.952952
-0.0241564
0.591998
-0.00618335
0.270702
0.0650245
-0.00434927
0.121282
-0.0105557
0.394281
-0.0156425
0.733655
-0.0218526
1.07293
-0.0308922
1.36284
-0.0427415
1.63735
-0.0560481
1.93882
-0.070409
2.29555
-0.0844279
2.72014
-0.0952243
3.22487
-0.0998391
3.19425
-0.100553
2.6503
-0.0997437
2.20995
-0.096529
1.85009
-0.090319
1.54363
-0.07775
1.25476
-0.0543125
0.929515
-0.0260649
0.56375
-0.00667895
0.251316
0.0583456
-0.00579148
0.127073
-0.0155877
0.404077
-0.0247613
0.742829
-0.0339372
1.0821
-0.0450474
1.37396
-0.0587747
1.65108
-0.0736137
1.95366
-0.0884565
2.3104
-0.101962
2.73365
-0.112857
3.23576
-0.118179
3.19957
-0.118119
2.65024
-0.114319
2.20615
-0.109707
1.84547
-0.102417
1.53634
-0.0866071
1.23895
-0.0594014
0.902309
-0.0282658
0.532615
-0.00718392
0.230234
0.0511617
-0.00810491
0.135178
-0.0223604
0.418333
-0.0367385
0.757207
-0.0492593
1.09462
-0.0623493
1.38705
-0.0781281
1.66686
-0.0951198
1.97065
-0.112673
2.32795
-0.12896
2.74994
-0.140219
3.24702
-0.14198
3.20134
-0.138961
2.64722
-0.13484
2.20202
-0.128126
1.83876
-0.117296
1.52551
-0.0977968
1.21945
-0.0659341
0.870447
-0.0309349
0.497616
-0.00775304
0.207052
0.0434086
-0.0105406
0.145719
-0.0296233
0.437416
-0.0500436
0.777627
-0.0675891
1.11217
-0.0842577
1.40371
-0.103131
1.68573
-0.122876
1.99039
-0.141515
2.34659
-0.156287
2.76471
-0.164766
3.2555
-0.166704
3.20327
-0.163082
2.64359
-0.155529
2.19447
-0.14694
1.83017
-0.134155
1.51273
-0.109791
1.19508
-0.0724739
0.83313
-0.0334463
0.458588
-0.00819217
0.181798
0.0352165
-0.0152869
0.161006
-0.0419811
0.46411
-0.0694467
0.805093
-0.0918657
1.13459
-0.111957
1.4238
-0.134204
1.70798
-0.156266
2.01246
-0.176813
2.36713
-0.19344
2.78133
-0.203241
3.2653
-0.20147
3.2015
-0.193039
2.63516
-0.183911
2.18534
-0.171964
1.81822
-0.154039
1.4948
-0.124306
1.16535
-0.0805045
0.789328
-0.0361338
0.414217
-0.00857372
0.154238
0.0266427
-0.0193563
0.180362
-0.0546777
0.499431
-0.0917473
0.842162
-0.122061
1.1649
-0.148271
1.45001
-0.175043
1.73475
-0.200107
2.03752
-0.221342
2.38837
-0.235594
2.79559
-0.238644
3.26835
-0.232479
3.19534
-0.223146
2.62583
-0.210921
2.17312
-0.196938
1.80424
-0.176015
1.47388
-0.139026
1.12836
-0.0871915
0.737493
-0.0378628
0.364888
-0.00853
0.124905
0.0181127
-0.032613
0.212975
-0.0818094
0.548628
-0.129622
0.889975
-0.16633
1.20161
-0.197697
1.48138
-0.22852
1.76558
-0.254322
2.06332
-0.274238
2.40829
-0.28572
2.80707
-0.287108
3.26974
-0.278054
3.18628
-0.263277
2.61105
-0.24772
2.15756
-0.228986
1.78551
-0.200338
1.44523
-0.155122
1.08315
-0.0949228
0.677294
-0.039639
0.309605
-0.00840765
0.0936741
0.00970508
-0.0470008
0.259976
-0.120723
0.62235
-0.184416
0.953668
-0.230009
1.2472
-0.267624
1.519
-0.298965
1.79692
-0.322267
2.08663
-0.338253
2.42427
-0.344792
2.81361
-0.338427
3.26338
-0.320381
3.16824
-0.300974
2.59165
-0.281284
2.13787
-0.258663
1.76289
-0.224878
1.41145
-0.169181
1.02745
-0.0979163
0.606029
-0.0386561
0.250344
-0.00816962
0.0631876
0.00153546
-0.033999
0.293975
-0.0976178
0.685969
-0.156275
1.01232
-0.204029
1.29496
-0.247434
1.5624
-0.286528
1.83601
-0.323154
2.12325
-0.356133
2.45725
-0.381282
2.83876
-0.394699
3.27679
-0.395216
3.16875
-0.385145
2.58157
-0.368062
2.12079
-0.340027
1.73485
-0.287354
1.35877
-0.205059
0.945155
-0.110588
0.511558
-0.042041
0.181797
-0.00945074
0.0305974
-0.00791528
-0.0126226
0.306598
-0.0476257
0.720972
-0.0897786
1.05448
-0.129578
1.33475
-0.169096
1.60192
-0.204306
1.87122
-0.237005
2.15595
-0.265225
2.48547
-0.285643
2.85917
-0.294501
3.28565
-0.287021
3.16128
-0.268388
2.56294
-0.244033
2.09643
-0.210473
1.70129
-0.166147
1.31445
-0.107129
0.886138
-0.0491145
0.453544
-0.0180714
0.150754
-0.00439321
0.0169191
-0.0123085
0.000128097
0.306469
-0.0245258
0.745626
-0.0540668
1.08402
-0.0844971
1.36518
-0.116479
1.6339
-0.147459
1.9022
-0.176057
2.18455
-0.199889
2.5093
-0.215604
2.87489
-0.218147
3.28819
-0.203049
3.14618
-0.180659
2.54055
-0.155721
2.0715
-0.127247
1.67282
-0.0877472
1.27495
-0.0442486
0.842639
-0.0146512
0.423946
-0.00501102
0.141114
-0.00165818
0.0135663
-0.0139667
0.000673796
0.305796
-0.0129958
0.759295
-0.0342861
1.10531
-0.0588575
1.38976
-0.084928
1.65997
-0.111032
1.92831
-0.135317
2.20883
-0.155497
2.52948
-0.167844
2.88724
-0.166202
3.28655
-0.14983
3.12981
-0.126831
2.51755
-0.0989458
2.04361
-0.0654811
1.63935
-0.0332581
1.24272
-0.00733495
0.816716
0.00445759
0.412154
0.00319777
0.142374
0.000471686
0.0162924
-0.013495
0.00445659
0.301339
-0.00439812
0.76815
-0.0225569
1.12347
-0.0434943
1.41069
-0.0654025
1.68188
-0.0872988
1.9502
-0.108018
2.22955
-0.124674
2.54614
-0.133346
2.89591
-0.129529
3.28273
-0.112772
3.11305
-0.0883211
2.4931
-0.0600921
2.01538
-0.0333892
1.61265
-0.00491077
1.21425
0.0154577
0.796348
0.0171707
0.410441
0.0092388
0.150306
0.00231294
0.0232182
-0.011182
0.00520161
0.296137
-0.000708911
0.774061
-0.0162851
1.13904
-0.0344098
1.42882
-0.0535895
1.70106
-0.0727554
1.96937
-0.090623
2.24742
-0.105065
2.56058
-0.112817
2.90366
-0.108258
3.27818
-0.0898777
3.09467
-0.0663426
2.46957
-0.0398739
1.98891
-0.0101634
1.58294
0.0118434
1.19224
0.0228134
0.785378
0.0216148
0.411639
0.0117045
0.160216
0.00313735
0.0317854
-0.00804469
0.00447284
0.291665
0.000513281
0.77802
-0.0127041
1.15226
-0.0292619
1.44538
-0.0464499
1.71825
-0.0635314
1.98645
-0.0797952
2.26368
-0.0931442
2.57393
-0.0999718
2.91049
-0.0950221
3.27323
-0.078763
3.07841
-0.0550085
2.44581
-0.0278234
1.96173
-0.00552919
1.56064
0.0150271
1.17168
0.0262478
0.774157
0.0223493
0.415538
0.0122166
0.170349
0.00342
0.040582
-0.00462469
0.00269325
0.288971
-0.000734598
0.781448
-0.0121631
1.16369
-0.0266226
1.45984
-0.0425499
1.73418
-0.0586863
2.00259
-0.0740565
2.27905
-0.0867152
2.58659
-0.0932025
2.91698
-0.0885538
3.26858
-0.0715852
3.06144
-0.0495593
2.42379
-0.0276833
1.93985
-0.00235653
1.53532
0.0153073
1.15402
0.0226209
0.766843
0.0202069
0.417952
0.0111945
0.179361
0.00326779
0.0485087
-0.0013569
0.00103351
0.287938
-0.00189124
0.784373
-0.0125108
1.17431
-0.026033
1.47336
-0.0410465
1.74919
-0.0561149
2.01765
-0.0706965
2.29363
-0.0829746
2.59887
-0.089776
2.92378
-0.0872155
3.26602
-0.073033
3.04726
-0.0520105
2.40276
-0.0275498
1.91539
-0.00845672
1.51622
0.00871091
1.13685
0.0187796
0.756775
0.0161883
0.420543
0.00919722
0.186352
0.00273766
0.0549683
0.00138076
-0.000487026
0.288425
-0.00495667
0.788842
-0.014203
1.18356
-0.0262222
1.48538
-0.0403178
1.76328
-0.0550026
2.03234
-0.0694556
2.30809
-0.082131
2.61154
-0.0900962
2.93174
-0.0888266
3.26475
-0.074452
3.03288
-0.0555958
2.38391
-0.0369731
1.89677
-0.0142714
1.49352
0.00243981
1.12014
0.0097912
0.749423
0.0107834
0.419551
0.00628664
0.190849
0.00204852
0.0592064
0.00342928
-0.00151146
0.289936
-0.00627498
0.793606
-0.0155278
1.19281
-0.0272859
1.49714
-0.0407898
1.77679
-0.0547864
2.04634
-0.0689618
2.32226
-0.0819253
2.62451
-0.0907393
2.94056
-0.0914673
3.26547
-0.0807056
3.02212
-0.0622885
2.36549
-0.0402046
1.87468
-0.0236133
1.47693
-0.00797673
1.1045
0.00331429
0.738132
0.0050035
0.417862
0.003562
0.192291
0.00135182
0.0614166
0.00478111
-0.00308262
0.293019
-0.00859002
0.799113
-0.017266
1.20148
-0.0281147
1.50798
-0.0409236
1.7896
-0.0547779
2.06019
-0.0692221
2.33671
-0.0829453
2.63823
-0.0933187
2.95093
-0.0963646
3.26852
-0.0866344
3.01239
-0.0696461
2.3485
-0.0523773
1.85742
-0.0310486
1.4556
-0.0150308
1.08849
-0.0054481
0.72855
-9.64212e-05
0.41251
0.00069007
0.191504
0.000505109
0.0616015
0.00528622
-0.00386045
0.296879
-0.00937137
0.804624
-0.0182288
1.21034
-0.0291684
1.51892
-0.0417443
1.80217
-0.0551763
2.07362
-0.0695035
2.35103
-0.0836402
2.65237
-0.0952616
2.96255
-0.100504
3.27376
-0.0940364
3.00592
-0.0785073
2.33297
-0.0565979
1.83551
-0.0396379
1.43864
-0.0231092
1.07196
-0.00966591
0.715106
-0.00413268
0.406977
-0.000951901
0.188323
7.10904e-05
0.0605785
0.00535731
-0.00427146
0.301151
-0.0107806
0.811133
-0.0194011
1.21896
-0.0296686
1.52919
-0.0417525
1.81426
-0.0551321
2.087
-0.0697572
2.36566
-0.084637
2.66725
-0.097853
2.97577
-0.105621
3.28153
-0.10177
3.00207
-0.0872368
2.31844
-0.0690704
1.81734
-0.0456183
1.41519
-0.0270399
1.05338
-0.01462
0.702686
-0.00619219
0.398549
-0.00202375
0.184155
-0.000270111
0.0588249
0.0050872
-0.004246
0.305397
-0.0108798
0.817767
-0.0197197
1.2278
-0.0301573
1.53963
-0.0421722
1.82627
-0.0552376
2.10007
-0.0697242
2.38015
-0.0849892
2.68251
-0.0996021
2.99038
-0.110002
3.29193
-0.109329
3.0014
-0.0958579
2.30497
-0.072983
1.79447
-0.0520306
1.39424
-0.0308981
1.03225
-0.0140186
0.685807
-0.00627997
0.39081
-0.00197711
0.179852
-0.000537255
0.057385
0.00454994
-0.00442456
0.309821
-0.0116669
0.82501
-0.0202372
1.23637
-0.0300876
1.54948
-0.0416356
1.83782
-0.0546164
2.11305
-0.0693552
2.39488
-0.085308
2.69846
-0.101266
3.00634
-0.113822
3.30449
-0.115659
3.00324
-0.104428
2.29374
-0.0859199
1.77596
-0.0567628
1.36508
-0.030804
1.00629
-0.0129806
0.667983
-0.00146783
0.379298
0.00193003
0.176454
0.00141607
0.057899
0.00596601
-0.00438406
0.314206
-0.0114048
0.83203
-0.0199805
1.24495
-0.0299361
1.55943
-0.0414151
1.8493
-0.0541236
2.12576
-0.0686979
2.40946
-0.0849058
2.71467
-0.102012
3.02345
-0.117204
3.31968
-0.122846
3.00888
-0.113522
2.28441
-0.0902749
1.75271
-0.0628034
1.33761
-0.0303342
0.973818
-0.004761
0.64241
0.00753539
0.367001
0.00634579
0.177644
-0.00103057
0.0652754
0.00493545
-0.00450803
0.318714
-0.011786
0.839308
-0.0199947
1.25316
-0.0293524
1.56879
-0.040325
1.86027
-0.0528802
2.13831
-0.0676006
2.42418
-0.0843236
2.73139
-0.102451
3.04157
-0.119345
3.33657
-0.127589
3.01712
-0.121782
2.27861
-0.104404
1.73533
-0.0688594
1.30207
-0.0278529
0.932812
0.00839047
0.606167
0.0351943
0.340197
0.0432779
0.16956
0.0275352
0.0810181
0.0324707
-0.0043564
0.32307
-0.0112522
0.846204
-0.0193427
1.26125
-0.0287
1.57815
-0.0395496
1.87112
-0.0518197
2.15058
-0.0662865
2.43865
-0.0830688
2.74818
-0.101995
3.0605
-0.121175
3.35575
-0.132894
3.02884
-0.131198
2.27691
-0.1103
1.71444
-0.0771535
1.26892
-0.028305
0.883963
0.0197758
0.558086
0.0582885
0.301685
0.0518265
0.176022
0.0227228
0.110122
0.0551934
-0.00428935
0.327359
-0.0113068
0.853222
-0.0190093
1.26895
-0.0277468
1.58689
-0.038083
1.88146
-0.0501132
2.16261
-0.0645929
2.45313
-0.0817009
2.76528
-0.101328
3.08013
-0.121829
3.37625
-0.135508
3.04252
-0.138098
2.2795
-0.126269
1.70261
-0.0888458
1.23149
-0.034308
0.829426
0.0372959
0.486482
0.13441
0.204571
0.201644
0.108788
0.184542
0.127224
0.239735
-0.00411239
0.331472
-0.010793
0.859902
-0.0185448
1.2767
-0.0275619
1.5959
-0.0382875
1.89218
-0.0507623
2.17509
-0.0660063
2.46837
-0.0845231
2.7838
-0.106723
3.10233
-0.131903
3.40143
-0.152254
3.06287
-0.160871
2.28812
-0.147441
1.68918
-0.114031
1.19809
-0.0499844
0.765379
0.00856781
0.42793
-0.053821
0.266959
-0.354809
0.409777
-0.944263
0.716678
0.901567
-1.60609
-0.00399678
0.335468
-0.0107832
0.866689
-0.018264
1.28418
-0.0268795
1.60452
-0.0373171
1.90262
-0.0499146
2.18768
-0.065742
2.4842
-0.0854269
2.80349
-0.109599
3.1265
-0.138063
3.4299
-0.162927
3.08774
-0.176796
2.30198
-0.181552
1.69393
-0.155306
1.17184
-0.121551
0.731624
-0.219786
0.526165
-0.693864
0.741037
-1.45021
1.16612
-2.05586
1.32234
1.21606
-2.37036
-0.00374889
0.339217
-0.0100512
0.872991
-0.0173883
1.29152
-0.0260772
1.61321
-0.0366173
1.91316
-0.0493331
2.2004
-0.0654461
2.50031
-0.0858569
2.8239
-0.111798
3.15244
-0.144241
3.46234
-0.176404
3.1199
-0.199738
2.32532
-0.204651
1.69885
-0.187154
1.15434
-0.272424
0.816894
-0.752995
1.00674
-1.55421
1.54225
-2.11453
1.72644
-2.35256
1.56036
1.32982
-2.46631
-0.00363681
0.342854
-0.00985433
0.879208
-0.0168556
1.29852
-0.0251011
1.62145
-0.0352837
1.92334
-0.048027
2.21314
-0.0645917
2.51688
-0.0860492
2.84535
-0.113951
3.18034
-0.150046
3.49844
-0.18784
3.15769
-0.217794
2.35527
-0.24172
1.72277
-0.315701
1.22832
-0.678355
1.17955
-1.44299
1.77137
-2.03013
2.12939
-2.26899
1.9653
-2.3817
1.67307
1.39349
-2.44537
-0.00331047
0.346165
-0.00895432
0.884852
-0.0157019
1.30527
-0.0239274
1.62968
-0.0342083
1.93362
-0.0470172
2.22595
-0.0637552
2.53361
-0.0857843
2.86738
-0.115281
3.20984
-0.155176
3.53833
-0.20112
3.20364
-0.24411
2.39826
-0.282132
1.76079
-0.462968
1.40916
-1.09588
1.81246
-1.79191
2.4674
-2.10981
2.44729
-2.25724
2.11273
-2.33908
1.75491
1.45949
-2.40508
-0.0033168
0.349481
-0.00911141
0.890647
-0.0157819
1.31194
-0.0238252
1.63772
-0.0341211
1.94392
-0.0471989
2.23903
-0.0645777
2.55099
-0.0877958
2.8906
-0.119325
3.24137
-0.163103
3.58211
-0.215317
3.25585
-0.260977
2.44392
-0.347529
1.84734
-0.741929
1.80356
-1.49243
2.56296
-1.96324
2.93821
-2.16289
2.64694
-2.26885
2.21869
-2.34601
1.83207
1.52275
-2.40927
-0.003368
0.352849
-0.00914073
0.89642
-0.0162358
1.31903
-0.0249818
1.64647
-0.0360528
1.95499
-0.0498591
2.25284
-0.0680243
2.56916
-0.0923115
2.91489
-0.125746
3.2748
-0.173382
3.62975
-0.231098
3.31357
-0.29311
2.50593
-0.479597
2.03383
-1.0458
2.36976
-1.67969
3.19685
-1.95304
3.21156
-2.09953
2.79343
-2.21327
2.33243
-2.30685
1.92565
1.58429
-2.3684
-0.00351628
0.356366
-0.00997083
0.902874
-0.0174218
1.32649
-0.0263404
1.65539
-0.0376319
1.96628
-0.0520217
2.26723
-0.0712062
2.58834
-0.0970771
2.94076
-0.132781
3.31051
-0.184584
3.68155
-0.247951
3.37693
-0.332483
2.59047
-0.614049
2.3154
-1.26405
3.01976
-1.75164
3.68445
-1.95858
3.41849
-2.09796
2.93281
-2.22167
2.45614
-2.33183
2.03581
1.64287
-2.39041
-0.00343258
0.359798
-0.00974337
0.909185
-0.0177406
1.33448
-0.0275821
1.66523
-0.0398288
1.97853
-0.0550492
2.28245
-0.0750747
2.60837
-0.102011
2.9677
-0.139558
3.34805
-0.194415
3.7364
-0.262603
3.44512
-0.387337
2.7152
-0.774131
2.70219
-1.4103
3.65593
-1.76135
4.0355
-1.93389
3.59103
-2.03547
3.03439
-2.12388
2.54456
-2.19067
2.1026
1.63551
-2.1833
-0.00347339
0.363272
-0.0106398
0.916351
-0.0190464
1.34289
-0.0290062
1.67519
-0.0414387
1.99096
-0.0572517
2.29826
-0.0783479
2.62946
-0.106952
2.9963
-0.146714
3.38781
-0.204269
3.79396
-0.283251
3.5241
-0.45235
2.8843
-0.905186
3.15503
-1.46165
4.2124
-1.7226
4.29644
-1.87376
3.74219
-1.967
3.12763
-1.96787
2.54543
-1.8981
2.03282
1.59853
-1.86113
-0.00321738
0.366489
-0.00994917
0.923083
-0.0188824
1.35182
-0.0298631
1.68617
-0.0432883
2.00439
-0.0597647
2.31474
-0.0812364
2.65094
-0.109978
3.02504
-0.150001
3.42784
-0.206734
3.85069
-0.292581
3.60995
-0.497436
3.08915
-0.988328
3.64592
-1.42856
4.65264
-1.59287
4.46075
-1.65959
3.80891
-1.66383
3.13186
-1.51603
2.39764
-1.01623
1.53303
0.582295
-0.00285899
0.369348
-0.0107427
0.930967
-0.0201469
1.36123
-0.0312527
1.69728
-0.0450902
2.01822
-0.0626822
2.33233
-0.086141
2.67439
-0.117998
3.0569
-0.162289
3.47213
-0.226583
3.91499
-0.329981
3.71335
-0.583587
3.34276
-1.12328
4.18561
-1.48074
5.01009
-1.57984
4.55986
-1.57754
3.80661
-1.47365
3.02797
-1.23485
2.15884
-0.630897
0.929074
-0.0486016
-0.00252825
0.371876
-0.00921241
0.937651
-0.0190868
1.3711
-0.0316523
1.70984
-0.0471803
2.03375
-0.066403
2.35155
-0.0917009
2.69969
-0.125879
3.09108
-0.174328
3.52058
-0.244098
3.98476
-0.366644
3.83589
-0.681634
3.65775
-1.24202
4.74599
-1.50171
5.26979
-1.55991
4.61806
-1.53732
3.78402
-1.33546
2.82611
-0.781734
1.60511
-0.108412
0.255752
-0.157014
-0.00161138
0.373488
-0.00964318
0.945683
-0.0199044
1.38136
-0.0323402
1.72228
-0.0479788
2.04939
-0.0681459
2.37172
-0.0954098
2.72696
-0.132929
3.1286
-0.185461
3.57311
-0.264214
4.06351
-0.413682
3.98536
-0.785589
4.02966
-1.31992
5.28033
-1.49548
5.44535
-1.52666
4.64924
-1.43823
3.69559
-1.10066
2.48854
-0.312466
0.816913
0.0247241
-0.0814381
-0.13229
-0.000907967
0.374396
-0.00663163
0.951406
-0.0170084
1.39174
-0.0310498
1.73632
-0.048514
2.06686
-0.0703956
2.3936
-0.0995265
2.75609
-0.139053
3.16812
-0.194265
3.62832
-0.280652
4.1499
-0.455729
4.16044
-0.893982
4.46791
-1.36519
5.75153
-1.48132
5.56149
-1.4836
4.65152
-1.25852
3.47051
-0.685311
1.91533
-0.0626577
0.194259
0.0301157
-0.174211
-0.102174
1.95868e-05
0.374376
-0.00616699
0.957593
-0.0165737
1.40215
-0.0301531
1.7499
-0.0471459
2.08385
-0.069665
2.41612
-0.100418
2.78684
-0.142844
3.21055
-0.201861
3.68734
-0.298249
4.24629
-0.500238
4.36243
-0.988253
4.95593
-1.36088
6.12416
-1.4244
5.62501
-1.37804
4.60516
-1.08962
3.1821
-0.321791
1.1475
0.0049367
-0.132469
0.014983
-0.184258
-0.0871908
0.00331188
0.371064
0.000576728
0.960328
-0.010326
1.41305
-0.0256459
1.76522
-0.0442718
2.10247
-0.0685204
2.44037
-0.100894
2.81921
-0.144686
3.25434
-0.205977
3.74863
-0.309496
4.3498
-0.536913
4.58984
-1.04929
5.46831
-1.32456
6.39943
-1.36561
5.66605
-1.22503
4.46458
-0.769985
2.72706
-0.067837
0.445347
0.044599
-0.244905
0.0242756
-0.163934
-0.0629153
0.00429906
0.366765
0.00223114
0.962396
-0.00769736
1.42298
-0.0214884
1.77901
-0.0387946
2.11978
-0.063188
2.46476
-0.0963522
2.85238
-0.142215
3.3002
-0.206598
3.81301
-0.319162
4.46237
-0.57736
4.84804
-1.07251
5.96345
-1.26204
6.58896
-1.27031
5.67433
-1.05033
4.24459
-0.459591
2.13632
-0.0186301
0.00438678
-0.00677947
-0.256755
0.00474688
-0.175461
-0.0581684
0.00869346
0.358072
0.0101451
0.960944
0.00310982
1.43001
-0.010975
1.79309
-0.0299401
2.13875
-0.0555622
2.49038
-0.0895668
2.88638
-0.135501
3.34614
-0.20107
3.87858
-0.318838
4.58014
-0.598033
5.12724
-1.04868
6.4141
-1.17215
6.71242
-1.15704
5.65922
-0.896634
3.98418
-0.262777
1.50246
-0.0706116
-0.187779
-0.0389392
-0.288428
-0.0144281
-0.199972
-0.0725965
0.0113123
0.346759
0.0156866
0.95657
0.0105363
1.43516
0.000365672
1.80326
-0.0179135
2.15702
-0.0421715
2.51464
-0.0752996
2.91951
-0.121593
3.39243
-0.188165
3.94515
-0.310901
4.70287
-0.598055
5.41439
-0.985626
6.80168
-1.05065
6.77744
-0.979732
5.58831
-0.675746
3.6802
-0.0700953
0.896812
0.0150754
-0.27295
0.000358959
-0.273711
-0.0016149
-0.197998
-0.0742114
0.0185259
0.328233
0.0302771
0.944819
0.0291956
1.43624
0.0180548
1.8144
-3.91822e-05
2.17512
-0.0228469
2.53745
-0.0552899
2.95195
-0.0998303
3.43697
-0.164563
4.00989
-0.286134
4.82444
-0.56616
5.69442
-0.872729
7.10824
-0.906732
6.81145
-0.804885
5.48646
-0.444665
3.31998
0.0683556
0.383792
0.0786146
-0.283208
0.0582365
-0.253333
0.0224428
-0.162204
-0.0517686
0.0241991
0.304034
0.0420637
0.926954
0.044946
1.43336
0.0381896
1.82116
0.0258451
2.18746
0.00447143
2.55882
-0.0251843
2.98161
-0.0671767
3.47896
-0.128962
4.07167
-0.245034
4.94052
-0.494268
5.94365
-0.714737
7.32871
-0.744233
6.84094
-0.638711
5.38094
-0.306406
2.98767
-0.000839504
0.078225
0.018867
-0.302915
0.0297522
-0.264218
0.0151635
-0.147615
-0.0366051
0.0352428
0.268792
0.0654989
0.896698
0.0767303
1.42213
0.0734953
1.8244
0.0626556
2.1983
0.0433944
2.57808
0.0161072
3.0089
-0.0220383
3.51711
-0.0773262
4.12696
-0.176839
5.04003
-0.380496
6.14731
-0.53694
7.48516
-0.557525
6.86153
-0.459666
5.28308
-0.181673
2.70968
-0.0708626
-0.0325849
-0.0541945
-0.319583
-0.0218035
-0.296609
-0.00342926
-0.16599
-0.0400343
0.0446524
0.224139
0.0869178
0.854433
0.106853
1.40219
0.111274
1.81998
0.107
2.20258
0.093056
2.59203
0.0720506
3.0299
0.0402327
3.54893
-0.010104
4.1773
-0.0853274
5.11525
-0.22209
6.28407
-0.312435
7.5755
-0.324493
6.87359
-0.265244
5.22383
-0.070741
2.51517
-0.0874091
-0.0159169
-0.0695646
-0.337427
-0.0261489
-0.340025
0.00397855
-0.196117
-0.0360558
0.0582121
0.165927
0.120942
0.791703
0.157878
1.36526
0.170563
1.80729
0.170735
2.2024
0.160778
2.60198
0.146001
3.04468
0.123633
3.5713
0.0886143
4.21232
0.0412853
5.16258
-0.0143257
6.33968
-0.0484452
7.60962
-0.0525249
6.87767
-0.0259367
5.19724
0.0291359
2.4601
-0.113029
0.126248
-0.106841
-0.343615
-0.0440595
-0.402806
0.0171744
-0.257351
-0.0188814
0.0602808
0.105646
0.15066
0.701324
0.206922
1.309
0.233725
1.78049
0.245359
2.19077
0.244479
2.60286
0.237928
3.05123
0.226213
3.58301
0.20917
4.22936
0.189547
5.1822
0.242403
6.28682
0.286935
7.56509
0.281726
6.88287
0.148573
5.33039
-0.119122
2.7278
-0.387521
0.394647
-0.409951
-0.321185
-0.304101
-0.508656
-0.129387
-0.432065
-0.148268
0.0501805
0.0554657
0.184192
0.567313
0.2803
1.21289
0.326504
1.73428
0.346645
2.17063
0.354155
2.59535
0.354799
3.05058
0.35721
3.5806
0.360883
4.22569
0.377468
5.16562
0.524331
6.13996
0.673441
7.41598
0.665963
6.89035
0.487605
5.50875
-0.026228
3.24163
-0.556319
0.924737
-0.690897
-0.186606
-0.539565
-0.659989
-0.287402
-0.684228
-0.435671
0.034448
0.0210177
0.219071
0.38269
0.34512
1.08684
0.422133
1.65727
0.464154
2.12861
0.487244
2.57226
0.494801
3.04303
0.510121
3.56528
0.538736
4.19707
0.599518
5.10484
0.856823
5.88265
1.23617
7.03664
1.47081
6.65571
1.59489
5.38467
1.1764
3.66013
0.406041
1.6951
-0.152204
0.371639
-0.395792
-0.416401
-0.267813
-0.812207
-0.703483
0.030742
-0.00972432
0.236873
0.176558
0.448728
0.874985
0.563627
1.54237
0.614273
2.07796
0.648168
2.53837
0.670047
3.02115
0.696286
3.53904
0.748453
4.1449
0.865443
4.98785
1.23527
5.51283
1.88238
6.38953
2.25022
6.28787
2.4854
5.14948
2.35655
3.78898
1.72618
2.32546
1.06978
1.02805
0.458082
0.195292
0.127937
-0.482062
-0.575546
0.0252425
-0.0349668
0.161764
0.0400374
0.494513
0.542235
0.691128
1.34576
0.791731
1.97736
0.840508
2.48959
0.875618
2.98604
0.904395
3.51026
0.979135
4.07016
1.11935
4.84763
1.50825
5.12392
2.2955
5.60228
2.68956
5.89381
2.87285
4.9662
2.75149
3.91034
2.25499
2.82196
1.61717
1.66586
1.05742
0.755046
0.439742
0.135616
-0.135804
0.00382286
-0.0387897
0.0815653
-0.037705
0.414221
0.209579
0.709626
1.05035
0.84551
1.84148
0.887612
2.44749
0.895399
2.97825
0.879046
3.52662
0.877546
4.07166
0.920614
4.80456
1.07406
4.97048
1.5159
5.16045
1.6925
5.71722
1.73334
4.92535
1.65017
3.99351
1.41547
3.05666
1.03126
2.05007
0.631737
1.15457
0.259624
0.507728
0.12382
0.00411958
-0.0429092
0.045582
-0.0791674
0.221746
0.033415
0.54271
0.729388
0.712621
1.67157
0.770135
2.38997
0.787778
2.96061
0.783458
3.53094
0.765948
4.08917
0.785641
4.78487
0.859273
4.89684
1.15444
4.86528
1.34258
5.52908
1.35289
4.91504
1.29029
4.05611
1.12893
3.21801
0.839794
2.33921
0.524482
1.46988
0.222287
0.809923
0.346107
0.00505349
-0.0479627
0.0240786
-0.0981925
0.0965737
-0.03908
0.373671
0.45229
0.568051
1.47719
0.65272
2.30531
0.66852
2.94481
0.665726
3.53373
0.642191
4.11271
0.640748
4.78631
0.670069
4.86752
0.841464
4.69389
1.01923
5.35132
1.0156
4.91867
0.955905
4.1158
0.834691
3.33923
0.632297
2.5416
0.390473
1.7117
0.156923
1.04347
0.503029
-0.00658482
-0.0413779
-0.00608802
-0.0986893
0.027534
-0.072702
0.235332
0.244492
0.427427
1.28509
0.528546
2.20419
0.55439
2.91896
0.554467
3.53365
0.526724
4.14045
0.507072
4.80597
0.512097
4.8625
0.612522
4.59346
0.745754
5.21808
0.736986
4.92744
0.674273
4.17852
0.578345
3.43516
0.43602
2.68392
0.258858
1.88887
0.093921
1.20841
0.59695
-0.0150725
-0.0263054
-0.0122221
-0.10154
0.0136468
-0.098571
0.14542
0.112718
0.3215
1.10901
0.401206
2.12448
0.426005
2.89417
0.431259
3.5284
0.415929
4.15578
0.394818
4.82708
0.38304
4.87428
0.438195
4.53831
0.52597
5.13031
0.516764
4.93664
0.458337
4.23694
0.382068
3.51142