/*--------------------------------*- C++ -*----------------------------------*\
  =========                 |
  \\      /  F ield         | OpenFOAM: The Open Source CFD Toolbox
   \\    /   O peration     | Website:  https://openfoam.org
    \\  /    A nd           | Version:  10
     \\/     M anipulation  |
\*---------------------------------------------------------------------------*/
FoamFile
{
    format      ascii;
    class       volVectorField;
    location    "62";
    object      U;
}
// * * * * * * * * * * * * * * * * * * * * * * * * * * * * * * * * * * * * * //

dimensions      [0 1 -1 0 0 0 0];

internalField   nonuniform List<vector> 
2200
(
(0.878851 -0.0304103 0)
(1.0058 -0.0512774 0)
(1.00329 -0.035384 0)
(1.00029 -0.0244213 0)
(0.999902 -0.0166327 0)
(1.00003 -0.0107064 0)
(1.00001 -0.00681069 0)
(0.999983 -0.00417724 0)
(0.999929 -0.00215033 0)
(1.0002 -0.000582115 0)
(1.00007 0.00113516 0)
(1.00022 0.00261219 0)
(1.00031 0.00452042 0)
(1.00022 0.00710918 0)
(1.00015 0.0108478 0)
(1.00007 0.0166641 0)
(1.00037 0.0243752 0)
(1.00347 0.0348573 0)
(1.00599 0.0513811 0)
(0.879055 0.030295 0)
(0.712022 -0.0327654 0)
(0.996653 -0.0630122 0)
(1.03333 -0.0561659 0)
(1.0249 -0.0464329 0)
(1.01587 -0.0361289 0)
(1.00964 -0.0263844 0)
(1.00592 -0.0181476 0)
(1.0038 -0.0114153 0)
(1.00268 -0.00606236 0)
(1.0021 -0.00163787 0)
(1.00186 0.00247328 0)
(1.00213 0.0070252 0)
(1.00329 0.0123113 0)
(1.0055 0.0188985 0)
(1.00931 0.0272042 0)
(1.01543 0.0369514 0)
(1.02455 0.0474643 0)
(1.03315 0.0580116 0)
(0.996709 0.0631373 0)
(0.711776 0.0330376 0)
(0.535562 -0.0238919 0)
(0.969926 -0.0569289 0)
(1.05645 -0.0547189 0)
(1.05228 -0.0487471 0)
(1.03629 -0.0404232 0)
(1.02448 -0.0322647 0)
(1.01592 -0.0239844 0)
(1.01039 -0.016109 0)
(1.00711 -0.00881509 0)
(1.00556 -0.00212062 0)
(1.00585 0.00436017 0)
(1.00744 0.0107944 0)
(1.0105 0.0177999 0)
(1.01582 0.0254724 0)
(1.02419 0.0334295 0)
(1.03623 0.0414008 0)
(1.05229 0.0493938 0)
(1.05633 0.0532327 0)
(0.969219 0.0576481 0)
(0.53441 0.0239364 0)
(0.39235 -0.0136462 0)
(0.911844 -0.0463812 0)
(1.05752 -0.0468867 0)
(1.06954 -0.0442839 0)
(1.05485 -0.0381442 0)
(1.03933 -0.0314546 0)
(1.02756 -0.024667 0)
(1.0191 -0.0174412 0)
(1.01378 -0.00995359 0)
(1.01116 -0.00243079 0)
(1.01066 0.00502522 0)
(1.01281 0.0125445 0)
(1.01806 0.0198113 0)
(1.02652 0.0266669 0)
(1.0384 0.0331023 0)
(1.05392 0.0395801 0)
(1.06812 0.045666 0)
(1.05547 0.0483301 0)
(0.909883 0.0470047 0)
(0.389916 0.0137811 0)
(0.307739 -0.00451499 0)
(0.846766 -0.0323822 0)
(1.04942 -0.0399322 0)
(1.07951 -0.0381848 0)
(1.06825 -0.0335219 0)
(1.05172 -0.0279085 0)
(1.03835 -0.0224872 0)
(1.02811 -0.0164238 0)
(1.02099 -0.00952472 0)
(1.01705 -0.00185837 0)
(1.01716 0.0061258 0)
(1.02082 0.0133196 0)
(1.02752 0.0197343 0)
(1.03738 0.0254064 0)
(1.0503 0.0303282 0)
(1.06672 0.0356487 0)
(1.07778 0.040002 0)
(1.04736 0.0417375 0)
(0.843021 0.0329587 0)
(0.303746 0.00473685 0)
(0.264322 0.000101839 0)
(0.789056 -0.0200681 0)
(1.03344 -0.0314506 0)
(1.08359 -0.0320174 0)
(1.07733 -0.0287324 0)
(1.06088 -0.0238378 0)
(1.04724 -0.0193625 0)
(1.03637 -0.0142528 0)
(1.02858 -0.00817089 0)
(1.02425 -0.00120748 0)
(1.02355 0.00605777 0)
(1.02701 0.0128726 0)
(1.03436 0.0186236 0)
(1.04499 0.0231659 0)
(1.05863 0.0271598 0)
(1.07489 0.0315776 0)
(1.08032 0.0342649 0)
(1.02918 0.0333521 0)
(0.782588 0.0207334 0)
(0.258732 0.000121702 0)
(0.240406 0.00107139 0)
(0.738462 -0.01227 0)
(1.01377 -0.0249634 0)
(1.08411 -0.0267251 0)
(1.08308 -0.0244403 0)
(1.06787 -0.0203054 0)
(1.05433 -0.0162921 0)
(1.04342 -0.0117576 0)
(1.03516 -0.00637204 0)
(1.03008 9.28568e-05 0)
(1.02985 0.00690066 0)
(1.03417 0.0127721 0)
(1.04161 0.017401 0)
(1.05177 0.0213534 0)
(1.06477 0.0246816 0)
(1.07947 0.0281035 0)
(1.07993 0.0297127 0)
(1.00757 0.0272466 0)
(0.728903 0.0131527 0)
(0.233097 -0.000833801 0)
(0.226098 0.000958983 0)
(0.695607 -0.00803296 0)
(0.99318 -0.0207312 0)
(1.08226 -0.0230974 0)
(1.08688 -0.0212432 0)
(1.0734 -0.0176679 0)
(1.05996 -0.0138569 0)
(1.04941 -0.00956464 0)
(1.0415 -0.00459243 0)
(1.03674 0.0010193 0)
(1.03576 0.00693855 0)
(1.03888 0.0121932 0)
(1.04579 0.0166423 0)
(1.05584 0.0200242 0)
(1.06919 0.023063 0)
(1.08191 0.0258066 0)
(1.07568 0.0267574 0)
(0.983295 0.0234375 0)
(0.68181 0.00911683 0)
(0.216647 -0.000713871 0)
(0.216536 0.00062243 0)
(0.660242 -0.00566473 0)
(0.972695 -0.0176051 0)
(1.07961 -0.0201697 0)
(1.09033 -0.0185793 0)
(1.0783 -0.0154172 0)
(1.06488 -0.011761 0)
(1.05434 -0.007553 0)
(1.04631 -0.0026993 0)
(1.04105 0.00276613 0)
(1.04025 0.00809186 0)
(1.04413 0.0128901 0)
(1.0508 0.0164462 0)
(1.06013 0.0197313 0)
(1.07258 0.0224172 0)
(1.08345 0.024567 0)
(1.07091 0.0250441 0)
(0.959268 0.0210133 0)
(0.641748 0.00707437 0)
(0.204565 -0.000334802 0)
(0.209367 0.000298855 0)
(0.631714 -0.00420707 0)
(0.953864 -0.0149973 0)
(1.07654 -0.0179339 0)
(1.09346 -0.0165894 0)
(1.08301 -0.0136216 0)
(1.06961 -0.0099605 0)
(1.05921 -0.00590429 0)
(1.05153 -0.00127701 0)
(1.0467 0.00366729 0)
(1.04523 0.00878807 0)
(1.04726 0.0130659 0)
(1.05313 0.0169555 0)
(1.06254 0.0197062 0)
(1.07554 0.0221323 0)
(1.0844 0.0238916 0)
(1.06388 0.0238102 0)
(0.934457 0.0191278 0)
(0.606799 0.00593268 0)
(0.194102 4.1781e-05 0)
(0.203542 8.49493e-05 0)
(0.608432 -0.00314451 0)
(0.935876 -0.0125413 0)
(1.07341 -0.015549 0)
(1.09684 -0.0143934 0)
(1.08774 -0.0116341 0)
(1.07414 -0.00811363 0)
(1.06327 -0.00400041 0)
(1.055 0.000750217 0)
(1.04943 0.00592823 0)
(1.04789 0.0106567 0)
(1.05103 0.0148463 0)
(1.0572 0.0177119 0)
(1.06612 0.0204309 0)
(1.07802 0.0225263 0)
(1.08475 0.0237056 0)
(1.05719 0.0230403 0)
(0.91074 0.0176037 0)
(0.576562 0.00527166 0)
(0.184493 0.000320099 0)
(0.199009 9.37596e-06 0)
(0.590316 -0.00228554 0)
(0.920602 -0.0102191 0)
(1.0705 -0.013412 0)
(1.10014 -0.0123451 0)
(1.09261 -0.00962142 0)
(1.07909 -0.00601373 0)
(1.06828 -0.00210617 0)
(1.06016 0.00236955 0)
(1.05476 0.00715814 0)
(1.05241 0.0120167 0)
(1.05354 0.0159548 0)
(1.05863 0.0192735 0)
(1.06773 0.0212729 0)
(1.08022 0.0229301 0)
(1.08447 0.0237888 0)
(1.04789 0.0225144 0)
(0.885971 0.0163957 0)
(0.548836 0.00491157 0)
(0.175016 0.000493687 0)
(0.195416 2.52799e-05 0)
(0.575557 -0.00156292 0)
(0.905995 -0.00812482 0)
(1.06771 -0.0110364 0)
(1.10376 -0.00993412 0)
(1.0976 -0.00719542 0)
(1.08386 -0.00365828 0)
(1.07231 0.000394327 0)
(1.06315 0.00506649 0)
(1.05662 0.0102275 0)
(1.05416 0.0147873 0)
(1.05643 0.0183581 0)
(1.06216 0.0205411 0)
(1.07076 0.0224851 0)
(1.08168 0.0238082 0)
(1.08368 0.0242084 0)
(1.03904 0.0223182 0)
(0.862229 0.0155504 0)
(0.523791 0.00473198 0)
(0.165873 0.000578184 0)
(0.19334 6.55301e-05 0)
(0.565129 -0.000761575 0)
(0.894833 -0.00587422 0)
(1.0655 -0.00868962 0)
(1.1074 -0.00744273 0)
(1.10278 -0.00458154 0)
(1.08908 -0.00082617 0)
(1.07758 0.00311802 0)
(1.06862 0.00759875 0)
(1.06204 0.0122877 0)
(1.05831 0.0167784 0)
(1.05851 0.0202811 0)
(1.06284 0.0227526 0)
(1.07163 0.0239851 0)
(1.08275 0.0248707 0)
(1.08168 0.0248613 0)
(1.02688 0.0224677 0)
(0.836605 0.0150343 0)
(0.499253 0.00466968 0)
(0.156574 0.00061805 0)
(0.192485 0.000107627 0)
(0.557658 -0.000209728 0)
(0.884524 -0.00389407 0)
(1.06381 -0.00598695 0)
(1.11144 -0.00447753 0)
(1.10818 -0.00135199 0)
(1.09438 0.00251209 0)
(1.08202 0.00675233 0)
(1.07167 0.0114841 0)
(1.0636 0.0165156 0)
(1.05985 0.0208032 0)
(1.06092 0.0235124 0)
(1.06603 0.0249997 0)
(1.07422 0.0261534 0)
(1.08274 0.0266178 0)
(1.07921 0.0261154 0)
(1.01519 0.0230331 0)
(0.811819 0.0148347 0)
(0.476202 0.00471746 0)
(0.147505 0.000637855 0)
(0.193096 8.59979e-05 0)
(0.553442 0.000843324 0)
(0.878395 -0.00153961 0)
(1.06332 -0.00336952 0)
(1.11597 -0.00151928 0)
(1.1141 0.00176037 0)
(1.10019 0.00593714 0)
(1.0877 0.010299 0)
(1.07751 0.0150407 0)
(1.06948 0.0198629 0)
(1.06395 0.0239484 0)
(1.06249 0.0267841 0)
(1.06549 0.0282561 0)
(1.07371 0.0287262 0)
(1.08271 0.0289036 0)
(1.07452 0.0278865 0)
(0.999552 0.0239143 0)
(0.784486 0.0150087 0)
(0.452327 0.00486626 0)
(0.137983 0.000656983 0)
(0.195175 0.000237055 0)
(0.553701 0.00152931 0)
(0.873562 0.000529307 0)
(1.06397 -5.55939e-05 0)
(1.12102 0.00215634 0)
(1.1203 0.00588923 0)
(1.10634 0.0104078 0)
(1.09302 0.015387 0)
(1.08129 0.0206923 0)
(1.07106 0.0257643 0)
(1.06511 0.0295912 0)
(1.06456 0.0315111 0)
(1.06845 0.0325072 0)
(1.07567 0.0327671 0)
(1.08087 0.0320271 0)
(1.06935 0.0302199 0)
(0.98419 0.0253755 0)
(0.757435 0.0155425 0)
(0.428867 0.00514044 0)
(0.128388 0.000685731 0)
(0.199373 0.000674007 0)
(0.556389 0.00235378 0)
(0.873962 0.00337939 0)
(1.06657 0.00338257 0)
(1.12702 0.00626457 0)
(1.12731 0.0102429 0)
(1.11291 0.0152186 0)
(1.09903 0.0203824 0)
(1.08693 0.0257393 0)
(1.07663 0.0308031 0)
(1.06886 0.0346965 0)
(1.06508 0.0366549 0)
(1.06609 0.0371103 0)
(1.07316 0.036432 0)
(1.07925 0.0358244 0)
(1.06153 0.033277 0)
(0.96411 0.0272395 0)
(0.726798 0.0164688 0)
(0.403314 0.00551773 0)
(0.117906 0.000714589 0)
(0.205799 0.000876188 0)
(0.563195 0.00346399 0)
(0.877778 0.00582422 0)
(1.07128 0.00753868 0)
(1.13386 0.0110687 0)
(1.1351 0.0158155 0)
(1.12047 0.021361 0)
(1.10581 0.027398 0)
(1.09226 0.0336499 0)
(1.0795 0.0392539 0)
(1.07003 0.0424733 0)
(1.06668 0.0433996 0)
(1.06862 0.04325 0)
(1.0741 0.0428258 0)
(1.0751 0.0406194 0)
(1.05266 0.0371268 0)
(0.943725 0.0298553 0)
(0.695413 0.0177551 0)
(0.377041 0.00600255 0)
(0.106985 0.000750227 0)
(0.214232 0.00105745 0)
(0.574399 0.00475488 0)
(0.886054 0.0089907 0)
(1.07898 0.0121669 0)
(1.14238 0.0168464 0)
(1.14407 0.0222573 0)
(1.12849 0.0287502 0)
(1.11251 0.0351515 0)
(1.09739 0.0413665 0)
(1.08305 0.0465436 0)
(1.07198 0.0502935 0)
(1.06586 0.0513781 0)
(1.06481 0.0506352 0)
(1.06941 0.0481899 0)
(1.07136 0.0464511 0)
(1.04059 0.041764 0)
(0.917159 0.0328013 0)
(0.659029 0.0193562 0)
(0.347505 0.00651727 0)
(0.0948582 0.00076943 0)
(0.2266 0.00140934 0)
(0.5928 0.00669182 0)
(0.901117 0.0132491 0)
(1.08992 0.0182898 0)
(1.15258 0.0237908 0)
(1.1545 0.0302015 0)
(1.13789 0.0374786 0)
(1.12041 0.0449462 0)
(1.10348 0.0523931 0)
(1.08721 0.0588272 0)
(1.0734 0.0616138 0)
(1.06625 0.0608895 0)
(1.06536 0.0591957 0)
(1.06881 0.0573185 0)
(1.06422 0.0534558 0)
(1.02645 0.0473933 0)
(0.889477 0.0368124 0)
(0.620638 0.021302 0)
(0.316293 0.00709438 0)
(0.0821381 0.000788667 0)
(0.242206 0.00194515 0)
(0.615768 0.00852921 0)
(0.92149 0.017862 0)
(1.10516 0.0252295 0)
(1.1651 0.0326135 0)
(1.16643 0.0401994 0)
(1.14795 0.0489918 0)
(1.12836 0.0572688 0)
(1.10878 0.0647414 0)
(1.08891 0.0698561 0)
(1.07228 0.0718941 0)
(1.06347 0.071827 0)
(1.06036 0.0693778 0)
(1.06144 0.0652677 0)
(1.05716 0.0614422 0)
(1.00818 0.0539174 0)
(0.853414 0.0407032 0)
(0.575171 0.0233189 0)
(0.280849 0.00756805 0)
(0.0681453 0.000778746 0)
(0.264345 0.00281877 0)
(0.649313 0.0123339 0)
(0.950955 0.0248657 0)
(1.12505 0.0350451 0)
(1.18037 0.0434894 0)
(1.1807 0.0530584 0)
(1.15994 0.0627907 0)
(1.13759 0.0720763 0)
(1.11493 0.0803302 0)
(1.09276 0.0864227 0)
(1.07442 0.0886705 0)
(1.06254 0.08568 0)
(1.05802 0.0816401 0)
(1.05886 0.0775015 0)
(1.04565 0.071035 0)
(0.986052 0.0613095 0)
(0.815242 0.045901 0)
(0.527121 0.0255971 0)
(0.243655 0.00798171 0)
(0.0538701 0.000759731 0)
(0.295432 0.00370757 0)
(0.693991 0.0154114 0)
(0.989441 0.032737 0)
(1.15146 0.0464766 0)
(1.19932 0.0580039 0)
(1.19695 0.0696087 0)
(1.17254 0.0812307 0)
(1.14688 0.091358 0)
(1.12088 0.0995405 0)
(1.09433 0.103667 0)
(1.07064 0.102321 0)
(1.05729 0.0991054 0)
(1.05191 0.0946109 0)
(1.048 0.088302 0)
(1.03366 0.0814515 0)
(0.958919 0.0697596 0)
(0.7657 0.0504646 0)
(0.468744 0.0273484 0)
(0.201531 0.00806761 0)
(0.0385457 0.000653999 0)
(0.331878 0.00709238 0)
(0.752042 0.0247448 0)
(1.03886 0.0466313 0)
(1.18371 0.0646635 0)
(1.2218 0.0775352 0)
(1.21514 0.0922725 0)
(1.18605 0.10471 0)
(1.15601 0.114911 0)
(1.12512 0.122 0)
(1.09441 0.124973 0)
(1.07012 0.123833 0)
(1.0545 0.118332 0)
(1.0461 0.110956 0)
(1.0428 0.103631 0)
(1.01551 0.0938884 0)
(0.924488 0.0783036 0)
(0.712267 0.0560594 0)
(0.409397 0.0293129 0)
(0.159657 0.00799141 0)
(0.0245592 0.000595577 0)
(0.411932 0.0106848 0)
(0.839662 0.0356944 0)
(1.10513 0.0674718 0)
(1.22415 0.0902401 0)
(1.24887 0.106513 6.224e-34)
(1.23512 0.122977 -2.80924e-34)
(1.19966 0.135347 0)
(1.16481 0.144245 0)
(1.13004 0.149726 0)
(1.09586 0.150171 0)
(1.06566 0.144372 0)
(1.04666 0.13527 0)
(1.03762 0.126843 0)
(1.02669 0.117297 0)
(0.995639 0.105723 0)
(0.884125 0.0877152 0)
(0.644454 0.0597505 0)
(0.33456 0.029158 0)
(0.110234 0.00744019 0)
(0.00901419 0.000759078 0)
(0.482916 0.025869 4.56254e-20)
(0.941932 0.0598785 -3.45666e-20)
(1.17614 0.10194 0)
(1.26572 0.12908 2.68493e-20)
(1.27725 0.14461 -2.17731e-20)
(1.25415 0.163134 2.96401e-34)
(1.21175 0.173675 0)
(1.17154 0.180515 1.5824e-20)
(1.13073 0.183014 -5.1988e-20)
(1.09016 0.179971 1.06211e-20)
(1.05764 0.171634 0)
(1.03847 0.161829 -2.70089e-20)
(1.02652 0.150609 -3.24697e-20)
(1.0162 0.13917 5.68545e-20)
(0.961469 0.123777 -4.49027e-20)
(0.817765 0.0971258 0)
(0.549604 0.0629718 -1.61495e-20)
(0.248034 0.0278609 0)
(0.0604758 0.00708488 -8.92062e-20)
(-0.00765577 0.000440133 1.05133e-19)
(0.519255 0.0537422 -6.01016e-21)
(1.00725 0.10246 1.02447e-19)
(1.22729 0.152589 -5.45609e-21)
(1.29979 0.177018 -6.56014e-20)
(1.30216 0.194544 -4.60427e-20)
(1.26999 0.211193 7.4915e-20)
(1.22106 0.218868 0)
(1.17516 0.222898 0)
(1.12937 0.222861 8.26405e-20)
(1.08544 0.21719 0)
(1.04941 0.206798 9.739e-20)
(1.02418 0.192608 2.89809e-20)
(1.00814 0.17868 4.87301e-22)
(0.982123 0.163575 -6.17246e-20)
(0.919541 0.142445 0)
(0.75427 0.111588 0)
(0.473015 0.0664205 -2.62989e-19)
(0.189071 0.0261843 6.61326e-19)
(0.0284886 0.00516288 -3.90923e-19)
(-0.0192876 -0.00138245 -4.60425e-19)
(0.526488 0.0763327 -5.62578e-20)
(1.04299 0.159624 2.17724e-20)
(1.26334 0.212732 1.20982e-20)
(1.3264 0.236201 1.14175e-19)
(1.32168 0.252217 1.45715e-20)
(1.2821 0.264373 -1.95006e-19)
(1.22749 0.268046 6.66247e-20)
(1.17638 0.268596 0)
(1.12505 0.264928 -1.74601e-19)
(1.07493 0.255451 1.55382e-19)
(1.03236 0.240089 -2.62829e-19)
(1.00466 0.222428 1.23223e-19)
(0.987519 0.206928 -7.98869e-20)
(0.964832 0.191494 1.8008e-19)
(0.886155 0.167523 0)
(0.7079 0.125202 -6.56272e-20)
(0.426818 0.0718601 0)
(0.169174 0.0269988 3.61006e-19)
(0.0194078 0.00387239 -8.55735e-19)
(-0.0232569 -0.00323698 5.35668e-19)
(0.523085 0.108105 1.497e-19)
(1.06597 0.217187 -6.62277e-20)
(1.28624 0.27845 -1.43395e-20)
(1.3438 0.301096 0)
(1.33401 0.314769 -8.46805e-20)
(1.28919 0.321741 1.04581e-19)
(1.22988 0.320596 -7.12072e-20)
(1.17369 0.316928 0)
(1.11745 0.309373 1.2403e-19)
(1.06337 0.29583 -1.09128e-19)
(1.01801 0.276308 2.27255e-19)
(0.988195 0.257085 0)
(0.966458 0.239593 -1.697e-19)
(0.93139 0.21824 9.56369e-20)
(0.852881 0.18824 2.40729e-19)
(0.675547 0.14209 -2.11812e-19)
(0.408197 0.081705 3.3468e-19)
(0.165928 0.0310539 -7.40131e-19)
(0.0195749 0.00376363 4.68399e-19)
(-0.0239646 -0.00490071 -5.85769e-19)
(0.510113 0.132107 -4.70469e-20)
(1.07085 0.269824 3.34182e-20)
(1.29613 0.343558 -4.78232e-20)
(1.35285 0.36671 9.75401e-20)
(1.33996 0.378394 -9.34181e-20)
(1.29154 0.380208 3.27909e-20)
(1.2286 0.374376 3.74004e-21)
(1.1688 0.366431 -1.39554e-19)
(1.1089 0.354111 -1.29707e-19)
(1.05058 0.335517 -2.33972e-19)
(1.00093 0.312574 -4.88675e-19)
(0.965468 0.29042 -1.50783e-19)
(0.942028 0.269996 2.21314e-21)
(0.913618 0.248328 -3.27397e-19)
(0.828742 0.216988 -5.27931e-21)
(0.653229 0.160694 3.08165e-19)
(0.400648 0.0934922 -9.25836e-20)
(0.170577 0.0380765 -5.36072e-20)
(0.0269608 0.00495548 0)
(-0.0211734 -0.00547001 1.24559e-18)
(0.494489 0.153315 0)
(1.06795 0.320799 -1.18854e-21)
(1.29922 0.407509 -7.03804e-21)
(1.35517 0.430893 -1.29219e-20)
(1.33971 0.441212 8.94969e-20)
(1.28884 0.438684 -7.68838e-20)
(1.22331 0.428374 7.75139e-20)
(1.16036 0.415854 2.29248e-19)
(1.0968 0.399373 -7.22134e-20)
(1.03416 0.376726 1.15373e-19)
(0.979981 0.349323 2.62696e-19)
(0.944881 0.324212 3.28786e-19)
(0.919201 0.301964 -1.98136e-19)
(0.879076 0.276368 3.54647e-19)
(0.799835 0.238109 -2.8108e-19)
(0.633552 0.182569 0)
(0.396538 0.109025 -7.03027e-19)
(0.180629 0.0476034 9.46263e-19)
(0.038754 0.00907602 7.06243e-20)
(-0.0159284 -0.00505841 -1.31778e-18)
(0.478372 0.172834 -5.09903e-21)
(1.05706 0.367361 -1.39031e-20)
(1.29519 0.467499 5.08675e-20)
(1.35232 0.492731 -7.40624e-20)
(1.3351 0.502279 7.51822e-20)
(1.28255 0.495534 -7.39729e-20)
(1.21499 0.481198 1.53036e-19)
(1.14947 0.46485 -6.84028e-20)
(1.08259 0.444117 -2.91392e-19)
(1.01614 0.416962 -2.47578e-22)
(0.960397 0.386043 -2.85779e-19)
(0.921036 0.358461 -3.54031e-19)
(0.892193 0.332034 2.18987e-19)
(0.86081 0.306526 -1.27597e-19)
(0.777554 0.268805 3.05933e-19)
(0.61785 0.202597 0)
(0.394525 0.125884 -4.37136e-19)
(0.189997 0.0583513 6.4565e-19)
(0.0501349 0.0145306 1.22111e-18)
(-0.0103139 -0.00393684 -1.43604e-18)
(0.46494 0.190879 -8.70399e-20)
(1.04678 0.413287 3.807e-20)
(1.28881 0.525848 -3.02716e-20)
(1.34571 0.551958 7.61757e-20)
(1.32678 0.560605 1.21715e-20)
(1.27283 0.550549 -1.44544e-19)
(1.20348 0.532837 -8.91572e-20)
(1.13569 0.512633 -8.81628e-20)
(1.06648 0.488105 -1.64866e-19)
(0.998185 0.456938 2.65238e-19)
(0.939638 0.421963 2.88544e-19)
(0.898469 0.38985 5.61743e-19)
(0.868925 0.363226 0)
(0.827064 0.334193 6.50142e-21)
(0.751041 0.289494 -8.41486e-19)
(0.601123 0.225715 1.97437e-19)
(0.39196 0.142854 9.48668e-19)
(0.198315 0.0702991 -2.79977e-19)
(0.0610561 0.0210657 5.80951e-19)
(-0.0045937 -0.00216896 -4.84067e-20)
(0.453308 0.208034 5.82879e-21)
(1.03239 0.454259 5.73026e-20)
(1.27839 0.579834 -8.83397e-21)
(1.3361 0.608397 7.62747e-20)
(1.31585 0.616751 -1.42424e-19)
(1.26086 0.603324 1.43037e-19)
(1.19034 0.582307 9.22721e-20)
(1.12127 0.558791 2.62829e-19)
(1.05012 0.530542 3.30285e-19)
(0.978454 0.495295 -3.0705e-19)
(0.916464 0.457329 0)
(0.872805 0.422842 -2.12944e-19)
(0.841736 0.392151 2.44484e-19)
(0.809103 0.361763 3.08963e-19)
(0.730446 0.319756 -1.78809e-19)
(0.585938 0.24528 -4.34882e-19)
(0.388211 0.160055 -1.29587e-19)
(0.204295 0.0822863 -1.97735e-21)
(0.0698384 0.0279052 0)
(0.000344668 -0.00019851 0)
(0.445386 0.224473 -8.26953e-20)
(1.02146 0.495609 0)
(1.26759 0.632345 6.32147e-21)
(1.32451 0.66212 -1.55505e-20)
(1.30308 0.669484 1.63582e-19)
(1.24729 0.653434 -4.12069e-20)
(1.17578 0.629827 9.37408e-20)
(1.10525 0.603212 -1.77632e-19)
(1.03213 0.571968 2.50468e-19)
(0.958765 0.533771 -1.01532e-19)
(0.894917 0.491824 1.65627e-19)
(0.850705 0.453095 6.75924e-19)
(0.818064 0.421861 1.4368e-20)
(0.775613 0.388367 -3.22506e-19)
(0.70473 0.337824 5.9738e-19)
(0.568129 0.267974 3.62647e-21)
(0.382462 0.176027 1.38639e-19)
(0.207052 0.0941681 -6.60931e-19)
(0.0756657 0.0341334 6.8112e-19)
(0.00411299 0.00166975 -8.02415e-19)
(0.437782 0.241167 2.55308e-23)
(1.00777 0.532029 0)
(1.25447 0.680283 0)
(1.3114 0.712967 1.15229e-21)
(1.2891 0.720103 -4.74856e-20)
(1.23268 0.701287 6.6349e-20)
(1.16047 0.674938 -1.73527e-19)
(1.0891 0.645634 0)
(1.01439 0.611412 -3.69601e-19)
(0.938381 0.569723 4.45194e-19)
(0.871525 0.524316 4.73505e-19)
(0.824285 0.483737 -2.48173e-19)
(0.790895 0.447875 -3.00933e-19)
(0.757789 0.412172 7.0587e-19)
(0.683146 0.366171 -2.12454e-19)
(0.550703 0.284427 -2.53246e-19)
(0.373328 0.190867 -1.51445e-19)
(0.205843 0.103854 -7.14179e-19)
(0.0783318 0.0392932 1.04706e-19)
(0.00668475 0.0031667 8.68691e-19)
(0.433062 0.258863 -4.01506e-20)
(0.997746 0.569414 -5.38234e-20)
(1.24187 0.726932 2.37065e-20)
(1.29754 0.76101 -1.99756e-22)
(1.27446 0.767092 -5.19578e-20)
(1.21751 0.746192 1.05131e-19)
(1.14464 0.717884 0)
(1.07207 0.686177 1.07735e-19)
(0.99564 0.649602 -8.49495e-20)
(0.918207 0.605729 7.4345e-19)
(0.849639 0.557258 -1.07034e-19)
(0.801568 0.512532 1.23011e-19)
(0.767286 0.475091 0)
(0.724763 0.436242 -3.82332e-19)
(0.656951 0.379456 4.63421e-19)
(0.531204 0.303723 0)
(0.362833 0.203188 -3.26043e-19)
(0.202167 0.112043 9.59757e-19)
(0.0779222 0.0431668 1.14015e-19)
(0.00790157 0.00410224 -1.07072e-18)
(0.429745 0.275961 -1.0026e-19)
(0.985991 0.602209 1.27787e-19)
(1.22789 0.769121 0)
(1.28308 0.806074 2.22325e-20)
(1.25933 0.812166 0)
(1.20185 0.789088 -1.38179e-19)
(1.12846 0.758497 0)
(1.05528 0.724622 0)
(0.977676 0.68581 -1.13136e-19)
(0.897849 0.639239 -7.06854e-19)
(0.826278 0.587215 -8.75671e-19)
(0.774823 0.539995 1.44198e-19)
(0.739692 0.497915 5.20893e-19)
(0.706312 0.456019 4.21488e-19)
(0.635156 0.404159 -1.48727e-18)
(0.512045 0.314592 -5.94939e-19)
(0.350136 0.213841 3.48756e-19)
(0.195757 0.118124 0)
(0.0759641 0.0452304 9.77616e-19)
(0.00808019 0.00468682 -1.15403e-18)
(0.427977 0.29153 1.18976e-19)
(0.977426 0.635998 -1.47853e-19)
(1.21496 0.810399 0)
(1.26853 0.848496 -1.12865e-20)
(1.24412 0.853621 -3.25223e-21)
(1.18625 0.828935 0)
(1.11244 0.796906 5.36433e-20)
(1.03844 0.761241 7.51904e-20)
(0.959501 0.720742 -2.12393e-19)
(0.878262 0.672539 9.35381e-20)
(0.80481 0.618268 0)
(0.752035 0.567446 5.97627e-19)
(0.715625 0.522464 5.86394e-21)
(0.672739 0.476837 2.27474e-19)
(0.608822 0.411214 2.69939e-19)
(0.491612 0.328586 0)
(0.337266 0.220757 -5.68225e-19)
(0.188036 0.122076 1.11332e-18)
(0.0727596 0.0463175 -1.18038e-18)
(0.00764149 0.00492374 2.48499e-18)
(0.426401 0.3064 0)
(0.966977 0.665286 0)
(1.20126 0.847315 -7.27772e-20)
(1.25394 0.888063 0)
(1.2289 0.893431 0)
(1.17061 0.867083 -1.11881e-19)
(1.09652 0.833193 5.48812e-20)
(1.0222 0.795814 1.78091e-20)
(0.942256 0.75374 -4.84023e-20)
(0.85831 0.703616 0)
(0.781353 0.646695 -1.33743e-19)
(0.724988 0.592287 -4.87534e-19)
(0.686271 0.542119 -5.87643e-19)
(0.653407 0.491481 -2.36486e-19)
(0.586267 0.431276 2.9231e-19)
(0.472031 0.332209 -6.88639e-19)
(0.323997 0.225321 1.223e-18)
(0.180124 0.123204 1.65002e-21)
(0.0692039 0.0467236 -1.12931e-18)
(0.00713864 0.00510974 -1.67596e-19)
(0.425328 0.320645 0)
(0.9594 0.696046 -1.19898e-19)
(1.1889 0.883775 8.84954e-20)
(1.23965 0.925353 0)
(1.21402 0.929799 0)
(1.1555 0.902206 2.2303e-19)
(1.08128 0.867325 0)
(1.00631 0.82869 0)
(0.925024 0.785471 -4.66472e-19)
(0.839666 0.734286 1.29984e-19)
(0.760862 0.675687 -1.18595e-18)
(0.702253 0.618018 0)
(0.661928 0.565573 -6.39454e-19)
(0.617872 0.509018 1.02852e-20)
(0.558231 0.430328 -9.40998e-19)
(0.451252 0.338845 3.70345e-19)
(0.312246 0.224593 1.27259e-21)
(0.1754 0.120912 -1.27404e-18)
(0.0671763 0.0450422 6.07629e-19)
(0.0052153 0.00306034 1.79268e-19)
(0.424092 0.334681 0)
(0.950172 0.722505 -1.63646e-19)
(1.17604 0.916083 9.32252e-20)
(1.22567 0.959997 1.27597e-19)
(1.19948 0.964805 -7.8651e-21)
(1.14065 0.935955 2.21781e-20)
(1.06629 0.899598 -3.15715e-20)
(0.991063 0.859628 4.42786e-19)
(0.908844 0.815319 4.98992e-19)
(0.820899 0.762949 9.89508e-19)
(0.737967 0.702812 9.85335e-19)
(0.674847 0.642125 1.73545e-19)
(0.630267 0.583276 9.19802e-19)
(0.595937 0.519045 5.68844e-19)
(0.532638 0.44471 6.75316e-19)
(0.431071 0.331474 -4.05221e-19)
(0.299498 0.217424 -4.67475e-19)
(0.175092 0.11727 5.48406e-19)
(0.0737881 0.0518581 -3.26658e-19)
(0.0120882 0.0120015 5.80859e-19)
(0.423249 0.348221 2.29103e-19)
(0.943631 0.750579 2.56461e-19)
(1.16456 0.948397 5.36835e-20)
(1.21217 0.992749 1.56609e-20)
(1.18548 0.996604 -8.69531e-21)
(1.12654 0.966755 -6.16229e-20)
(1.05217 0.929763 3.0215e-20)
(0.9764 0.889003 -1.93563e-20)
(0.892955 0.844 -5.81373e-19)
(0.803702 0.791146 -1.07416e-18)
(0.718666 0.730061 6.84176e-20)
(0.65235 0.666911 0)
(0.605253 0.606535 0)
(0.556137 0.535347 -2.96815e-19)
(0.499079 0.434671 -1.10727e-18)
(0.408129 0.326483 8.72971e-19)
(0.296425 0.198997 5.11751e-19)
(0.185983 0.0969852 0)
(0.0902592 0.0229409 1.04548e-18)
(0.00595842 -0.0144579 -6.19303e-19)
(0.422221 0.361349 -1.21553e-19)
(0.935485 0.774242 1.07311e-19)
(1.15263 0.976656 -1.28516e-19)
(1.19912 1.02302 -1.06968e-19)
(1.17196 1.02728 -1.89013e-20)
(1.11277 0.996473 -1.9657e-20)
(1.03833 0.958325 0)
(0.962438 0.916572 -5.56825e-19)
(0.878272 0.870881 7.05063e-20)
(0.786603 0.817402 0)
(0.697291 0.756 0)
(0.625654 0.691737 1.11196e-19)
(0.57087 0.62416 1.49589e-19)
(0.529613 0.542343 -3.21049e-19)
(0.466617 0.445481 7.94705e-19)
(0.379083 0.303715 -9.51566e-19)
(0.277748 0.17411 -1.09748e-18)
(0.205524 0.0839648 9.72547e-19)
(0.156601 0.0735977 -3.71669e-19)
(0.11116 0.0762673 2.16226e-19)
(0.421504 0.373609 1.51344e-19)
(0.929716 0.799548 0)
(1.14203 1.00528 0)
(1.18658 1.05172 -2.98482e-20)
(1.159 1.05498 2.4164e-20)
(1.09981 1.02334 -2.00112e-20)
(1.0255 0.984833 1.37345e-19)
(0.949227 0.942696 5.69876e-19)
(0.863985 0.896699 1.05542e-18)
(0.771124 0.843221 -8.1173e-20)
(0.679781 0.781788 1.68138e-19)
(0.604207 0.716208 -9.95741e-19)
(0.546055 0.64863 -9.9466e-19)
(0.483973 0.561499 -1.72648e-19)
(0.418519 0.428936 0)
(0.342297 0.294432 -4.99929e-21)
(0.258135 0.101353 6.05918e-19)
(0.247119 -0.0194795 -1.01736e-18)
(0.213203 -0.105117 7.7311e-19)
(0.0877433 -0.0987007 6.39993e-19)
(0.420371 0.385593 -3.33904e-19)
(0.922211 0.820411 -1.50341e-19)
(1.13088 1.02997 6.92275e-21)
(1.17443 1.07827 6.00346e-20)
(1.14644 1.08207 0)
(1.08703 1.04979 -5.4233e-20)
(1.01268 1.01047 -1.98962e-19)
(0.936358 0.967715 -2.01391e-21)
(0.850541 0.921453 -5.53001e-19)
(0.755474 0.867864 -7.97269e-20)
(0.659983 0.807284 7.40539e-20)
(0.578523 0.743123 8.74905e-19)
(0.508336 0.669237 9.70266e-19)
(0.451116 0.568548 1.68567e-19)
(0.377404 0.447629 8.60412e-19)
(0.278473 0.260167 0)
(0.151748 0.0841256 0)
(-0.00801905 0.181982 6.95995e-19)
(-0.0786665 0.630012 -2.76389e-20)
(0.00912875 1.54291 -8.62622e-19)
(0.419655 0.396784 1.84245e-19)
(0.917004 0.843365 4.23726e-19)
(1.12101 1.0557 -5.85003e-19)
(1.16265 1.10397 2.96835e-19)
(1.13423 1.10691 -9.90724e-21)
(1.07481 1.07413 -5.31024e-21)
(1.00064 1.03491 0)
(0.923934 0.992377 -4.74712e-19)
(0.837058 0.946488 0)
(0.740877 0.893819 1.12108e-18)
(0.64311 0.834389 -9.06485e-20)
(0.556808 0.770344 1.01645e-19)
(0.483892 0.699789 1.11646e-18)
(0.396235 0.602369 -3.66257e-19)
(0.286307 0.43331 -4.36943e-19)
(0.186573 0.311141 0)
(0.0770303 0.469569 0)
(0.0248131 1.35429 0)
(0.0712885 2.47124 -3.95084e-19)
(0.0979991 2.91454 -2.43899e-19)
(0.418183 0.407506 0)
(0.909975 0.861694 0)
(1.11054 1.07743 2.13085e-19)
(1.15131 1.12764 -2.4149e-19)
(1.12248 1.13144 1.1084e-19)
(1.06282 1.09846 1.37799e-20)
(0.988564 1.05888 2.60111e-20)
(0.911826 1.01624 -2.02514e-20)
(0.824565 0.970759 7.84428e-20)
(0.726373 0.918752 -1.28666e-18)
(0.624531 0.861272 1.64126e-19)
(0.532455 0.801913 8.78731e-19)
(0.442601 0.728461 -1.1118e-18)
(0.358868 0.611323 -1.22726e-18)
(0.265087 0.490932 4.12348e-19)
(0.182444 0.63409 0)
(0.114926 1.58122 5.63209e-19)
(0.119164 2.69949 6.09812e-19)
(0.126671 3.09002 -6.81399e-19)
(0.119249 3.22318 7.26991e-19)
(0.417219 0.417946 0)
(0.905275 0.882385 3.71963e-19)
(1.10143 1.10058 -5.33937e-20)
(1.14039 1.15066 3.35275e-19)
(1.11112 1.15374 -1.16345e-19)
(1.0515 1.12053 0)
(0.977458 1.08144 0)
(0.900428 1.03955 0)
(0.812253 0.995081 4.39738e-19)
(0.713132 0.94494 5.91957e-20)
(0.60911 0.890029 0)
(0.511904 0.831512 -8.73395e-19)
(0.42553 0.763744 0)
(0.303875 0.657244 8.78027e-19)
(0.201177 0.708427 -5.94679e-19)
(0.146905 1.46531 -4.76862e-19)
(0.150544 2.68628 -1.10063e-18)
(0.173745 3.12624 -5.78752e-19)
(0.164381 3.26573 -7.79783e-19)
(0.151291 3.30594 5.72025e-19)
(0.415617 0.42735 -1.29615e-19)
(0.898641 0.89821 1.49716e-20)
(1.09166 1.11953 -5.92711e-20)
(1.12997 1.17169 -2.59715e-19)
(1.1003 1.17592 0)
(1.04043 1.14287 0)
(0.966284 1.10377 0)
(0.889278 1.06215 3.34394e-20)
(0.800937 1.01861 -5.56106e-19)
(0.700157 0.969794 0)
(0.59299 0.917576 0)
(0.492779 0.866148 0)
(0.381732 0.793728 0)
(0.308744 0.749263 6.44226e-19)
(0.266883 1.14497 1.58137e-18)
(0.24041 2.39726 4.6501e-19)
(0.256837 3.08192 9.31873e-19)
(0.251486 3.27957 -7.14037e-19)
(0.203149 3.345 2.61803e-19)
(0.171332 3.35809 0)
(0.414484 0.436615 1.33258e-19)
(0.894287 0.91737 -8.24236e-19)
(1.08311 1.14103 -2.22128e-19)
(1.11969 1.19295 -4.91493e-20)
(1.0896 1.1965 2.69945e-20)
(1.02983 1.1634 -1.03422e-19)
(0.955977 1.12505 -1.39424e-21)
(0.878804 1.08456 -3.68051e-19)
(0.789731 1.0425 0)
(0.688469 0.996364 -7.56756e-20)
(0.579866 0.948198 6.88426e-20)
(0.47463 0.896656 0)
(0.381519 0.838689 0)
(0.320957 0.940067 -8.07074e-19)
(0.267502 1.85304 1.00899e-19)
(0.263953 2.94468 -3.49773e-19)
(0.288429 3.28292 7.31344e-19)
(0.259984 3.38114 5.25547e-19)
(0.195335 3.40566 -7.1204e-19)
(0.170893 3.41572 3.51655e-19)
(0.412408 0.446139 2.6124e-19)
(0.887033 0.932416 8.02446e-19)
(1.07286 1.15937 2.67109e-19)
(1.10908 1.21366 0)
(1.07867 1.21863 0)
(1.01873 1.18579 8.03031e-20)
(0.944845 1.14747 5.81559e-20)
(0.867883 1.10733 3.27839e-19)
(0.77901 1.06639 2.15929e-20)
(0.67663 1.02196 9.65084e-19)
(0.566405 0.976604 -1.14775e-18)
(0.455728 0.929414 0)
(0.377721 0.913874 0)
(0.33358 1.31366 -5.50488e-19)
(0.330087 2.49453 -6.61278e-19)
(0.37439 3.1951 0)
(0.399296 3.3637 -7.4014e-19)
(0.328738 3.4265 4.9755e-20)
(0.260312 3.47191 3.43901e-19)
(0.238161 3.49732 -1.12672e-19)
(0.41064 0.455978 -4.96528e-19)
(0.882044 0.953636 -3.85065e-19)
(1.06321 1.18304 0)
(1.09758 1.23652 0)
(1.06684 1.24042 0)
(1.0072 1.20731 0)
(0.933917 1.16969 -6.96436e-20)
(0.857087 1.13072 2.86198e-19)
(0.767835 1.09135 0)
(0.665876 1.04997 -8.78485e-19)
(0.555679 1.00937 2.05973e-18)
(0.445981 0.970938 8.43764e-20)
(0.395767 1.03724 1.1353e-19)
(0.385306 1.74433 8.97003e-19)
(0.39641 2.90172 -4.8277e-19)
(0.435992 3.31496 0)
(0.419185 3.43664 2.08073e-19)
(0.333498 3.52559 9.12064e-20)
(0.259502 3.58957 1.48175e-19)
(0.184062 3.56904 -1.36464e-20)
(0.407635 0.466376 2.35959e-19)
(0.872843 0.969587 -3.9245e-19)
(1.05097 1.20264 0)
(1.08532 1.25887 -7.19561e-20)
(1.05441 1.26439 2.47991e-19)
(0.99475 1.23144 0)
(0.921624 1.1936 0)
(0.845359 1.15473 -4.96288e-19)
(0.756894 1.11634 -5.60735e-20)
(0.654606 1.07661 8.61659e-19)
(0.541325 1.03801 -9.7856e-19)
(0.450219 1.01866 5.74449e-19)
(0.411013 1.2232 0)
(0.420114 2.18689 -4.75654e-19)
(0.462528 3.14341 3.11902e-19)
(0.527214 3.41717 1.96136e-19)
(0.518372 3.51273 0)
(0.455892 3.59447 -3.65116e-20)
(0.386887 3.63439 -4.08699e-19)
(0.306513 3.60642 -9.6125e-20)
(0.404933 0.476942 -4.69227e-19)
(0.866698 0.993843 5.61768e-19)