/*--------------------------------*- C++ -*----------------------------------*\
  =========                 |
  \\      /  F ield         | OpenFOAM: The Open Source CFD Toolbox
   \\    /   O peration     | Website:  https://openfoam.org
    \\  /    A nd           | Version:  10
     \\/     M anipulation  |
\*---------------------------------------------------------------------------*/
FoamFile
{
    format      ascii;
    class       volScalarField;
    location    "7.5";
    object      p;
}
// * * * * * * * * * * * * * * * * * * * * * * * * * * * * * * * * * * * * * //

dimensions      [1 -1 -2 0 0 0 0];

internalField   nonuniform List<scalar> 
16128
(
1
1
1
1
1
1
1
1
1
1
1
1
1
1
1
1
1
1
1
1
1
1
1
1
4.9805
10.2968
10.5156
10.6094
10.7235
10.8293
10.9323
11.032
11.1291
11.222
11.3098
11.3941
11.4751
11.5505
11.6191
11.6825
11.7446
11.8052
11.8596
11.9024
11.9383
11.9674
11.9894
12.014
1
1
1
1
1
1
1
1
1
1
1
1
1
1
1
1
1
1
1
1
1
1
1
1
4.8975
10.2566
10.511
10.606
10.7201
10.8258
10.9283
11.0274
11.1238
11.2161
11.3037
11.3876
11.4674
11.5414
11.6095
11.6736
11.736
11.7944
11.8453
11.8865
11.9238
11.9544
11.9759
12.0018
1
1
1
1
1
1
1
1
1
1
1
1
1
1
1
1
1
1
1
1
1
1
1
1
4.72032
10.209
10.4995
10.5946
10.7093
10.8154
10.9181
11.0169
11.1128
11.205
11.2927
11.376
11.4543
11.5273
11.5961
11.6617
11.7232
11.7774
11.8241
11.8646
11.904
11.9352
11.951
11.9774
1
1
1
1
1
1
1
1
1
1
1
1
1
1
1
1
1
1
1
1
1
1
1
1
4.46231
10.1343
10.4858
10.5805
10.6952
10.8009
10.9031
11.0009
11.0954
11.1867
11.2738
11.3561
11.4329
11.5049
11.5743
11.6409
11.7015
11.7528
11.7974
11.838
11.876
11.9032
11.9078
11.9436
1
1
1
1
1
1
1
1
1
1
1
1
1
1
1
1
1
1
1
1
1
1
1
1
4.13003
10.0248
10.4695
10.563
10.6772
10.7821
10.8831
10.9795
11.072
11.1614
11.247
11.3279
11.4032
11.4737
11.5421
11.6077
11.6671
11.7177
11.764
11.8062
11.8417
11.867
11.8449
11.8975
1
1
1
1
1
1
1
1
1
1
1
1
1
1
1
1
1
1
1
1
1
1
1
1
3.72749
9.867
10.4519
10.544
10.6578
10.7614
10.8615
10.9568
11.0478
11.1352
11.2189
11.2979
11.3713
11.4395
11.5054
11.5682
11.6252
11.6747
11.7203
11.7604
11.7904
11.8133
11.7837
11.8413
1
1
1
1
1
1
1
1
1
1
1
1
1
1
1
1
1
1
1
1
1
1
1
1
3.27591
9.63644
10.4314
10.5197
10.6321
10.7334
10.8318
10.9257
11.0148
11.0996
11.1805
11.257
11.3284
11.3945
11.4576
11.5172
11.5718
11.6199
11.6637
11.7017
11.7291
11.7564
11.7316
11.7575
1
1
1
1
1
1
1
1
1
1
1
1
1
1
1
1
1
1
1
1
1
1
1
1
2.79039
9.31601
10.4167
10.4959
10.6048
10.7004
10.7945
10.885
10.971
11.0523
11.1299
11.2036
11.2733
11.3375
11.398
11.4548
11.5071
11.5535
11.5951
11.6289
11.6464
11.6632
11.6566
11.6975
1
1
1
1
1
1
1
1
1
1
1
1
1
1
1
1
1
1
1
1
1
1
1
1
2.2973
8.88523
10.4221
10.4746
10.5802
10.6692
10.7598
10.8473
10.9304
11.0079
11.0808
11.1495
11.2148
11.2748
11.3308
11.3828
11.4308
11.4736
11.5117
11.5417
11.5556
11.5666
11.5563
11.5968
1
1
1
1
1
1
1
1
1
1
1
1
1
1
1
1
1
1
1
1
1
1
1
1
1.80679
8.31312
10.4232
10.4491
10.5521
10.6311
10.7165
10.801
10.8823
10.9572
11.0264
11.0899
11.1497
11.2043
11.2544
11.3004
11.3425
11.3803
11.4139
11.4406
11.4537
11.4617
11.4258
11.471
1
1
1
1
1
1
1
1
1
1
1
1
1
1
1
1
1
1
1
1
1
1
1
1
1.34824
7.66391
10.4645
10.402
10.4938
10.5706
10.6586
10.7431
10.8226
10.896
10.9627
11.0219
11.0763
11.1253
11.169
11.2079
11.242
11.2711
11.2949
11.313
11.3198
11.3193
11.2691
11.3344
1
1
1
1
1
1
1
1
1
1
1
1
1
1
1
1
1
1
1
1
1
1
1
1
1.02216
6.87408
10.3163
10.3284
10.4195
10.4995
10.5836
10.6686
10.751
10.8243
10.8886
10.9441
10.9928
11.0355
11.0721
11.1027
11.1264
11.1453
11.159
11.1698
11.1682
11.152
11.0822
11.1333
1
1
1
1
1
1
1
1
1
1
1
1
1
1
1
1
1
1
1
1
1
1
1
1
1.00012
5.85258
10.1015
10.2341
10.3432
10.4391
10.5253
10.6015
10.6702
10.7391
10.8012
10.8535
10.8971
10.933
10.962
10.9836
10.9963
11.0027
10.999
10.989
10.9609
10.9227
10.834
10.8959
1
1
1
1
1
1
1
1
1
1
1
1
1
1
1
1
1
1
1
1
1
1
1
1
0.999999
4.79687
9.82474
10.1428
10.2569
10.3599
10.4411
10.5134
10.5822
10.644
10.6979
10.7458
10.7846
10.814
10.8353
10.8475
10.8458
10.8356
10.8106
10.7802
10.7316
10.6693
10.5412
10.5194
1
1
1
1
1
1
1
1
1
1
1
1
1
1
1
1
1
1
1
1
1
1
1
1
1
3.7054
9.40131
10.0962
10.2243
10.3149
10.3847
10.4421
10.4932
10.5411
10.5867
10.6275
10.6588
10.6811
10.6935
10.6932
10.6765
10.6479
10.5975
10.533
10.4253
10.2709
10.0578
9.99916
1
1
1
1
1
1
1
1
1
1
1
1
1
1
1
1
1
1
1
1
1
1
1
1
1
2.61986
8.73857
10.0873
10.168
10.2464
10.3146
10.3687
10.4127
10.4491
10.479
10.505
10.526
10.5384
10.5364
10.5221
10.4877
10.4348
10.3484
10.2355
10.0656
9.86843
9.55658
9.50034
1
1
1
1
1
1
1
1
1
1
1
1
1
1
1
1
1
1
1
1
1
1
1
1
1
1.59786
7.93485
10.1708
10.1173
10.189
10.2465
10.289
10.324
10.3532
10.3738
10.3868
10.3933
10.3937
10.3728
10.341
10.2837
10.2027
10.078
9.92042
9.66295
9.29469
8.37987
6.339
1
1
1
1
1
1
1
1
1
1
1
1
1
1
1
1
1
1
1
1
1
1
1
1
1
1.04707
6.75973
10.1182
10.0416
10.088
10.1478
10.1929
10.2266
10.2503
10.2631
10.2647
10.2566
10.2405
10.2031
10.1516
10.0689
9.95785
9.79103
9.56747
9.21015
8.59027
7.61732
5.35626
1
1
1
1
1
1
1
1
1
1
1
1
1
1
1
1
1
1
1
1
1
1
1
1
1
1.00012
5.19156
9.64461
9.86502
9.97356
10.0368
10.0846
10.1211
10.141
10.1486
10.1413
10.1186
10.0854
10.0322
9.96112
9.85156
9.70844
9.50019
9.21163
8.78588
8.11285
7.0034
5.09271
1
1
1
1
1
1
1
1
1
1
1
1
1
1
1
1
1
1
1
1
1
1
1
1
1
0.999998
3.65266
9.19432
9.8536
9.92621
9.97568
9.99933
10.0211
10.0307
10.0305
10.0153
9.97916
9.92905
9.85756
9.76685
9.63471
9.46224
9.21813
8.88299
8.4031
7.73078
6.58547
5.07639
1
1
1
1
1
1
1
1
1
1
1
1
1
1
1
1
1
1
1
1
1
1
1
1
1
1
2.18499
8.38359
9.86661
9.85675
9.89236
9.91566
9.93167
9.92851
9.91626
9.88921
9.8403
9.77557
9.68537
9.57368
9.42327
9.22626
8.95661
8.59164
8.09031
7.42172
6.36388
5.17246
1
1
1
1
1
1
1
1
1
1
1
1
1
1
1
1
1
1
1
1
1
1
1
1
1
1
1.14887
7.13287
9.92455
9.82833
9.80794
9.82251
9.82707
9.81424
9.793
9.75696
9.70058
9.62481
9.51893
9.38788
9.22018
9.00244
8.71889
8.34127
7.84304
7.18166
6.26515
5.31031
1
1
1
1
1
1
1
1
1
1
1
1
1
1
1
1
1
1
1
1
1
1
1
1
1
1
1.00192
5.42792
9.41117
9.62274
9.68003
9.70769
9.70986
9.69379
9.66531
9.62148
9.55766
9.47255
9.35603
9.21061
9.02825
8.79687
8.50492
8.12635
7.64744
7.01485
6.23364
5.4393
1
1
1
1
1
1
1
1
1
1
1
1
1
1
1
1
1
1
1
1
1
1
1
1
1
1
0.999975
3.4538
8.86503
9.56246
9.61471
9.63238
9.62037
9.59417
9.55429
9.50039
9.42641
9.331
9.20549
9.04863
8.85353
8.61271
8.31651
7.94346
7.48925
6.90293
6.23398
5.54835
1
1
1
1
1
1
1
1
1
1
1
1
1
1
1
1
1
1
1
1
1
1
1
1
1
1
0.999994
1.74701
8.01189
9.62302
9.55425
9.54325
9.51803
9.48336
9.43517
9.37395
9.29247
9.18914
9.05695
8.89326
8.69165
8.44727
8.15242
7.78901
7.35687
6.82435
6.24586
5.64003
1
1
1
1
1
1
1
1
1
1
1
1
1
1
1
1
1
1
1
1
1
1
1
1
1
1
0.999999
1.05615
6.38965
9.39883
9.38279
9.40747
9.391
9.36533
9.31781
9.25288
9.16621
9.05742
8.92002
8.75173
8.5465
8.30158
8.01059
7.65945
7.24529
6.766
6.26181
5.71289
1
1
1
1
1
1
1
1
1
1
1
1
1
1
1
1
1
1
1
1
1
1
1
1
1
1
1
1.00009
4.12676
8.86927
9.30981
9.3421
9.31246
9.27626
9.21948
9.14517
9.04962
8.93288
8.79095
8.6199
8.41358
8.1737
7.88655
7.54886
7.15689
6.72353
6.27434
5.77712
1
1
1
1
1
1
1
1
1
1
1
1
1
1
1
1
1
1
1
1
1
1
1
1
1
1
1
0.999998
2.02679
8.12426
9.33397
9.26006
9.21271
9.17064
9.11321
9.03583
8.93566
8.81453
8.66764
8.49836
8.29165
8.05884
7.7732
7.45257
7.08752
6.69243
6.28333
5.82608
1
1
1
1
1
1
1
1
1
1
1
1
1
1
1
1
1
1
1
1
1
1
1
1
1
1
1
1
1.09431
6.37634
9.1409
9.138
9.10662
9.06844
9.01155
8.93218
8.82923
8.70551
8.55729
8.38511
8.18588
7.95343
7.67791
7.37582
7.03454
6.67392
6.29093
5.87568
1
1
1
1
1
1
1
1
1
1
1
1
1
1
1
1
1
1
1
1
1
1
1
1
1
1
1
1
1.00047
3.82447
8.59882
9.05281
9.02768
8.99972
8.94157
8.85112
8.73825
8.60752
8.45535
8.28074
8.08799
7.85468
7.5942
7.30878
6.98862
6.65683
6.29476
5.91735
1
1
1
1
1
1
1
1
1
1
1
1
1
1
1
1
1
1
1
1
1
1
1
1
1
1
1
1
0.999996
1.59618
7.68782
9.18378
9.00341
8.92336
8.85024
8.75151
8.63751
8.51005
8.36092
8.18576
7.99752
7.77197
7.52572
7.25383
6.95365
6.64362
6.30387
5.95807
1
1
1
1
1
1
1
1
1
1
1
1
1
1
1
1
1
1
1
1
1
1
1
1
1
1
1
1
0.999999
1.03124
5.71997
8.75903
8.79311
8.81466
8.74629
8.6473
8.53826
8.41654
8.27101
8.10247
7.91208
7.69823
7.4644
7.20347
6.92205
6.62775
6.31019
5.98927
1
1
1
1
1
1
1
1
1
1
1
1
1
1
1
1
1
1
1
1
1
1
1
1
1
1
1
1
1
0.999944
2.94972
8.09944
8.78599
8.7622
8.67359
8.57765
8.47236
8.34984
8.20234
8.03368
7.84317
7.63326
7.40771
7.15837
6.89439
6.61387
6.31864
6.01611
1
1
1
1
1
1
1
1
1
1
1
1
1
1
1
1
1
1
1
1
1
1
1
1
1
1
1
1
1
0.999983
1.26965
6.65792
8.82864
8.68117
8.5872
8.49652
8.39476
8.27329
8.1275
7.96262
7.77866
7.57593
7.35706
7.11841
6.86634
6.59843
6.32175
6.03481
1
1
1
1
1
1
1
1
1
1
1
1
1
1
1
1
1
1
1
1
1
1
1
1
1
1
1
1
1
0.999997
1.00578
4.06879
8.24807
8.51427
8.48769
8.42943
8.33636
8.21479
8.06902
7.90635
7.72616
7.52784
7.31353
7.08242
6.83862
6.58465
6.32349
6.05265
1
1
1
1
1
1
1
1
1
1
1
1
1
1
1
1
1
1
1
1
1
1
1
1
1
1
1
1
1
1
0.999982
1.58717
7.14955
8.64544
8.49516
8.39828
8.28823
8.15628
8.0083
7.84788
7.67223
7.4797
7.27284
7.05074
6.81607
6.5746
6.32523
6.0691
1
1
1
1
1
1
1
1
1
1
1
1
1
1
1
1
1
1
1
1
1
1
1
1
1
1
1
1
1
1
0.999995
1.02843
4.83775
8.24997
8.34458
8.30167
8.20999
8.08847
7.9483
7.79365
7.62282
7.43556
7.23531
7.02126
6.79522
6.5636
6.32574
6.08251
1
1
1
1
1
1
1
1
1
1
1
1
1
1
1
1
1
1
1
1
1
1
1
1
1
1
1
1
1
1
0.999999
1.00002
1.90403
7.38196
8.45202
8.3039
8.18027
8.04992
7.9062
7.74956
7.57829
7.39332
7.19784
6.99158
6.7761
6.55515
6.33032
6.09879
1
1
1
1
1
1
1
1
1
1
1
1
1
1
1
1
1
1
1
1
1
1
1
1
1
1
1
1
1
1
1
1
1.06353
5.27861
8.17621
8.19021
8.10626
7.98819
7.85028
7.69695
7.52939
7.34954
7.16048
6.96344
6.75958
6.54886
6.33533
6.11339
1
1
1
1
1
1
1
1
1
1
1
1
1
1
1
1
1
1
1
1
1
1
1
1
1
1
1
1
1
1
1
1
1.00025
2.17167
7.36428
8.22314
8.07918
7.95096
7.81065
7.65775
7.49221
7.31678
7.13397
6.94424
6.74964
6.54746
6.34217
6.12673
1
1
1
1
1
1
1
1
1
1
1
1
1
1
1
1
1
1
1
1
1
1
1
1
1
1
1
1
1
1
1
1
1
1.10096
5.36936
8.04942
8.0106
7.89321
7.75963
7.61088
7.44993
7.28073
7.10477
6.92355
6.73782
6.54481
6.34326
6.13218
1
1
1
1
1
1
1
1
1
1
1
1
1
1
1
1
1
1
1
1
1
1
1
1
1
1
1
1
1
1
1
1
1
1.00077
2.23841
7.19095
8.01763
7.86085
7.72645
7.57576
7.41599
7.25268
7.08564
6.91402
6.73583
6.54495
6.34345
6.13579
1
1
1
1
1
1
1
1
1
1
1
1
1
1
1
1
1
1
1
1
1
1
1
1
1
1
1
1
1
1
1
1
1
1
1.11062
5.17397
7.86042
7.81036
7.67668
7.5298
7.37629
7.22384
7.06782
6.90399
6.72487
6.53356
6.33236
6.16164
1
1
1
1
1
1
1
1
1
1
1
1
1
1
1
1
1
1
1
1
1
1
1
1
1
1
1
1
1
1
1
1
1
1
1.00104
2.14577
6.88063
7.79774
7.63418
7.49743
7.35356
7.2134
7.06323
6.89504
6.71493
6.51951
6.37861
6.34945
1
1
1
1
1
1
1
1
1
1
1
1
1
1
1
1
1
1
1
1
1
1
1
1
1
1
1
1
1
1
1
1
1
1
1
1.09411
4.65159
7.59838
7.59431
7.46241
7.33436
7.20052
7.04526
6.8679
6.69096
6.55319
6.60932
6.91946
1
1
1
1
1
1
1
1
1
1
1
1
1
1
1
1
1
1
1
1
1
1
1
1
1
1
1
1
1
1
1
1
1
1
1
1.00093
1.87956
6.38466
7.57975
7.44982
7.34227
7.19615
7.02073
6.84747
6.74189
6.86079
7.31851
7.77578
1
1
1
1
1
1
1
1
1
1
1
1
1
1
1
1
1
1
1
1
1
1
1
1
1
1
1
1
1
1
1
1
1
1
1
1
1.057
3.74958
7.23252
7.46258
7.32602
7.15247
6.98616
6.88065
7.06598
7.67849
8.19467
8.39708
1
1
1
1
1
1
1
1
1
1
1
1
1
1
1
1
1
1
1
1
1
1
1
1
1
1
1
1
1
1
1
1
1
1
1
1
1.00053
1.5086
5.70096
7.52556
7.27646
7.11155
7.02185
7.28146
8.02643
8.6211
8.73176
8.6573
1
1
1
1
1
1
1
1
1
1
1
1
1
1
1
1
1
1
1
1
1
1
1
1
1
1
1
1
1
1
1
1
1
1
1
1
1
1.02061
2.78515
6.8643
7.11337
7.06763
7.42484
8.34309
9.04117
9.14778
8.97443
8.77647
1
1
1
1
1
1
1
1
1
1
1
1
1
1
1
1
1
1
1
1
1
1
1
1
1
1
1
1
1
1
1
1
1
1
1
1
1
1.00015
1.2187
4.75632
6.82479
7.63831
8.71642
9.4704
9.5758
9.31364
9.07791
8.86852
1
1
1
1
1
1
1
1
1
1
1
1
1
1
1
1
1
1
1
1
1
1
1
1
1
1
1
1
1
1
1
1
1
1
1
1
1
1
1.0049
1.9652
5.75306
9.07255
9.79999
9.96423
9.75757
9.39689
9.15869
8.97331
1
1
1
1
1
1
1
1
1
1
1
1
1
1
1
1
1
1
1
1
1
1
1
1
1
1
1
1
1
1
1
1
1
1
1
1
1
1
1.00003
1.06715
4.64067
10.2687
10.3877
10.1245
9.7697
9.46041
9.2765
9.12416
1
1
1
1
1
1
1
1
1
1
1
1
1
1
1
1
1
1
1
1
1
1
1
1
1
1
1
1
1
1
1
1
1
1
1
1
1
1
1
1.00076
3.43014
10.3607
10.5257
10.131
9.82057
9.56475
9.38209
9.24115
1
1
1
1
1
1
1
1
1
1
1
1
1
1
1
1
1
1
1
1
1
1
1
1
1
1
1
1
1
1
1
1
1
1
1
1
1
1
1
1
2.91178
9.72823
10.3103
10.029
9.82917
9.6244
9.48558
9.40171
1
1
1
1
1
1
1
1
1
1
1
1
1
1
1
1
1
1
1
1
1
1
1
1
1
1
1
1
1
1
1
1
1
1
1
1
1
1
1
1
2.25946
8.81697
10.2359
10.0462
9.92958
9.79731
9.67184
9.54733
1
1
1
1
1
1
1
1
1
1
1
1
1
1
1
1
1
1
1
1
1
1
1
1
1
1
1
1
1
1
1
1
1
1
1
1
1
1
1
1
1.60737
8.10733
10.3098
10.0868
9.97625
9.85518
9.73266
9.59597
1
1
1
1
1
1
1
1
1
1
1
1
1
1
1
1
1
1
1
1
1
1
1
1
1
1
1
1
1
1
1
1
1
1
1
1
1
1
1
1
1.07993
7.12247
10.2366
10.0724
9.99516
9.90105
9.80101
9.68821
1
1
1
1
1
1
1
1
1
1
1
1
1
1
1
1
1
1
1
1
1
1
1
1
1
1
1
1
1
1
1
1
1
1
1
1
1
1
1
1
1.00108
6.16514
10.1086
10.064
9.98519
9.89718
9.80176
9.6946
1
1
1
1
1
1
1
1
1
1
1
1
1
1
1
1
1
1
1
1
1
1
1
1
1
1
1
1
1
1
1
1
1
1
1
1
1
1
1
1
0.999998
5.14563
9.89704
10.0643
9.99022
9.91972
9.83459
9.73774
1
1
1
1
1
1
1
1
1
1
1
1
1
1
1
1
1
1
1
1
1
1
1
1
1
1
1
1
1
1
1
1
1
1
1
1
1
1
1
1
1
4.21378
9.62193
10.0716
9.99223
9.92807
9.84087
9.75607
1
1
1
1
1
1
1
1
1
1
1
1
1
1
1
1
1
1
1
1
1
1
1
1
1
1
1
1
1
1
1
1
1
1
1
1
1
1
1
1
1
3.33822
9.27885
10.1314
10.0432
9.98061
9.8907
9.79844
1
1
1
1
1
1
1
1
1
1
1
1
1
1
1
1
1
1
1
1
1
1
1
1
1
1
1
1
1
1
1
1
1
1
1
1
1
1
1
1
1
2.51782
8.86801
10.253
10.0883
10.0027
9.90641
9.8156
1
1
1
1
1
1
1
1
1
1
1
1
1
1
1
1
1
1
1
1
1
1
1
1
1
1
1
1
1
1
1
1
1
1
1
1
1
1
1
1
1
1.81339
8.39106
10.3669
10.1507
10.0459
9.94422
9.85041
1
1
1
1
1
1
1
1
1
1
1
1
1
1
1
1
1
1
1
1
1
1
1
1
1
1
1
1
1
1
1
1
1
1
1
1
1
1
1
1
1
1.3552
7.80721
10.4002
10.1652
10.0541
9.96015
9.87182
1
1
1
1
1
1
1
1
1
1
1
1
1
1
1
1
1
1
1
1
1
1
1
1
1
1
1
1
1
1
1
1
1
1
1
1
1
1
1
1
1
1.12568
7.23604
10.3729
10.1796
10.0883
9.99766
9.90549
1
1
1
1
1
1
1
1
1
1
1
1
1
1
1
1
1
1
1
1
1
1
1
1
1
1
1
1
1
1
1
1
1
1
1
1
1
1
1
1
1
1.00515
6.60597
10.3072
10.2002
10.1096
10.0164
9.92428
1
1
1
1
1
1
1
1
1
1
1
1
1
1
1
1
1
1
1
1
1
1
1
1
1
1
1
1
1
1
1
1
1
1
1
1
1
1
1
1
1
1.00004
5.98159
10.1982
10.2227
10.117
10.0379
9.94985
1
1
1
1
1
1
1
1
1
1
1
1
1
1
1
1
1
1
1
1
1
1
1
1
1
1
1
1
1
1
1
1
1
1
1
1
1
1
1
1
1
1
5.38156
10.0908
10.2238
10.1159
10.0464
9.96054
1
1
1
1
1
1
1
1
1
1
1
1
1
1
1
1
1
1
1
1
1
1
1
1
1
1
1
1
1
1
1
1
1
1
1
1
1
1
1
1
1
1
4.80719
10.0004
10.2525
10.1383
10.0723
9.98896
1
1
1
1
1
1
1
1
1
1
1
1
1
1
1
1
1
1
1
1
1
1
1
1
1
1
1
1
1
1
1
1
1
1
1
1
1
1
1
1
1
1
4.28749
9.89135
10.2834
10.155
10.0862
10.0029
1
1
1
1
1
1
1
1
1
1
1
1
1
1
1
1
1
1
1
1
1
1
1
1
1
1
1
1
1
1
1
1
1
1
1
1
1
1
1
1
1
1
3.83999
9.76067
10.3136
10.1739
10.1025
10.0183
1
1
1
1
1
1
1
1
1
1
1
1
1
1
1
1
1
1
1
1
1
1
1
1
1
1
1
1
1
1
1
1
1
1
1
1
1
1
1
1
1
1
3.47141
9.61071
10.3389
10.192
10.1187
10.0334
1
1
1
1
1
1
1
1
1
1
1
1
1
1
1
1
1
1
1
1
1
1
1
1
1
1
1
1
1
1
1
1
1
1
1
1
1
1
1
1
1
1
3.17216
9.45307
10.3595
10.2056
10.1306
10.0438
1
1
1
1
1
1
1
1
1
1
1
1
1
1
1
1
1
1
1
1
1
1
1
1
1
1
1
1
1
1
1
1
1
1
1
1
1
1
1
1
1
1
2.91552
9.29935
10.3758
10.2162
10.1421
10.0562
1
1
1
1
1
1
1
1
1
1
1
1
1
1
1
1
1
1
1
1
1
1
1
1
1
1
1
1
1
1
1
1
1
1
1
1
1
1
1
1
1
1
2.68343
9.17214
10.3939
10.2273
10.1522
10.0659
1
1
1
1
1
1
1
1
1
1
1
1
1
1
1
1
1
1
1
1
1
1
1
1
1
1
1
1
1
1
1
1
1
1
1
1
1
1
1
1
1
1
2.48221
9.08607
10.4013
10.2353
10.1601
10.074
1
1
1
1
1
1
1
1
1
1
1
1
1
1
1
1
1
1
1
1
1
1
1
1
1
1
1
1
1
1
1
1
1
1
1
1
1
1
1
1
1
1
2.3508
9.0011
10.4049
10.2407
10.1656
10.0791
1
1
1
1
1
1
1
1
1
1
1
1
1
1
1
1
1
1
1
1
1
1
1
1
1
1
1
1
1
1
1
1
1
1
1
1
1
1
1
1
1
1
2.25951
8.925
10.4069
10.2457
10.1719
10.0866
1
1
1
1
1
1
1
1
1
1
1
1
1
1
1
1
1
1
1
1
1
1
1
1
1
1
1
1
1
1
1
1
1
1
1
1
1
1
1
1
1
1
2.19231
8.87131
10.4043
10.2462
10.1731
10.0886
1
1
1
1
1
1
1
1
1
1
1
1
1
1
1
1
1
1
1
1
1
1
1
1
1
1
1
1
1
1
1
1
1
1
1
1
1
1
1
1
1
1
2.16863
8.83734
10.4019
10.2472
10.1753
10.0913
1.18857
0.199232
0.0562475
0.0175338
0.0153696
0.0393174
0.111477
0.197791
0.274979
0.319793
0.364962
0.426649
0.488059
0.556623
0.627351
0.691177
0.752088
0.838575
0.924114
0.952989
0.972877
1.01143
1.01938
1.03339
1.0474
1.05621
1.06799
1.08764
1.1292
1.16313
1.1793
1.18941
1.19565
1.20182
1.55982
4.02099
5.06652
5.17453
5.1894
5.25951
5.35506
5.38692
5.36133
5.35888
5.39106
5.44231
5.48033
5.49463
5.4949
5.49351
5.50198
5.52385
5.55011
5.56895
5.57597
5.57503
5.57212
5.56847
5.56265
5.55511
5.54779
5.5412
5.53349
5.52016
5.49894
5.47377
5.45328
5.44396
5.44498
5.44604
5.43095
5.39573
5.35016
5.30611
5.27208
5.25002
5.235
5.22117
5.20489
5.18512
5.16288
5.1395
5.11526
5.08932
5.06061
5.02974
4.99882
4.96945
4.94148
4.91371
4.88512
4.85593
4.82688
4.79788
4.76842
4.73825
4.70737
4.67587
4.64407
4.61202
4.5801
4.54873
4.5176
4.48584
4.45262
4.41753
4.38133
4.34557
4.31229
4.28329
4.25773
4.232
4.2029
4.16984
4.13399
4.09681
4.05984
4.02482
3.99321
3.96484
3.93794
3.91041
3.88052
3.84804
3.8143
3.78033
3.74657
3.71317
3.68041
3.64869
3.61814
3.58805
3.55927
3.53394
3.51277
3.49258
3.46731
3.43587
3.40207
3.36554
3.33149
3.30234
3.27639
3.25152
3.22805
3.20624
3.18452
3.1621
3.13943
3.11686
3.09402
3.06983
3.04079
3.00601
2.97003
2.93736
2.91069
2.88929
2.874
2.86057
2.8471
2.83247
2.81406
2.79179
2.76262
2.72762
2.69288
2.6649
2.64507
2.63601
2.62849
2.61332
2.59354
2.56799
2.53912
2.51481
2.49671
2.48796
2.48353
2.47335
2.45553
2.42961
2.39519
2.35919
2.35959
2.45856
3.08771
3.72001
3.98414
4.10134
4.23178
4.32716
2.02377
0.965817
0.575949
0.343633
0.158301
0.122337
0.135975
0.162222
0.183162
0.198177
0.216724
0.248247
0.305628
0.382509
0.44928
0.510182
0.568234
0.617694
0.712408
0.778811
0.828971
0.890456
0.942541
0.979743
1.00315
1.03281
1.07344
1.10171
1.1315
1.15455
1.16352
1.16172
1.16174
1.15767
1.24361
3.39507
5.05768
5.20985
5.1949
5.23495
5.34237
5.40998
5.41404
5.38859
5.39401
5.41079
5.4394
5.4669
5.49072
5.50998
5.52311
5.53135
5.53924
5.55006
5.56336
5.57524
5.58201
5.58125
5.57183
5.55678
5.54074
5.52693
5.51578
5.50576
5.49544
5.48379
5.47161
5.45966
5.44745
5.43049
5.40555
5.37463
5.34136
5.30881
5.28147
5.26149
5.24587
5.22966
5.20951
5.18516
5.15852
5.13188
5.10696
5.08417
5.06151
5.03595
5.00669
4.97517
4.94286
4.91134
4.88173
4.85382
4.82658
4.79864
4.76925
4.73852
4.70714
4.67563
4.6439
4.61181
4.57984
4.54836
4.51737
4.48581
4.45225
4.41705
4.38153
4.34672
4.31379
4.28354
4.25631
4.23018
4.20116
4.16844
4.13318
4.09684
4.06078
4.02645
3.99469
3.96548
3.93763
3.90893
3.87821
3.84575
3.81259
3.78007
3.74735
3.71441
3.68136
3.64808
3.61621
3.58618
3.55865
3.53414
3.51218
3.48882
3.46043
3.43039
3.40001
3.36905
3.33573
3.30155
3.27312
3.24826
3.22468
3.20315
3.18255
3.16085
3.13885
3.1151
3.08727
3.05565
3.02368
2.99449
2.96868
2.94503
2.92256
2.9027
2.88516
2.86824
2.84853
2.82142
2.78957
2.76034
2.73683
2.71846
2.70468
2.69194
2.67265
2.64439
2.61511
2.59018
2.56918
2.55175
2.53801
2.52924
2.51996
2.50692
2.48486
2.45498
2.42499
2.39744
2.37489
2.36218
2.374
2.44688
2.87365
3.79972
4.24531
4.29066
4.24972
4.26948
2.9059
1.663
1.12613
0.833867
0.539974
0.399126
0.386927
0.35141
0.285624
0.27978
0.299011
0.307214
0.312989
0.326635
0.35114
0.380473
0.4095
0.441277
0.496469
0.601709
0.688245
0.750201
0.826033
0.893064
0.942256
1.01051
1.06689
1.10515
1.13242
1.15293
1.16064
1.15932
1.16049
1.16162
1.18651
2.4277
5.09662
5.63757
5.50871
5.41534
5.38176
5.39868
5.4294
5.45137
5.45602
5.4485
5.43933
5.44391
5.47188
5.51553
5.55284
5.56344
5.55574
5.54847
5.55148
5.56391
5.57621
5.58225
5.57896
5.56251
5.53838
5.51486
5.49669
5.48736
5.48653
5.49118
5.49533
5.49057
5.4694
5.43632
5.39979
5.36559
5.33643
5.31043
5.28691
5.26665
5.2481
5.22773
5.20378
5.17718
5.15027
5.12516
5.1032
5.08423
5.06515
5.04101
5.00866
4.97056
4.93156
4.89658
4.87
4.85039
4.83017
4.80553
4.77632
4.74342
4.70832
4.67255
4.63764
4.60468
4.57305
4.54279
4.51421
4.4852
4.45258
4.41874
4.3838
4.34846
4.31513
4.2833
4.25454
4.22736
4.1977
4.16549
4.13161
4.09626
4.06087
4.02722
3.99549
3.96619
3.93832
3.90785
3.87634
3.84404
3.81159
3.77942
3.74737
3.71571
3.68414
3.65139
3.61677
3.5844
3.55723
3.53191
3.50732
3.48165
3.45531
3.42857
3.40114
3.37232
3.33998
3.30402
3.27104
3.24573
3.22368
3.20249
3.18094
3.15928
3.13626
3.10934
3.07675
3.04277
3.01593
2.99614
2.9795
2.96319
2.94454
2.92156
2.89349
2.86253
2.82914
2.79603
2.77005
2.75233
2.73919
2.73219
2.72484
2.71067
2.6854
2.64223
2.60157
2.57894
2.56465
2.55443
2.55016
2.54334
2.53008
2.50588
2.46733
2.43205
2.40798
2.39173
2.38613
2.39258
2.42116
2.50075
2.79419
3.50335
4.1773
4.43667
4.33095
4.24904
3.4841
2.377
1.76163
1.34856
0.968824
0.75402
0.704509
0.642239
0.507363
0.459592
0.464691
0.445863
0.395608
0.38428
0.396137
0.411272
0.415071
0.414829
0.426183
0.451384
0.485185
0.529305
0.617801
0.72052
0.81669
0.922188
1.00566
1.04459
1.06114
1.09142
1.10837
1.12216
1.13472
1.16428
1.1974
1.61782
4.8061
6.04955
5.68979
5.5376
5.48473
5.44235
5.42937
5.45111
5.47138
5.46829
5.4557
5.4532
5.46634
5.50616
5.55148
5.56886
5.56301
5.55068
5.54406
5.55451
5.57266
5.58696
5.5889
5.57476
5.55123
5.52821
5.50982
5.49568
5.48925
5.48825
5.48877
5.48376
5.45975
5.42094
5.38051
5.34476
5.31669
5.29682
5.28089
5.26561
5.2497
5.2295
5.20449
5.17821
5.15289
5.12963
5.10797
5.08553
5.06023
5.03134
4.99735
4.9606
4.92682
4.90086
4.88366
4.86709
4.84088
4.80641
4.76828
4.7291
4.69306
4.65973
4.63037
4.60428
4.5779
4.54986
4.51922
4.48593
4.45164
4.41626
4.38053
4.34608
4.31385
4.28384
4.25477
4.22536
4.19507
4.16294
4.12904
4.09492
4.06162
4.02936
3.99825
3.96761
3.93648
3.90464
3.87252
3.84057
3.80913
3.77816
3.7478
3.71755
3.68628
3.6524
3.61677
3.58411
3.55557
3.52911
3.50335
3.47782
3.4524
3.42664
3.40007
3.37152
3.33956
3.30433
3.27134
3.24493
3.22176
3.19912
3.17679
3.15408
3.12943
3.10118
3.0692
3.0391
3.01887
3.00332
2.98783
2.97076
2.95073
2.92335
2.88566
2.84467
2.81121
2.78729
2.77038
2.75733
2.74817
2.7383
2.72448
2.70548
2.67433
2.63619
2.60496
2.58519
2.57304
2.56435
2.55411
2.54073
2.51942
2.4839
2.44852
2.42559
2.41226
2.40461
2.4149
2.4466
2.54513
2.76847
2.99754
3.30838
3.82898
4.27204
4.36256
4.27517
3.95619
2.99574
2.32318
1.87874
1.51208
1.19311
1.0421
0.938142
0.784984
0.663876
0.657046
0.635604
0.561778
0.526862
0.5343
0.528204
0.496499
0.479063
0.477644
0.475853
0.476378
0.47948
0.491994
0.516759
0.564584
0.639415
0.747375
0.836299
0.895437
0.965517
1.01844
1.06782
1.10004
1.16779
1.27273
1.46687
3.78488
6.12213
5.99396
5.73434
5.67253
5.5862
5.5211
5.50418
5.52194
5.53739
5.53858
5.52705
5.52341
5.53609
5.55534
5.56602
5.57376
5.5794
5.57629
5.57575
5.5727
5.56333
5.54998
5.54081
5.53394
5.52073
5.50594
5.48909
5.47472
5.4634
5.45626
5.45146
5.4361
5.40623
5.3735
5.34607
5.32925
5.3211
5.3123
5.2927
5.26421
5.22968
5.19263
5.16198
5.13723
5.11837
5.10055
5.07783
5.05086
5.02192
4.99205
4.96231
4.93542
4.91324
4.88892
4.85571
4.81819
4.778
4.74199
4.71151
4.68749
4.66789
4.64642
4.61861
4.58574
4.54964
4.51083
4.47244
4.43712
4.40489
4.37492
4.3466
4.31809
4.28802
4.25611
4.22294
4.18935
4.15588
4.12334
4.0924
4.0622
4.03164
3.99961
3.96596
3.93196
3.89894
3.86719
3.83656
3.8065
3.77687
3.74736
3.71725
3.6854
3.65105
3.61626
3.58408
3.55456
3.52666
3.49998
3.47438
3.44931
3.42396
3.39748
3.36908
3.33825
3.30601
3.27511
3.24677
3.22033
3.19542
3.17159
3.14782
3.12308
3.09684
3.0699
3.04442
3.02174
3.00229
2.98401
2.96472
2.94256
2.9136
2.8759
2.8388
2.81285
2.79492
2.77926
2.76425
2.74934
2.73416
2.71567
2.6892
2.66007
2.63799
2.62063
2.60158
2.58138
2.56415
2.54892
2.52961
2.50164
2.47035
2.44731
2.42883
2.41978
2.42121
2.44683
2.55407
2.80724
3.06592
3.16373
3.23371
3.43471
3.86827
4.23377
4.24902
4.31621
3.48913
2.85653
2.36565
1.98393
1.63951
1.39824
1.26526
1.11652
0.900501
0.832734
0.808544
0.74021
0.675461
0.67507
0.666766
0.622582
0.590811
0.587132
0.570103
0.535172
0.525342
0.530627
0.534738
0.53328
0.539379
0.561632
0.592852
0.639234
0.703412
0.802908
0.910087
1.0182
1.17038
1.38765
1.58737
2.33253
5.5071
6.23101
5.99235
5.80096
5.64644
5.54812
5.51487
5.52697
5.54783
5.54813
5.52955
5.50919
5.51389
5.5379
5.56928
5.59723
5.60891
5.59571
5.57315
5.55525
5.544
5.53602
5.53366
5.53949
5.538
5.52693
5.51206
5.48999
5.47119
5.45642
5.44595
5.4374
5.4206
5.39981
5.38024
5.36251
5.3419
5.3142
5.28159
5.23866
5.19536
5.16476
5.14199
5.12995
5.12284
5.10838
5.08351
5.05237
5.01717
4.98539
4.95562
4.92866
4.90233
4.86894
4.83352
4.79952
4.7695
4.74508
4.72614
4.70752
4.68184
4.65046
4.61283
4.57113
4.53143
4.49541
4.46257
4.43277
4.40581
4.37943
4.35118
4.3211
4.28892
4.25392
4.21744
4.18214
4.14965
4.11986
4.09119
4.06206
4.03116
3.99729
3.96137
3.92628
3.89364
3.86301
3.8333
3.80367
3.77387
3.74371
3.71284
3.68054
3.64719
3.61498
3.58471
3.55527
3.52598
3.49729
3.4701
3.44443
3.41915
3.3932
3.3659
3.33713
3.30766
3.27825
3.24911
3.22059
3.19322
3.16723
3.14248
3.11868
3.09565
3.0731
3.04961
3.02426
2.99889
2.97565
2.9532
2.92851
2.89992
2.86882
2.8429
2.82523
2.81049
2.79538
2.77767
2.75519
2.72509
2.69148
2.6681
2.65519
2.64525
2.63419
2.61914
2.59839
2.5695
2.53527
2.50562
2.48394
2.46745
2.45469
2.44464
2.44454
2.47335
2.58285
2.84388
3.1114
3.2355
3.27482
3.27391
3.29573
3.45356
3.83866
4.15105
4.59733
3.89836
3.28897
2.75669
2.41104
2.09414
1.72882
1.53305
1.41775
1.21734
1.03786
0.995867
0.939263
0.846428
0.827919
0.817509
0.776625
0.716903
0.69807
0.676029
0.629836
0.61239
0.613952
0.607852
0.58418
0.581129
0.581923
0.575139
0.571048
0.576932
0.606601
0.674356
0.839747
1.08616
1.4293
1.63443
1.73173
3.53969
5.9714
6.15106
5.92373
5.75465
5.6597
5.6018
5.58467
5.58086
5.57114
5.55046
5.53673
5.54953
5.57638
5.60342
5.60984
5.59929
5.58384
5.57759
5.57064
5.56256
5.55699
5.55316
5.55766
5.56787
5.55912
5.54111
5.51419
5.48067
5.45638
5.43752
5.42428
5.41276
5.39506
5.37255
5.34525
5.3127
5.27615
5.23908
5.20717
5.18159
5.16603
5.15952
5.15583
5.14106
5.11254
5.07832
5.03689
5.00043
4.97078
4.94475
4.92378
4.898
4.86637
4.83498
4.80743
4.78327
4.76019
4.73358
4.70278
4.66773
4.6287
4.58986
4.55497
4.52407
4.49579
4.46862
4.44012
4.40973
4.37835
4.34641
4.31415
4.2815
4.24801
4.2138
4.18009
4.14806
4.11759
4.08763
4.05708
4.02464
3.98982
3.95422
3.9203
3.88872
3.85861
3.82889
3.79881
3.76798
3.73641
3.70432
3.6721
3.64121
3.61282
3.58551
3.55747
3.52771
3.4965
3.46584
3.43776
3.41197
3.38684
3.36113
3.33442
3.30695
3.27903
3.25086
3.22247
3.19397
3.16591
3.13926
3.11499
3.09299
3.07205
3.05014
3.02543
2.99743
2.96854
2.94077
2.91291
2.88572
2.86528
2.8491
2.83261
2.81573
2.79885
2.77976
2.7538
2.71846
2.68364
2.66328
2.65082
2.63948
2.62978
2.61737
2.60051
2.57199
2.53113
2.49787
2.47638
2.46263
2.45478
2.45988
2.49573
2.61817
2.87888
3.15561
3.26952
3.31697
3.32655
3.30404
3.27206
3.28836
3.42156
3.858
4.80826
4.19985
3.64259
3.10914
2.74456
2.44878
2.10565
1.79504
1.65712
1.49824
1.29089
1.20941
1.15538
1.05045
0.995385
0.966464
0.916794
0.842579
0.804651
0.778483
0.732895
0.704119
0.704624
0.700557
0.679502
0.655391
0.638862
0.617072
0.607585
0.613654
0.649853
0.749236
0.88206
1.03846
1.20251
1.36341
1.39649
1.70239
4.41794
6.13601
5.9819
5.82189
5.73711
5.67072
5.61703
5.58132
5.57649
5.59383
5.60481
5.60973
5.60835
5.59453
5.5769
5.57711
5.58556
5.59038
5.58753
5.57192
5.55573
5.54419
5.5425
5.55108
5.54917
5.52945
5.50343
5.47091
5.44234
5.41995
5.40325
5.3911
5.37137
5.34716
5.31918
5.28838
5.25958
5.23354
5.21471
5.20567
5.2003
5.18833
5.1639
5.13296
5.09293
5.05133
5.01763
4.98927
4.96636
4.94938
4.93061
4.90328
4.87209
4.8394
4.80929
4.78094
4.7513
4.71953
4.68576
4.64985
4.61442
4.58324
4.55596
4.53105
4.50444
4.47417
4.44086
4.4044
4.36811
4.33516
4.30466
4.27494
4.24511
4.21444
4.18226
4.14857
4.1143
4.08036
4.04679
4.01316
3.97951
3.94667
3.91514
3.88455
3.85444
3.82443
3.79404
3.7626
3.72949
3.69514
3.66258
3.63461
3.60949
3.58468
3.55879
3.5305
3.49893
3.46511
3.43256
3.40409
3.37882
3.35437
3.3294
3.3036
3.27719
3.25039
3.22311
3.19517
3.16687
3.13924
3.11355
3.09018
3.06824
3.04628
3.02237
2.99368
2.95967
2.92686
2.90264
2.88605
2.87202
2.85727
2.83945
2.81817
2.79451
2.77031
2.74361
2.71508
2.69061
2.66938
2.65097
2.63774
2.62687
2.61491
2.59524
2.56594
2.53173
2.502
2.4813
2.47122
2.47434
2.51075
2.63869
2.91208
3.18105
3.30638
3.36032
3.37082
3.35809
3.32902
3.27381
3.2395
3.25407
3.51703
4.99984
4.45396
3.91985
3.42295
3.06227
2.73695
2.40085
2.09506
1.9107
1.74583
1.55493
1.44006
1.36905
1.25812
1.17689
1.12956
1.06576
0.96823
0.914114
0.888795
0.855529
0.823389
0.813353
0.802277
0.779955
0.741948
0.713686
0.689776
0.688026
0.71056
0.80663
0.939345
1.03478
1.13304
1.18524
1.21005
1.22693
1.24681
1.96079
4.95266
5.87992
5.81107
5.77852
5.7294
5.66168
5.59713
5.58531
5.6225
5.65829
5.64983
5.62818
5.58977
5.57036
5.57313
5.59048
5.60294
5.59691
5.57848
5.55003
5.52971
5.51443
5.51233
5.51434
5.50568
5.48649
5.46351
5.43866
5.41703
5.40033
5.3852
5.36306
5.33815
5.31087
5.28503
5.26228
5.24617
5.24049
5.23576
5.21686
5.18636
5.14805
5.10352
5.06436
5.03302
5.00695
4.98925
4.97669
4.95888
4.93161
4.90011
4.86471
4.8291
4.79621
4.76531
4.73538
4.70563
4.67571
4.64635
4.61876
4.59259
4.56503
4.53449
4.50151
4.4658
4.42859
4.39198
4.35813
4.32743
4.29884
4.27105
4.2426
4.21271
4.18052
4.14552
4.10868
4.0715
4.03525
4.00093
3.96893
3.93869
3.90908
3.87925
3.849
3.81866
3.78833
3.75724
3.7238
3.6874
3.65321
3.62643
3.60284
3.57959
3.55596
3.53082
3.50249
3.46962
3.43339
3.39853
3.36903
3.3439
3.32027
3.29649
3.27207
3.24689
3.22089
3.1942
3.16711
3.14009
3.11356
3.08813
3.06395
3.04067
3.01683
2.98909
2.95385
2.91866
2.89961
2.88633
2.87492
2.86148
2.84462
2.8221
2.78962
2.75403
2.72781
2.71178
2.69797
2.68177
2.6616
2.63823
2.61407
2.59135
2.5702
2.54757
2.52954
2.51351
2.49798
2.49657
2.52895
2.65497
2.94004
3.21746
3.32412
3.37376
3.39552
3.39148
3.36824
3.33335
3.27761
3.23323
3.2278
3.32488
5.14962
4.65465
4.1486
3.70046
3.33882
3.00536
2.66518
2.39045
2.1753
1.99292
1.8071
1.68352
1.57607
1.45547
1.35665
1.28156
1.20067
1.11103
1.04331
1.0023
0.97098
0.940801
0.913078
0.889958
0.866681
0.832268
0.800414
0.80383
0.834681
0.92715
1.11238
1.19253
1.22996
1.25477
1.28497
1.3015
1.31067
1.33353
1.36176
2.3522
5.05715
5.90264
5.86591
5.78812
5.69183
5.625
5.60981
5.64634
5.69169
5.68363
5.65467
5.59634
5.56883
5.56787
5.58995
5.60615
5.59812
5.57862
5.55373
5.53353
5.51421
5.49912
5.48878
5.47983
5.46898
5.45698
5.4425
5.42721
5.41245
5.39404
5.37025
5.34448
5.31813
5.29347
5.27243
5.25903
5.25093
5.23275
5.20296
5.16698
5.12318
5.08097
5.04875
5.02332