/*--------------------------------*- C++ -*----------------------------------*\
  =========                 |
  \\      /  F ield         | OpenFOAM: The Open Source CFD Toolbox
   \\    /   O peration     | Website:  https://openfoam.org
    \\  /    A nd           | Version:  10
     \\/     M anipulation  |
\*---------------------------------------------------------------------------*/
FoamFile
{
    format      ascii;
    class       volScalarField;
    location    "7.5";
    object      T;
}
// * * * * * * * * * * * * * * * * * * * * * * * * * * * * * * * * * * * * * //

dimensions      [0 0 0 1 0 0 0];

internalField   nonuniform List<scalar> 
16128
(
1
1
1
1
1
1
1
1
1
1
1
1
1
1
1
1
1
1
1
1
1
1
1
1
2.07466
2.6875
2.70341
2.7101
2.71838
2.72623
2.73397
2.74144
2.74856
2.75511
2.76106
2.76665
2.77207
2.77727
2.78211
2.78661
2.7909
2.79497
2.79856
2.80141
2.80388
2.80597
2.80758
2.80927
1
1
1
1
1
1
1
1
1
1
1
1
1
1
1
1
1
1
1
1
1
1
1
1
2.06328
2.68472
2.7032
2.70994
2.7182
2.72602
2.73371
2.74113
2.74818
2.75469
2.76062
2.76619
2.77154
2.77664
2.78146
2.786
2.79031
2.79423
2.79759
2.80032
2.80288
2.80508
2.80668
2.80847
1
1
1
1
1
1
1
1
1
1
1
1
1
1
1
1
1
1
1
1
1
1
1
1
2.03596
2.68036
2.70238
2.70919
2.71749
2.7253
2.73297
2.74034
2.74734
2.75384
2.7598
2.76535
2.77062
2.77566
2.78053
2.78518
2.78943
2.79306
2.79614
2.79883
2.80153
2.80378
2.80505
2.80688
1
1
1
1
1
1
1
1
1
1
1
1
1
1
1
1
1
1
1
1
1
1
1
1
1.99426
2.67258
2.70081
2.70785
2.71628
2.72411
2.73172
2.73899
2.74589
2.75234
2.75831
2.76385
2.76907
2.77409
2.77902
2.78373
2.78793
2.79137
2.79431
2.79702
2.79965
2.80166
2.80222
2.80469
1
1
1
1
1
1
1
1
1
1
1
1
1
1
1
1
1
1
1
1
1
1
1
1
1.93773
2.66074
2.69794
2.70548
2.71424
2.72218
2.72978
2.73695
2.74371
2.75009
2.75606
2.76163
2.76685
2.77184
2.77674
2.78141
2.78553
2.78895
2.79202
2.79489
2.79745
2.79936
2.79803
2.8016
1
1
1
1
1
1
1
1
1
1
1
1
1
1
1
1
1
1
1
1
1
1
1
1
1.86319
2.64307
2.69353
2.70206
2.71143
2.71962
2.7273
2.73442
2.7411
2.74742
2.75342
2.75906
2.76433
2.76929
2.77409
2.7786
2.78259
2.78595
2.78901
2.79177
2.79403
2.79581
2.79395
2.79787
1
1
1
1
1
1
1
1
1
1
1
1
1
1
1
1
1
1
1
1
1
1
1
1
1.77017
2.61771
2.68788
2.69751
2.70754
2.71598
2.72374
2.73084
2.73743
2.74368
2.74969
2.75542
2.76082
2.76583
2.77055
2.77491
2.77879
2.78211
2.78509
2.78776
2.78988
2.79198
2.79048
2.79227
1
1
1
1
1
1
1
1
1
1
1
1
1
1
1
1
1
1
1
1
1
1
1
1
1.65914
2.58558
2.68242
2.69233
2.70277
2.71121
2.71891
2.7259
2.73235
2.73851
2.74456
2.75046
2.7561
2.76126
2.76601
2.7703
2.7741
2.77739
2.78031
2.78279
2.78428
2.78568
2.78539
2.78823
1
1
1
1
1
1
1
1
1
1
1
1
1
1
1
1
1
1
1
1
1
1
1
1
1.52647
2.54148
2.67793
2.68641
2.69719
2.70545
2.71318
2.72023
2.72671
2.73285
2.7389
2.74488
2.75066
2.75593
2.76065
2.76482
2.76847
2.77164
2.77445
2.77681
2.77817
2.7792
2.7786
2.78141
1
1
1
1
1
1
1
1
1
1
1
1
1
1
1
1
1
1
1
1
1
1
1
1
1.36232
2.47388
2.67326
2.67917
2.68981
2.69764
2.70553
2.71292
2.71975
2.7261
2.73227
2.73832
2.74422
2.74958
2.75428
2.75832
2.7618
2.7648
2.76747
2.76979
2.77126
2.77215
2.76977
2.77285
1
1
1
1
1
1
1
1
1
1
1
1
1
1
1
1
1
1
1
1
1
1
1
1
1.17028
2.39351
2.67516
2.67201
2.68011
2.68778
2.69629
2.70426
2.71151
2.71816
2.7245
2.73065
2.73663
2.74209
2.74682
2.75075
2.75399
2.75666
2.75889
2.7608
2.76193
2.76237
2.75912
2.76359
1
1
1
1
1
1
1
1
1
1
1
1
1
1
1
1
1
1
1
1
1
1
1
1
1.00965
2.31374
2.67096
2.66989
2.67526
2.68123
2.68831
2.69581
2.70309
2.70971
2.71593
2.72196
2.72785
2.7333
2.738
2.74184
2.7448
2.74713
2.74896
2.75052
2.75107
2.75065
2.74629
2.74975
1
1
1
1
1
1
1
1
1
1
1
1
1
1
1
1
1
1
1
1
1
1
1
1
1.00004
2.20094
2.66947
2.67049
2.6749
2.68016
2.68552
2.69075
2.69591
2.70147
2.70701
2.71251
2.71797
2.72315
2.72773
2.73148
2.73426
2.73614
2.7369
2.73718
2.73613
2.73443
2.72876
2.73296
1
1
1
1
1
1
1
1
1
1
1
1
1
1
1
1
1
1
1
1
1
1
1
1
1
2.05073
2.65361
2.66917
2.67365
2.67842
2.68236
2.68628
2.6904
2.69439
2.69834
2.70264
2.70715
2.71169
2.71598
2.7195
2.72165
2.72279
2.72241
2.72158
2.71942
2.71636
2.70719
2.7042
1
1
1
1
1
1
1
1
1
1
1
1
1
1
1
1
1
1
1
1
1
1
1
1
1
1.85431
2.60424
2.66128
2.67031
2.67668
2.68095
2.68389
2.68624
2.68842
2.69077
2.69339
2.69628
2.69964
2.70314
2.70576
2.70701
2.70726
2.70574
2.70282
2.69667
2.68696
2.67091
2.66432
1
1
1
1
1
1
1
1
1
1
1
1
1
1
1
1
1
1
1
1
1
1
1
1
1
1.5979
2.50579
2.63898
2.65626
2.66747
2.67482
2.67931
2.68206
2.68368
2.68452
2.68522
2.68627
2.68786
2.68945
2.69064
2.6905
2.68939
2.68574
2.67964
2.66892
2.65608
2.63685
2.6403
1
1
1
1
1
1
1
1
1
1
1
1
1
1
1
1
1
1
1
1
1
1
1
1
1
1.25601
2.37818
2.62192
2.63493
2.64997
2.66126
2.66901
2.67415
2.67715
2.67812
2.67784
2.67734
2.67711
2.67602
2.6751
2.67297
2.66965
2.6633
2.65412
2.63685
2.61053
2.54453
2.39877
1
1
1
1
1
1
1
1
1
1
1
1
1
1
1
1
1
1
1
1
1
1
1
1
1
1.01923
2.2716
2.62435
2.62151
2.6289
2.64054
2.65164
2.66045
2.66647
2.66929
2.66925
2.66819
2.66636
2.66319
2.65977
2.6549
2.64874
2.63888
2.6246
2.59934
2.55192
2.47612
2.27139
1
1
1
1
1
1
1
1
1
1
1
1
1
1
1
1
1
1
1
1
1
1
1
1
1
1.00006
2.09758
2.60532
2.60814
2.61415
2.62235
2.63245
2.64266
2.6509
2.65651
2.65842
2.65755
2.65519
2.65085
2.64524
2.6373
2.62767
2.61377
2.59381
2.56243
2.50921
2.41317
2.21181
1
1
1
1
1
1
1
1
1
1
1
1
1
1
1
1
1
1
1
1
1
1
1
1
1
0.999999
1.83413
2.56142
2.60882
2.61167
2.61512
2.61961
2.62622
2.63334
2.64014
2.64424
2.6442
2.64237
2.63774
2.63077
2.62045
2.60741
2.5894
2.56452
2.52748
2.4724
2.36644
2.19849
1
1
1
1
1
1
1
1
1
1
1
1
1
1
1
1
1
1
1
1
1
1
1
1
1
1
1.45644
2.44146
2.60223
2.60494
2.60818
2.61063
2.61425
2.61799
2.62296
2.62729
2.6284
2.62726
2.62304
2.61564
2.60414
2.58851
2.56715
2.53822
2.49759
2.44054
2.33925
2.20699
1
1
1
1
1
1
1
1
1
1
1
1
1
1
1
1
1
1
1
1
1
1
1
1
1
1
1.05962
2.29441
2.60081
2.59809
2.59963
2.602
2.60374
2.60464
2.60666
2.6093
2.61066
2.60994
2.60634
2.59923
2.58758
2.57055
2.54734
2.51583
2.47344
2.41452
2.32495
2.21994
1
1
1
1
1
1
1
1
1
1
1
1
1
1
1
1
1
1
1
1
1
1
1
1
1
1
1.00077
2.11379
2.5646
2.578
2.58633
2.59119
2.59299
2.59272
2.59246
2.59258
2.59243
2.59129
2.58775
2.58106
2.5699
2.55294
2.52929
2.49694
2.4546
2.39605
2.31804
2.2315
1
1
1
1
1
1
1
1
1
1
1
1
1
1
1
1
1
1
1
1
1
1
1
1
1
1
0.999993
1.77512
2.49766
2.56056
2.57462
2.58079
2.58271
2.58241
2.58109
2.57915
2.57668
2.57367
2.56909
2.56209
2.55121
2.53499
2.51211
2.48051
2.43968
2.38401
2.3163
2.24153
1
1
1
1
1
1
1
1
1
1
1
1
1
1
1
1
1
1
1
1
1
1
1
1
1
1
0.999998
1.2967
2.36375
2.55247
2.55746
2.56457
2.56846
2.56963
2.56861
2.56615
2.56224
2.5573
2.55101
2.54291
2.53179
2.51631
2.49486
2.46517
2.4267
2.37583
2.31688
2.25066
1
1
1
1
1
1
1
1
1
1
1
1
1
1
1
1
1
1
1
1
1
1
1
1
1
1
1
1.0226
2.21467
2.53592
2.53688
2.54408
2.54933
2.55356
2.55407
2.55255
2.54868
2.54282
2.53503
2.5254
2.51327
2.49778
2.47742
2.44995
2.41418
2.36907
2.31797
2.25832
1
1
1
1
1
1
1
1
1
1
1
1
1
1
1
1
1
1
1
1
1
1
1
1
1
1
1
1.00006
1.89693
2.48719
2.52445
2.5334
2.53497
2.53791
2.53898
2.538
2.53468
2.52879
2.52041
2.50968
2.49637
2.4805
2.46031
2.43456
2.40181
2.3623
2.31776
2.26481
1
1
1
1
1
1
1
1
1
1
1
1
1
1
1
1
1
1
1
1
1
1
1
1
1
1
1
1
1.38588
2.369
2.51776
2.51746
2.519
2.52127
2.52257
2.52191
2.51923
2.51405
2.50589
2.49523
2.48121
2.46498
2.44409
2.41956
2.38965
2.35478
2.31581
2.26847
1
1
1
1
1
1
1
1
1
1
1
1
1
1
1
1
1
1
1
1
1
1
1
1
1
1
1
1
1.03744
2.19955
2.49989
2.50114
2.50274
2.50503
2.50624
2.50554
2.5031
2.49853
2.49117
2.48091
2.46758
2.45091
2.4301
2.40648
2.37846
2.34717
2.31184
2.27036
1
1
1
1
1
1
1
1
1
1
1
1
1
1
1
1
1
1
1
1
1
1
1
1
1
1
1
1
1.00021
1.82596
2.43939
2.48443
2.48812
2.4916
2.49228
2.49077
2.48759
2.48279
2.47577
2.46611
2.45394
2.43739
2.41763
2.39494
2.36829
2.33952
2.30644
2.2696
1
1
1
1
1
1
1
1
1
1
1
1
1
1
1
1
1
1
1
1
1
1
1
1
1
1
1
1
0.999999
1.23149
2.29917
2.48535
2.47639
2.47737
2.477
2.47469
2.47119
2.4666
2.46007
2.4509
2.43979
2.42451
2.40631
2.3848
2.35969
2.33266
2.30158
2.26831
1
1
1
1
1
1
1
1
1
1
1
1
1
1
1
1
1
1
1
1
1
1
1
1
1
1
1
1
1
1.01238
2.11368
2.45241
2.45495
2.46189
2.46023
2.45769
2.45463
2.45049
2.44427
2.43583
2.42501
2.41132
2.39483
2.37475
2.35154
2.32594
2.29686
2.26618
1
1
1
1
1
1
1
1
1
1
1
1
1
1
1
1
1
1
1
1
1
1
1
1
1
1
1
1
1
1
1.62882
2.3629
2.44475
2.44937
2.44691
2.44421
2.44102
2.43654
2.43
2.42152
2.41083
2.39788
2.38271
2.3643
2.34323
2.31929
2.29257
2.26382
1
1
1
1
1
1
1
1
1
1
1
1
1
1
1
1
1
1
1
1
1
1
1
1
1
1
1
1
1
0.999997
1.10551
2.19959
2.44207
2.43309
2.43156
2.42977
2.42684
2.42217
2.41546
2.40705
2.3968
2.38453
2.37025
2.3533
2.33393
2.31179
2.28741
2.26057
1
1
1
1
1
1
1
1
1
1
1
1
1
1
1
1
1
1
1
1
1
1
1
1
1
1
1
1
1
0.999999
1.00229
1.85173
2.38272
2.40926
2.41347
2.41508
2.41345
2.40914
2.40243
2.39401
2.38386
2.37181
2.35792
2.34186
2.32374
2.30354
2.28133
2.25672
1
1
1
1
1
1
1
1
1
1
1
1
1
1
1
1
1
1
1
1
1
1
1
1
1
1
1
1
1
1
0.999997
1.22279
2.22604
2.41068
2.40277
2.40232
2.40009
2.39548
2.38895
2.38087
2.37103
2.35931
2.34591
2.33062
2.31353
2.29489
2.27438
2.25192
1
1
1
1
1
1
1
1
1
1
1
1
1
1
1
1
1
1
1
1
1
1
1
1
1
1
1
1
1
1
0.999999
1.01105
1.96748
2.37288
2.38362
2.38404
2.38276
2.37964
2.37453
2.36752
2.3584
2.34722
2.33431
2.31963
2.30328
2.2857
2.26665
2.24601
1
1
1
1
1
1
1
1
1
1
1
1
1
1
1
1
1
1
1
1
1
1
1
1
1
1
1
1
1
1
1
1.00002
1.32689
2.23256
2.38099
2.37377
2.37017
2.36606
2.36072
2.35391
2.34528
2.33473
2.32249
2.3086
2.29321
2.27666
2.25902
2.23985
1
1
1
1
1
1
1
1
1
1
1
1
1
1
1
1
1
1
1
1
1
1
1
1
1
1
1
1
1
1
1
1
1.02464
2.01996
2.35162
2.35888
2.35556
2.35114
2.34576
2.33913
2.33105
2.32133
2.31008
2.29737
2.28328
2.26782
2.25136
2.23331
1
1
1
1
1
1
1
1
1
1
1
1
1
1
1
1
1
1
1
1
1
1
1
1
1
1
1
1
1
1
1
1
1.0001
1.40525
2.22191
2.35006
2.34268
2.33815
2.33253
2.32571
2.3177
2.30855
2.29823
2.28655
2.27366
2.25927
2.24381
2.22655
1
1
1
1
1
1
1
1
1
1
1
1
1
1
1
1
1
1
1
1
1
1
1
1
1
1
1
1
1
1
1
1
1
1.03923
2.02156
2.3292
2.32863
2.32382
2.31837
2.31175
2.30396
2.29525
2.28561
2.27498
2.26328
2.25016
2.23538
2.21887
1
1
1
1
1
1
1
1
1
1
1
1
1
1
1
1
1
1
1
1
1
1
1
1
1
1
1
1
1
1
1
1
1
1.0003
1.42072
2.19877
2.31896
2.31028
2.30535
2.29881
2.29112
2.28281
2.2739
2.26422
2.25346
2.24085
2.22634
2.21036
1
1
1
1
1
1
1
1
1
1
1
1
1
1
1
1
1
1
1
1
1
1
1
1
1
1
1
1
1
1
1
1
1
1
1.04292
1.98745
2.30002
2.29844
2.29193
2.2851
2.27776
2.27033
2.26232
2.25331
2.24257
2.22994
2.21574
2.20251
1
1
1
1
1
1
1
1
1
1
1
1
1
1
1
1
1
1
1
1
1
1
1
1
1
1
1
1
1
1
1
1
1
1
1.00039
1.39241
2.16107
2.28784
2.27803
2.27241
2.26608
2.25977
2.25221
2.24275
2.2314
2.2181
2.21063
2.21392
1
1
1
1
1
1
1
1
1
1
1
1
1
1
1
1
1
1
1
1
1
1
1
1
1
1
1
1
1
1
1
1
1
1
1
1.03639
1.90235
2.26064
2.26752
2.26057
2.25488
2.24883
2.24088
2.23052
2.21814
2.21365
2.22316
2.25872
1
1
1
1
1
1
1
1
1
1
1
1
1
1
1
1
1
1
1
1
1
1
1
1
1
1
1
1
1
1
1
1
1
1
1
1.00033
1.31123
2.09869
2.25531
2.24866
2.24553
2.23865
2.22892
2.21687
2.21723
2.23302
2.27941
2.32478
1
1
1
1
1
1
1
1
1
1
1
1
1
1
1
1
1
1
1
1
1
1
1
1
1
1
1
1
1
1
1
1
1
1
1
1
1.02184
1.73872
2.19495
2.24328
2.235
2.22547
2.21509
2.21334
2.23594
2.29593
2.34467
2.36936
1
1
1
1
1
1
1
1
1
1
1
1
1
1
1
1
1
1
1
1
1
1
1
1
1
1
1
1
1
1
1
1
1
1
1
1
1.00018
1.18821
2.0061
2.23273
2.21822
2.20939
2.21067
2.23964
2.30893
2.36281
2.38057
2.37745
1
1
1
1
1
1
1
1
1
1
1
1
1
1
1
1
1
1
1
1
1
1
1
1
1
1
1
1
1
1
1
1
1
1
1
1
1
1.00773
1.53405
2.12384
2.19445
2.19425
2.23371
2.3184
2.37856
2.3967
2.38619
2.37519
1
1
1
1
1
1
1
1
1
1
1
1
1
1
1
1
1
1
1
1
1
1
1
1
1
1
1
1
1
1
1
1
1
1
1
1
1
1.00005
1.0831
1.87641
2.1438
2.23063
2.3242
2.3857
2.40579
2.39061
2.37928
2.36939
1
1
1
1
1
1
1
1
1
1
1
1
1
1
1
1
1
1
1
1
1
1
1
1
1
1
1
1
1
1
1
1
1
1
1
1
1
1
1.00173
1.32647
1.98392
2.31674
2.37757
2.40268
2.39514
2.37749
2.36771
2.36081
1
1
1
1
1
1
1
1
1
1
1
1
1
1
1
1
1
1
1
1
1
1
1
1
1
1
1
1
1
1
1
1
1
1
1
1
1
1
1.00001
1.02585
1.87804
2.44194
2.43365
2.41331
2.38982
2.3708
2.36207
2.35634
1
1
1
1
1
1
1
1
1
1
1
1
1
1
1
1
1
1
1
1
1
1
1
1
1
1
1
1
1
1
1
1
1
1
1
1
1
1
1
1.00026
1.74764
2.55896
2.52086
2.45902
2.41533
2.38637
2.3692
2.35869
1
1
1
1
1
1
1
1
1
1
1
1
1
1
1
1
1
1
1
1
1
1
1
1
1
1
1
1
1
1
1
1
1
1
1
1
1
1
1
1
1.70342
2.62501
2.59527
2.53605
2.48065
2.43436
2.4039
2.38456
1
1
1
1
1
1
1
1
1
1
1
1
1
1
1
1
1
1
1
1
1
1
1
1
1
1
1
1
1
1
1
1
1
1
1
1
1
1
1
1
1.52763
2.5763
2.64657
2.61467
2.57162
2.52334
2.479
2.44252
1
1
1
1
1
1
1
1
1
1
1
1
1
1
1
1
1
1
1
1
1
1
1
1
1
1
1
1
1
1
1
1
1
1
1
1
1
1
1
1
1.28129
2.46782
2.67296
2.65234
2.62894
2.59644
2.558
2.51705
1
1
1
1
1
1
1
1
1
1
1
1
1
1
1
1
1
1
1
1
1
1
1
1
1
1
1
1
1
1
1
1
1
1
1
1
1
1
1
1
1.03749
2.33843
2.66881
2.65752
2.64986
2.63641
2.61618
2.58889
1
1
1
1
1
1
1
1
1
1
1
1
1
1
1
1
1
1
1
1
1
1
1
1
1
1
1
1
1
1
1
1
1
1
1
1
1
1
1
1
1.00044
2.23006
2.66161
2.65915
2.65419
2.64782
2.63869
2.62485
1
1
1
1
1
1
1
1
1
1
1
1
1
1
1
1
1
1
1
1
1
1
1
1
1
1
1
1
1
1
1
1
1
1
1
1
1
1
1
1
1
2.09683
2.64551
2.66077
2.65563
2.65165
2.64613
2.63833
1
1
1
1
1
1
1
1
1
1
1
1
1
1
1
1
1
1
1
1
1
1
1
1
1
1
1
1
1
1
1
1
1
1
1
1
1
1
1
1
1
1.94639
2.61572
2.65963
2.65412
2.65033
2.64493
2.63942
1
1
1
1
1
1
1
1
1
1
1
1
1
1
1
1
1
1
1
1
1
1
1
1
1
1
1
1
1
1
1
1
1
1
1
1
1
1
1
1
1
1.77582
2.5718
2.65592
2.65018
2.64708
2.6422
2.63719
1
1
1
1
1
1
1
1
1
1
1
1
1
1
1
1
1
1
1
1
1
1
1
1
1
1
1
1
1
1
1
1
1
1
1
1
1
1
1
1
1
1.576
2.5138
2.64985
2.63912
2.63581
2.63165
2.62789
1
1
1
1
1
1
1
1
1
1
1
1
1
1
1
1
1
1
1
1
1
1
1
1
1
1
1
1
1
1
1
1
1
1
1
1
1
1
1
1
1
1.35139
2.44787
2.64715
2.63352
2.62966
2.62545
2.62141
1
1
1
1
1
1
1
1
1
1
1
1
1
1
1
1
1
1
1
1
1
1
1
1
1
1
1
1
1
1
1
1
1
1
1
1
1
1
1
1
1
1.1742
2.39574
2.6536
2.63724
2.63095
2.6257
2.62053
1
1
1
1
1
1
1
1
1
1
1
1
1
1
1
1
1
1
1
1
1
1
1
1
1
1
1
1
1
1
1
1
1
1
1
1
1
1
1
1
1
1.06988
2.35413
2.66709
2.65116
2.64244
2.63438
2.6267
1
1
1
1
1
1
1
1
1
1
1
1
1
1
1
1
1
1
1
1
1
1
1
1
1
1
1
1
1
1
1
1
1
1
1
1
1
1
1
1
1
1.00258
2.28909
2.67711
2.66706
2.65714
2.64703
2.63753
1
1
1
1
1
1
1
1
1
1
1
1
1
1
1
1
1
1
1
1
1
1
1
1
1
1
1
1
1
1
1
1
1
1
1
1
1
1
1
1
1
1.00001
2.21195
2.67512
2.6738
2.66417
2.65621
2.64755
1
1
1
1
1
1
1
1
1
1
1
1
1
1
1
1
1
1
1
1
1
1
1
1
1
1
1
1
1
1
1
1
1
1
1
1
1
1
1
1
1
1
2.12847
2.665
2.67315
2.66454
2.65863
2.65147
1
1
1
1
1
1
1
1
1
1
1
1
1
1
1
1
1
1
1
1
1
1
1
1
1
1
1
1
1
1
1
1
1
1
1
1
1
1
1
1
1
1
2.04066
2.64992
2.67304
2.66452
2.65962
2.65336
1
1
1
1
1
1
1
1
1
1
1
1
1
1
1
1
1
1
1
1
1
1
1
1
1
1
1
1
1
1
1
1
1
1
1
1
1
1
1
1
1
1
1.95503
2.63424
2.67222
2.66296
2.6582
2.65222
1
1
1
1
1
1
1
1
1
1
1
1
1
1
1
1
1
1
1
1
1
1
1
1
1
1
1
1
1
1
1
1
1
1
1
1
1
1
1
1
1
1
1.87637
2.62135
2.67267
2.66251
2.65755
2.65154
1
1
1
1
1
1
1
1
1
1
1
1
1
1
1
1
1
1
1
1
1
1
1
1
1
1
1
1
1
1
1
1
1
1
1
1
1
1
1
1
1
1
1.80727
2.61078
2.67535
2.66437
2.65885
2.65244
1
1
1
1
1
1
1
1
1
1
1
1
1
1
1
1
1
1
1
1
1
1
1
1
1
1
1
1
1
1
1
1
1
1
1
1
1
1
1
1
1
1
1.74693
2.6002
2.67927
2.66752
2.66139
2.65443
1
1
1
1
1
1
1
1
1
1
1
1
1
1
1
1
1
1
1
1
1
1
1
1
1
1
1
1
1
1
1
1
1
1
1
1
1
1
1
1
1
1
1.68999
2.58708
2.68194
2.66973
2.66363
2.65667
1
1
1
1
1
1
1
1
1
1
1
1
1
1
1
1
1
1
1
1
1
1
1
1
1
1
1
1
1
1
1
1
1
1
1
1
1
1
1
1
1
1
1.63279
2.57276
2.68338
2.67088
2.665
2.65826
1
1
1
1
1
1
1
1
1
1
1
1
1
1
1
1
1
1
1
1
1
1
1
1
1
1
1
1
1
1
1
1
1
1
1
1
1
1
1
1
1
1
1.57877
2.56213
2.68405
2.67181
2.66617
2.65964
1
1
1
1
1
1
1
1
1
1
1
1
1
1
1
1
1
1
1
1
1
1
1
1
1
1
1
1
1
1
1
1
1
1
1
1
1
1
1
1
1
1
1.54367
2.55528
2.68524
2.67307
2.66743
2.66089
1
1
1
1
1
1
1
1
1
1
1
1
1
1
1
1
1
1
1
1
1
1
1
1
1
1
1
1
1
1
1
1
1
1
1
1
1
1
1
1
1
1
1.51786
2.54877
2.68616
2.67417
2.66864
2.6622
1
1
1
1
1
1
1
1
1
1
1
1
1
1
1
1
1
1
1
1
1
1
1
1
1
1
1
1
1
1
1
1
1
1
1
1
1
1
1
1
1
1
1.4972
2.54313
2.68632
2.6746
2.66915
2.6628
1
1
1
1
1
1
1
1
1
1
1
1
1
1
1
1
1
1
1
1
1
1
1
1
1
1
1
1
1
1
1
1
1
1
1
1
1
1
1
1
1
1
1.49079
2.54069
2.68643
2.67489
2.66949
2.66316
1.45264
0.690259
0.7779
0.623961
0.481274
0.600854
0.857694
1.0304
1.17332
1.22362
1.25556
1.27579
1.298
1.33749
1.39728
1.45211
1.49311
1.51892
1.51851
1.5167
1.5283
1.56172
1.56761
1.56573
1.55243
1.54056
1.54214
1.55705
1.58673
1.59699
1.5952
1.5916
1.58838
1.58839
1.76701
2.44739
2.63885
2.65264
2.65255
2.6634
2.67732
2.68018
2.6744
2.67101
2.67233
2.67638
2.6781
2.67602
2.67161
2.66711
2.66422
2.66339
2.66362
2.66331
2.66132
2.65794
2.65399
2.64966
2.64496
2.64016
2.63558
2.63131
2.62708
2.62228
2.61665
2.61064
2.60544
2.60195
2.6
2.59802
2.59372
2.58659
2.57794
2.56928
2.56196
2.55637
2.55184
2.54753
2.54294
2.53795
2.53274
2.52752
2.52231
2.51699
2.51136
2.50551
2.49974
2.49423
2.48894
2.48367
2.4783
2.4729
2.46758
2.46236
2.45715
2.45193
2.44666
2.44135
2.436
2.43059
2.42513
2.41965
2.41407
2.40826
2.40207
2.39543
2.3885
2.38152
2.37487
2.36889
2.36348
2.35803
2.35201
2.34536
2.33831
2.33113
2.32404
2.31732
2.31118
2.30561
2.30033
2.29493
2.28904
2.28266
2.27603
2.26932
2.26256
2.25582
2.24911
2.24246
2.23591
2.22939
2.22319
2.21768
2.21289
2.20824
2.20268
2.19601
2.18888
2.1813
2.17426
2.16822
2.16273
2.15747
2.1525
2.14786
2.14328
2.13866
2.13406
2.12951
2.12483
2.11969
2.11339
2.10581
2.09798
2.091
2.08536
2.0809
2.07768
2.07471
2.07158
2.06814
2.06382
2.0586
2.05177
2.04374
2.03599
2.02984
2.02569
2.02394
2.02237
2.01885
2.01411
2.00794
2.00121
1.99563
1.99152
1.9896
1.98865
1.98614
1.98162
1.97505
1.96631
1.95717
1.95697
1.97986
2.11722
2.23703
2.28145
2.30641
2.33232
2.35032
1.73935
1.33546
1.20608
1.14953
0.969604
0.810732
0.815502
0.842138
0.898352
0.948823
1.00271
1.04884
1.07824
1.1152
1.16654
1.22858
1.29091
1.32541
1.36838
1.39293
1.41798
1.45492
1.4898
1.50818
1.50833
1.51082
1.52335
1.54136
1.56237
1.57024
1.56919
1.5639
1.56004
1.55623
1.59634
2.29322
2.61639
2.65099
2.64781
2.65406
2.6699
2.67847
2.677
2.66998
2.6677
2.66654
2.66689
2.66685
2.66588
2.66368
2.66039
2.65664
2.65348
2.65145
2.65031
2.64932
2.64767
2.64474
2.64027
2.63488
2.62931
2.62393
2.6189
2.61413
2.60944
2.60479
2.60044
2.59648
2.59277
2.58867
2.58364
2.57779
2.57146
2.56502
2.55916
2.55426
2.54992
2.54545
2.5404
2.53477
2.52886
2.52303
2.51756
2.51252
2.50765
2.50252
2.497
2.49123
2.4854
2.47975
2.47445
2.46942
2.46449
2.45946
2.45424
2.44889
2.4435
2.43816
2.43283
2.42748
2.42217
2.4169
2.41163
2.40616
2.40024
2.39393
2.38743
2.38091
2.37456
2.36856
2.36299
2.35753
2.35157
2.34502
2.33808
2.33103
2.32407
2.31746
2.31133
2.30566
2.30025
2.29468
2.28874
2.28247
2.27604
2.26964
2.26313
2.25653
2.24983
2.24299
2.2363
2.22991
2.224
2.21875
2.21394
2.20871
2.20244
2.19593
2.18945
2.18287
2.17585
2.1687
2.16269
2.15733
2.15227
2.14766
2.1433
2.13883
2.13442
2.12968
2.124
2.11733
2.11046
2.10426
2.09876
2.09364
2.08873
2.08436
2.08057
2.07691
2.07246
2.06625
2.05886
2.05212
2.0467
2.04237
2.03908
2.03617
2.03206
2.02598
2.01928
2.0134
2.00842
2.00429
2.00101
1.99895
1.99699
1.99422
1.98902
1.98169
1.9742
1.96744
1.96183
1.95835
1.96088
1.97726
2.07182
2.25009
2.32314
2.33301
2.32866
2.33334
1.90266
1.61617
1.46218
1.36718
1.22012
1.09647
1.0795
1.04809
1.0027
1.00554
1.03146
1.02841
1.02567
1.03165
1.04877
1.07837
1.10969
1.13621
1.17677
1.24739
1.29602
1.32402
1.36402
1.40309
1.42989
1.45995
1.48311
1.49993
1.51207
1.52121
1.52574
1.52533
1.52561
1.52537
1.53167
1.99417
2.55224
2.66934
2.65593
2.64626
2.64381
2.64716
2.65056
2.65113
2.64882
2.64365
2.63863
2.63572
2.63489
2.63512
2.634
2.62891
2.62178
2.6162
2.61374
2.61363
2.61429
2.61434
2.61286
2.60931
2.60431
2.59857
2.59279
2.58784
2.5838
2.58057
2.57776
2.57434
2.56918
2.5635
2.55796
2.55306
2.54881
2.54488
2.54107
2.53743
2.53374
2.52955
2.5246
2.51907
2.51329
2.5076
2.50233
2.49758
2.49301
2.48799
2.4821
2.47568
2.46933
2.46369
2.45932
2.45596
2.45246
2.44821
2.44319
2.43756
2.43163
2.42567
2.41998
2.41468
2.40968
2.40497
2.40057
2.3961
2.39103
2.3857
2.38007
2.37423
2.36852
2.36286
2.35748
2.35218
2.34636
2.34009
2.33351
2.3267
2.3199
2.31348
2.3075
2.30201
2.29679
2.29118
2.28546
2.2796
2.27363
2.26759
2.26149
2.2554
2.24927
2.24284
2.23599
2.22949
2.22388
2.21859
2.21336
2.20782
2.20201
2.1961
2.19009
2.18377
2.17677
2.16909
2.16203
2.15642
2.15151
2.14688
2.14231
2.13783
2.13316
2.12774
2.12114
2.11421
2.10861
2.1044
2.1008
2.09714
2.09299
2.08793
2.08179
2.07493
2.06738
2.05984
2.05392
2.04982
2.0468
2.04515
2.04334
2.04001
2.03422
2.02446
2.0151
2.00975
2.00638
2.00406
2.00305
2.00142
1.99839
1.9928
1.98349
1.97488
1.96907
1.96528
1.96403
1.96526
1.97159
1.98998
2.05511
2.19594
2.31109
2.3512
2.33487
2.32138
1.98003
1.78408
1.65247
1.54274
1.40116
1.29125
1.26768
1.23729
1.16644
1.13764
1.14015
1.12395
1.08215
1.07054
1.07974
1.08825
1.08941
1.08927
1.09785
1.11835
1.14289
1.17168
1.22577
1.28381
1.33514
1.38566
1.42289
1.43683
1.44103
1.45094
1.46109
1.47195
1.48043
1.49097
1.50145
1.65099
2.39019
2.62923
2.59245
2.58219
2.58258
2.58189
2.58174
2.5847
2.58574
2.58301
2.57797
2.5742
2.5721
2.57253
2.57284
2.56927
2.56228
2.55588
2.55243
2.55267
2.55493
2.55768
2.55878
2.55813
2.55596
2.55279
2.54899
2.54454
2.54047
2.53675
2.53333
2.52955
2.5237
2.51742
2.51208
2.50813
2.50551
2.504
2.50289
2.50163
2.49989
2.49718
2.49335
2.48885
2.48398
2.47898
2.47395
2.46874
2.46329
2.45765
2.45173
2.44592
2.44092
2.43726
2.43494
2.43268
2.42893
2.42377
2.41789
2.41172
2.40594
2.40055
2.39582
2.39173
2.38779
2.38379
2.37955
2.375
2.37036
2.36556
2.36064
2.35579
2.3511
2.34652
2.34182
2.33678
2.33136
2.32544
2.31911
2.31268
2.30644
2.3005
2.29493
2.28961
2.28436
2.27913
2.27393
2.26874
2.26353
2.25832
2.25315
2.24795
2.24252
2.23656
2.2302
2.22426
2.21893
2.21378
2.20859
2.2034
2.19814
2.19256
2.18659
2.18011
2.17296
2.16519
2.15781
2.1518
2.14655
2.14159
2.1369
2.13232
2.12744
2.12192
2.11573
2.10993
2.10594
2.10258
2.09908
2.09526
2.09084
2.08487
2.07657
2.0674
2.05989
2.05458
2.05093
2.04798
2.04568
2.04328
2.04018
2.03583
2.02859
2.01976
2.01264
2.00808
2.00512
2.00289
2.00042
1.99737
1.99233
1.98391
1.97575
1.97056
1.96759
1.96543
1.96781
1.97496
1.99755
2.04746
2.09517
2.15326
2.24661
2.31916
2.33214
2.31851
2.04524
1.89553
1.77262
1.67387
1.57247
1.46922
1.41924
1.37888
1.31014
1.24629
1.24259
1.23071
1.1888
1.16554
1.16973
1.16474
1.1422
1.13034
1.12999
1.12869
1.12866
1.13005
1.13787
1.15537
1.18698
1.23222
1.29065
1.33149
1.35417
1.37983
1.40124
1.42406
1.43967
1.46606
1.50207
1.56232
2.14187
2.53638
2.52985
2.50675
2.50843
2.50567
2.50346
2.50359
2.50758
2.51033
2.51008
2.50714
2.50497
2.50464
2.5046
2.5032
2.5007
2.49825
2.49573
2.495
2.4947
2.49445
2.49436
2.49522
2.49647
2.49639
2.49557
2.49316
2.48986
2.48625
2.48289
2.47972
2.47534
2.47015
2.46581
2.46317
2.46252
2.4631
2.46378
2.46305
2.46072
2.45706
2.4526
2.44852
2.44472
2.44116
2.43727
2.43246
2.42711
2.42176
2.41671
2.41218
2.4085
2.40579
2.40294
2.39887
2.39404
2.38863
2.38358
2.37911
2.37541
2.37231
2.36896
2.36482
2.36012
2.35514
2.34992
2.34491
2.34044
2.33646
2.33281
2.32936
2.32576
2.32174
2.31717
2.31211
2.30665
2.30091
2.29511
2.28948
2.28401
2.27865
2.27328
2.26789
2.26269
2.25782
2.25325
2.24886
2.24452
2.24018
2.23579
2.23122
2.22627
2.22084
2.21528
2.21013
2.20533
2.20066
2.19605
2.19145
2.18665
2.18139
2.17554
2.16907
2.16197
2.15452
2.14734
2.14078
2.13483
2.12951
2.12474
2.12028
2.11587
2.11129
2.10656
2.10198
2.09776
2.09396
2.09019
2.08603
2.08111
2.07464
2.06632
2.05824
2.05262
2.04867
2.04515
2.04176
2.03831
2.03469
2.03044
2.02455
2.01797
2.01285
2.00876
2.00428
1.99949
1.99525
1.99143
1.98693
1.98061
1.97369
1.9689
1.96511
1.96272
1.96302
1.9687
1.99332
2.04871
2.10261
2.11742
2.12763
2.16286
2.23841
2.2969
2.30124
2.09349
1.97302
1.86806
1.77339
1.68789
1.60105
1.53437
1.49379
1.4414
1.35203
1.32182
1.31123
1.28024
1.24825
1.24735
1.24152
1.21495
1.19661
1.19501
1.18547
1.16428
1.15652
1.15937
1.16067
1.15965
1.16351
1.17809
1.19677
1.22363
1.25718
1.30553
1.35293
1.39859
1.45866
1.53211
1.59213
1.79197
2.36919
2.49566
2.4731
2.45883
2.44776
2.44254
2.44204
2.44549
2.45093
2.45325
2.45279
2.45108
2.45221
2.45584
2.45973
2.46249
2.46281
2.45989
2.45618
2.45386
2.45296
2.45287
2.45383
2.45618
2.45748
2.45777
2.45713
2.45455
2.45154
2.44856
2.44577
2.44317
2.43985
2.43685
2.43484
2.4336
2.43231
2.43029
2.42763
2.42346
2.4189
2.41571
2.41318
2.41159
2.41022
2.40738
2.40287
2.39746
2.39161
2.38651
2.38208
2.37843
2.37517
2.37113
2.36685
2.36272
2.35902
2.35591
2.35338
2.3507
2.3469
2.34227
2.33682
2.33092
2.32546
2.32068
2.31648
2.31279
2.30954
2.30638
2.3029
2.29909
2.29485
2.29
2.28468
2.27925
2.27397
2.26888
2.26386
2.25878
2.25355
2.24808
2.24256
2.23743
2.23291
2.22883
2.22493
2.22101
2.21696
2.2127
2.2082
2.20335
2.19829
2.19344
2.18896
2.18464
2.1803
2.17594
2.17159
2.16714
2.16234
2.15699
2.151
2.14443
2.13756
2.13067
2.12397
2.11768
2.11199
2.10699
2.10262
2.09875
2.09519
2.09174
2.08801
2.08372
2.07914
2.07468
2.07009
2.0648
2.05861
2.0519
2.0462
2.04219
2.0388
2.0354
2.03155
2.02675
2.0203
2.01305
2.00797
2.00505
2.00264
1.99993
1.99628
1.99138
1.9847
1.97689
1.97021
1.96558
1.96221
1.95961
1.95737
1.95772
1.96445
1.98907
2.0454
2.09808
2.12076
2.12148
2.12001
2.12115
2.14778
2.21386
2.26585
2.12848
2.03254
1.93815
1.84358
1.77657
1.71031
1.62276
1.56865
1.53336
1.46721
1.40258
1.38732
1.36507
1.32564
1.31675
1.31089
1.29018
1.26061
1.25167
1.24026
1.21533
1.20392
1.20437
1.20047
1.1867
1.18504
1.18505
1.18037
1.17767
1.18133
1.19979
1.23937
1.32528
1.42665
1.54491
1.60327
1.62705
2.06206
2.43155
2.48057
2.45763
2.44073
2.43276
2.42933
2.43009
2.4323
2.43332
2.43326
2.4335
2.43719
2.44209
2.44612
2.44715
2.44585
2.4431
2.44133
2.43976
2.43839
2.43772
2.43764
2.43881
2.44087
2.44048
2.43924
2.43649
2.4323
2.42888
2.42589
2.42342
2.4212
2.41847
2.4156
2.41255
2.40911
2.4053
2.40146
2.3983
2.39587
2.39444
2.3939
2.39346
2.3912
2.38683
2.3814
2.37491
2.36914
2.36448
2.36055
2.35756
2.35416
2.35018
2.34631
2.34292
2.33992
2.33696
2.33336
2.32901
2.32393
2.31826
2.31265
2.30772
2.30348
2.29971
2.29617
2.29247
2.28848
2.28429
2.27998
2.27557
2.27104
2.2663
2.26131
2.25621
2.25115
2.24614
2.2411
2.23593
2.23055
2.22498
2.21954
2.21462
2.21028
2.20631
2.20243
2.19842
2.19414
2.18953
2.18464
2.17959
2.17474
2.17036
2.16627
2.16218
2.15787
2.15328
2.14862
2.14414
2.13972
2.13501
2.12979
2.12402
2.11785
2.1115
2.10516
2.099
2.09316
2.08781
2.08314
2.07928
2.07609
2.07321
2.0701
2.06628
2.06153
2.05622
2.05081
2.04512
2.03935
2.0348
2.03105
2.02724
2.02343
2.01974
2.01575
2.01051
2.00338
1.99618
1.9918
1.9891
1.98657
1.98419
1.98118
1.97733
1.97105
1.96206
1.95466
1.94996
1.94703
1.94528
1.94692
1.95574
1.98303
2.03814
2.09212
2.11038
2.11486
2.11432
2.10888
2.09982
2.10032
2.12316
2.19918
2.15305
2.07306
1.99146
1.90374
1.83937
1.78281
1.70952
1.63382
1.59741
1.55212
1.48852
1.46233
1.44356
1.40473
1.38332
1.37105
1.34938
1.3169
1.30033
1.28807
1.2659
1.25048
1.25037
1.24795
1.23671
1.22403
1.21474
1.20233
1.19645
1.19982
1.21981
1.27068
1.3302
1.39573
1.45832
1.51451
1.52219
1.62515
2.24556
2.49452
2.47397
2.45427
2.44533
2.43946
2.43497
2.43197
2.4318
2.43502
2.43822
2.44073
2.44158
2.44068
2.43868
2.43863
2.43889
2.43853
2.43706
2.43392
2.43113
2.4293
2.42904
2.43017
2.43007
2.42795
2.42494
2.42088
2.41713
2.41398
2.4114
2.4093
2.40626
2.40281
2.39913
2.39536
2.39204
2.38914
2.38716
2.38641
2.38604
2.38458
2.38119
2.37664
2.37073
2.36442
2.35912
2.35461
2.3509
2.34811
2.34523
2.3414
2.3372
2.33283
2.32881
2.32499
2.32092
2.31644
2.31159
2.30638
2.30121
2.29666
2.29273
2.28922
2.28555
2.2814
2.27679
2.27167
2.26649
2.26174
2.2573
2.25294
2.24851
2.2439
2.23897
2.2337
2.2282
2.22266
2.21715
2.21167
2.20632
2.20129
2.19667
2.19238
2.18826
2.18417
2.17991
2.1753
2.17017
2.1646
2.15916
2.15442
2.15019
2.14614
2.14208
2.13779
2.13305
2.1279
2.12284
2.11828
2.11397
2.10946
2.1045
2.09909
2.0934
2.08759
2.08178
2.07608
2.07063
2.06568
2.06143
2.0579
2.0548
2.05172
2.04815
2.04343
2.03731
2.03108
2.02626
2.02268
2.01941
2.01592
2.01181
2.00709
2.00204
1.99707
1.99177
1.98618
1.98138
1.97718
1.97349
1.97076
1.96839
1.96569
1.9613
1.95483
1.94734
1.94096
1.93625
1.93369
1.93498
1.94412
1.97238
2.02941
2.08041
2.10174
2.10798
2.10777
2.10409
2.09639
2.08409
2.07492
2.07694
2.12431
2.17521
2.10562
2.0309
1.9545
1.89517
1.83659
1.76974
1.70268
1.65944
1.61739
1.56577
1.53352
1.51153
1.47444
1.44661
1.43002
1.40632
1.36813
1.3459
1.3347
1.31974
1.30494
1.30025
1.295
1.28435
1.26614
1.25192
1.23943
1.23869
1.25079
1.29851
1.35624
1.39309
1.43072
1.44914
1.45755
1.46315
1.46987
1.73177
2.3685
2.48351
2.47336
2.46738
2.45928
2.44906
2.43969
2.43772
2.44181
2.44619
2.44527
2.44315
2.43897
2.43635
2.43625
2.43742
2.43793
2.43599
2.43218
2.42737
2.42358
2.42063
2.41994
2.42009
2.41893
2.41647
2.4135
2.4102
2.40719
2.40468
2.40224
2.39883
2.39504
2.39107
2.38746
2.38439
2.38229
2.38158
2.38102
2.37858
2.37444
2.36904
2.36261
2.35669
2.35182
2.34765
2.34458
2.34221
2.33918
2.33502
2.33041
2.32537
2.32033
2.31568
2.31129
2.307
2.30269
2.29829
2.29392
2.28978
2.28585
2.28179
2.27739
2.27269
2.26763
2.26233
2.25706
2.25211
2.24753
2.24319
2.2389
2.23447
2.22981
2.22477
2.21927
2.21344
2.20752
2.20172
2.19627
2.19127
2.18666
2.1823
2.17801
2.17371
2.16937
2.16491
2.16014
2.15474
2.14861
2.14262
2.13776
2.13344
2.12926
2.12519
2.12108
2.11664
2.11156
2.10591
2.10038
2.0956
2.09136
2.08708
2.08249
2.07755
2.07234
2.06697
2.06155
2.05627
2.05126
2.04664
2.04248
2.03874
2.03524
2.03161
2.02709
2.02086
2.01426
2.01053
2.00769
2.005
2.00178
1.99785
1.99284
1.98592
1.97855
1.97335
1.97035
1.9679
1.96503
1.96129
1.95672
1.95182
1.947
1.9423
1.93725
1.93341
1.93008
1.92595
1.92651
1.93434
1.96178
2.0201
2.07332
2.08957
2.0958
2.09844
2.0969
2.09067
2.08172
2.06988
2.06106
2.05914
2.07575
2.19268
2.13077
2.06225
1.99687
1.9403
1.88351
1.82001
1.76502
1.71891
1.67701
1.63134
1.60003
1.5701
1.53393
1.50371
1.47999
1.45256
1.42066
1.39544
1.37922
1.36637
1.3539
1.34235
1.33241
1.32215
1.30699
1.29246
1.29414
1.30893
1.35075
1.42419
1.45154
1.46393
1.47193
1.48128
1.48616
1.48891
1.49595
1.50593
1.84296
2.3848
2.4948
2.48739
2.47273
2.45683
2.44595
2.44267
2.44533
2.44937
2.44783
2.44406
2.4368
2.43278
2.43197
2.43353
2.4344
2.43212
2.42801
2.42339
2.41926
2.41538
2.41245
2.41044
2.40873
2.40697
2.40519
2.40308
2.40084
2.39863
2.39581
2.39211
2.38799
2.38377
2.37988
2.37661
2.37445
2.37305
2.37033
2.36606
2.361
2.3549
2.34888
2.34399
2.33994
2.33734
2.33559
2.33256
2.32806
2.32297
2.31729
2.31175
2.30692
2.30245
2.29822
2.29425
2.29039
2.28662
2.2829
2.27896
2.27451
2.26955
2.26402
2.25826
2.25276
2.24787
2.24352
2.23937
2.23515
2.23065
2.22589
2.22096
2.21588
2.21065
2.20531
2.19985