/*--------------------------------*- C++ -*----------------------------------*\
  =========                 |
  \\      /  F ield         | OpenFOAM: The Open Source CFD Toolbox
   \\    /   O peration     | Website:  https://openfoam.org
    \\  /    A nd           | Version:  10
     \\/     M anipulation  |
\*---------------------------------------------------------------------------*/
FoamFile
{
    format      ascii;
    class       volVectorField;
    location    "7.5";
    object      U;
}
// * * * * * * * * * * * * * * * * * * * * * * * * * * * * * * * * * * * * * //

dimensions      [0 1 -1 0 0 0 0];

internalField   nonuniform List<vector> 
16128
(
(3 1.07381e-14 0)
(3 4.13434e-15 0)
(3 8.06362e-15 0)
(3 4.69932e-14 0)
(3 7.09415e-14 0)
(3 4.43341e-14 0)
(3 2.14841e-14 0)
(3 2.0717e-14 0)
(3 1.99469e-14 0)
(3 5.15995e-14 0)
(3 8.18078e-14 0)
(3 8.74244e-14 0)
(3 8.15886e-14 0)
(3 4.94848e-14 0)
(3 1.99068e-14 0)
(3 -6.55458e-14 0)
(3 -5.43991e-14 0)
(3 -3.09738e-14 0)
(3 -5.03842e-14 0)
(3 -5.41236e-14 0)
(3 -4.09462e-14 0)
(3 -3.29527e-14 0)
(3 -9.897e-15 0)
(3 -1.82433e-15 0)
(1.43854 0.00788698 0)
(0.773049 0.00704082 0)
(0.726804 0.012621 0)
(0.697224 0.0130491 0)
(0.666123 0.0131053 0)
(0.636319 0.0129797 0)
(0.607045 0.0129009 0)
(0.577977 0.0130071 0)
(0.548624 0.0133213 0)
(0.518736 0.0138146 0)
(0.48819 0.0143163 0)
(0.457144 0.0145655 0)
(0.425969 0.0146453 0)
(0.394771 0.0148956 0)
(0.363295 0.0153582 0)
(0.331135 0.0158708 0)
(0.297894 0.0163335 0)
(0.263414 0.0168589 0)
(0.22789 0.0175312 0)
(0.19126 0.0184371 0)
(0.153273 0.0192728 0)
(0.112925 0.0207311 0)
(0.0687389 0.0222224 0)
(0.0237671 0.0224942 0)
(3 4.18583e-14 0)
(3 4.40517e-14 0)
(3 2.36742e-14 0)
(3 3.43103e-14 0)
(3 3.91496e-14 0)
(3 5.3292e-14 0)
(3 8.42545e-14 0)
(3 1.08626e-13 0)
(3 9.53901e-14 0)
(3 1.0161e-13 0)
(3 1.11352e-13 0)
(3 1.26324e-13 0)
(3 1.00076e-13 0)
(3 7.90251e-14 0)
(3 2.94446e-14 0)
(3 -5.14159e-14 0)
(3 -4.07726e-14 0)
(3 -9.47057e-14 0)
(3 -1.42804e-13 0)
(3 -1.28182e-13 0)
(3 -1.08502e-13 0)
(3 -1.51022e-13 0)
(3 -1.44783e-13 0)
(3 -5.47911e-14 0)
(1.45465 0.0374871 0)
(0.768693 0.0302106 0)
(0.719368 0.0375632 0)
(0.689578 0.0380056 0)
(0.658376 0.0379643 0)
(0.628486 0.0374748 0)
(0.599166 0.037194 0)
(0.57011 0.0375714 0)
(0.540806 0.0386675 0)
(0.51095 0.0403318 0)
(0.480382 0.0419823 0)
(0.449285 0.0428059 0)
(0.418126 0.0431202 0)
(0.38702 0.0440061 0)
(0.355662 0.0455298 0)
(0.323648 0.0471145 0)
(0.290767 0.0485341 0)
(0.257078 0.0503104 0)
(0.222768 0.0526263 0)
(0.187565 0.0555915 0)
(0.150887 0.058168 0)
(0.11164 0.0628981 0)
(0.0680528 0.067655 0)
(0.0240467 0.0684552 0)
(3 -3.8185e-16 0)
(3 1.6718e-14 0)
(3 6.73015e-15 0)
(3 -2.75378e-14 0)
(3 -2.05585e-14 0)
(3 3.34129e-14 0)
(3 1.30072e-13 0)
(3 1.47532e-13 0)
(3 1.71377e-13 0)
(3 1.41982e-13 0)
(3 1.19009e-13 0)
(3 1.14666e-13 0)
(3 6.77479e-14 0)
(3 7.01289e-14 0)
(3 6.03807e-14 0)
(3 -2.90844e-14 0)
(3 -6.86895e-14 0)
(3 -1.3594e-13 0)
(3 -1.33644e-13 0)
(3 -1.36496e-13 0)
(3 -1.006e-13 0)
(3 -9.19131e-14 0)
(3 -5.778e-14 0)
(3 -3.62944e-15 0)
(1.50379 0.0661109 0)
(0.77383 0.0536631 0)
(0.721253 0.0637511 0)
(0.690671 0.0645977 0)
(0.65855 0.0645892 0)
(0.627713 0.0637479 0)
(0.597511 0.0631477 0)
(0.567742 0.0636021 0)
(0.5379 0.0652601 0)
(0.507606 0.0678976 0)
(0.476619 0.0705921 0)
(0.44509 0.0719894 0)
(0.413487 0.0724973 0)
(0.381834 0.0738072 0)
(0.349746 0.0760614 0)
(0.316913 0.0784139 0)
(0.283447 0.080543 0)
(0.249645 0.0832355 0)
(0.215615 0.0865352 0)
(0.181011 0.0908248 0)
(0.145135 0.0946978 0)
(0.107526 0.103133 0)
(0.0655428 0.111634 0)
(0.0247731 0.11355 0)
(3 -4.77721e-15 0)
(3 -2.75412e-14 0)
(3 -2.39151e-14 0)
(3 1.72482e-15 0)
(3 2.39973e-15 0)
(3 1.24902e-14 0)
(3 5.42997e-14 0)
(3 7.74685e-14 0)
(3 8.61477e-14 0)
(3 1.611e-13 0)
(3 1.69004e-13 0)
(3 1.45472e-13 0)
(3 9.80752e-14 0)
(3 1.11548e-13 0)
(3 1.23468e-13 0)
(3 7.97783e-14 0)
(3 7.15521e-14 0)
(3 5.83264e-14 0)
(3 -3.8808e-14 0)
(3 -6.42266e-14 0)
(3 5.51508e-14 0)
(3 1.38351e-13 0)
(3 1.73193e-13 0)
(3 1.50732e-13 0)
(1.57872 0.09226 0)
(0.780612 0.0776354 0)
(0.724063 0.0896893 0)
(0.693806 0.0909116 0)
(0.661834 0.0910643 0)
(0.630991 0.0900206 0)
(0.600678 0.0891722 0)
(0.570832 0.089698 0)
(0.541001 0.0918957 0)
(0.510752 0.0955377 0)
(0.479735 0.0994374 0)
(0.447993 0.101693 0)
(0.41598 0.102664 0)
(0.383668 0.104605 0)
(0.350623 0.107814 0)
(0.316606 0.111219 0)
(0.281946 0.114255 0)
(0.247032 0.117728 0)
(0.211877 0.121334 0)
(0.176256 0.126131 0)
(0.139534 0.130463 0)
(0.102747 0.142455 0)
(0.0624403 0.154349 0)
(0.0277007 0.157329 0)
(3 -5.45104e-15 0)
(3 -9.22148e-15 0)
(3 -1.352e-14 0)
(3 -2.58063e-15 0)
(3 1.73483e-14 0)
(3 1.17264e-14 0)
(3 -1.87225e-14 0)
(3 3.10296e-14 0)
(3 3.65843e-14 0)
(3 5.35007e-14 0)
(3 8.99327e-14 0)
(3 8.96807e-14 0)
(3 9.60108e-14 0)
(3 7.7839e-14 0)
(3 1.7429e-13 0)
(3 2.04482e-13 0)
(3 2.02295e-13 0)
(3 1.64516e-13 0)
(3 1.03744e-13 0)
(3 6.37705e-14 0)
(3 9.53005e-14 0)
(3 9.92665e-14 0)
(3 6.06426e-14 0)
(3 3.16117e-14 0)
(1.68207 0.11822 0)
(0.78959 0.103015 0)
(0.725682 0.115661 0)
(0.695431 0.117217 0)
(0.663425 0.117664 0)
(0.63247 0.116559 0)
(0.60197 0.115445 0)
(0.572052 0.115862 0)
(0.54242 0.118375 0)
(0.512654 0.122863 0)
(0.482264 0.12796 0)
(0.451061 0.131222 0)
(0.419456 0.132803 0)
(0.387441 0.135463 0)
(0.354582 0.139743 0)
(0.320607 0.14443 0)
(0.285771 0.148665 0)
(0.250279 0.153248 0)
(0.21385 0.157442 0)
(0.176412 0.163221 0)
(0.137155 0.167988 0)
(0.0991923 0.182885 0)
(0.0592621 0.194196 0)
(0.0394898 0.198276 0)
(3 -7.13714e-15 0)
(3 1.91875e-14 0)
(3 1.64656e-14 0)
(3 -9.17251e-15 0)
(3 3.11811e-14 0)
(3 8.49633e-15 0)
(3 -6.51461e-14 0)
(3 -7.93131e-14 0)
(3 -4.22524e-15 0)
(3 -3.95153e-14 0)
(3 1.71579e-14 0)
(3 5.46439e-14 0)
(3 1.21896e-13 0)
(3 7.40349e-14 0)
(3 5.41527e-14 0)
(3 4.44326e-14 0)
(3 6.75905e-14 0)
(3 1.16603e-13 0)
(3 1.17416e-13 0)
(3 1.54058e-13 0)
(3 1.38248e-13 0)
(3 9.32604e-14 0)
(3 6.0358e-14 0)
(3 5.31931e-14 0)
(1.82165 0.14206 0)
(0.804281 0.130264 0)
(0.72875 0.142214 0)
(0.698403 0.143627 0)
(0.66645 0.144435 0)
(0.635472 0.143503 0)
(0.604732 0.14226 0)
(0.5745 0.142494 0)
(0.544702 0.145106 0)
(0.51504 0.150231 0)
(0.484955 0.156483 0)
(0.453953 0.160909 0)
(0.422359 0.163272 0)
(0.390291 0.16673 0)
(0.357403 0.172119 0)
(0.323394 0.178144 0)
(0.288392 0.183645 0)
(0.252572 0.189556 0)
(0.215584 0.194692 0)
(0.177837 0.202218 0)
(0.137941 0.207739 0)
(0.100477 0.224477 0)
(0.059758 0.232183 0)
(0.0406256 0.240217 0)
(3 2.26429e-14 0)
(3 1.03505e-14 0)
(3 1.17835e-16 0)
(3 1.54405e-14 0)
(3 3.28949e-14 0)
(3 1.79307e-14 0)
(3 8.95944e-15 0)
(3 -3.36101e-15 0)
(3 1.18456e-14 0)
(3 -6.69922e-14 0)
(3 -8.9826e-14 0)
(3 -4.45934e-14 0)
(3 2.1535e-14 0)
(3 6.8504e-14 0)
(3 -3.88892e-14 0)
(3 -5.14719e-14 0)
(3 -6.95144e-14 0)
(3 9.31541e-15 0)
(3 5.15142e-14 0)
(3 1.19927e-13 0)
(3 1.57421e-13 0)
(3 1.40663e-13 0)
(3 1.05211e-13 0)
(3 1.03003e-13 0)
(1.99554 0.160679 0)
(0.825086 0.159673 0)
(0.733225 0.168421 0)
(0.703861 0.16919 0)
(0.673027 0.170303 0)
(0.643105 0.169776 0)
(0.61299 0.168658 0)
(0.583075 0.168765 0)
(0.553559 0.171311 0)
(0.524366 0.176817 0)
(0.494908 0.184103 0)
(0.464294 0.189873 0)
(0.432675 0.193292 0)
(0.400375 0.197759 0)
(0.367203 0.204425 0)
(0.332821 0.211967 0)
(0.297174 0.218875 0)
(0.260535 0.226288 0)
(0.222556 0.232407 0)
(0.184303 0.241693 0)
(0.143432 0.2477 0)
(0.105762 0.266595 0)
(0.0617668 0.274517 0)
(0.0369103 0.280286 0)
(3 -2.06294e-15 0)
(3 -4.52097e-14 0)
(3 -7.2771e-14 0)
(3 -6.70848e-14 0)
(3 -8.11565e-14 0)
(3 -2.926e-14 0)
(3 4.84345e-14 0)
(3 4.89131e-14 0)
(3 1.32402e-14 0)
(3 -2.7538e-14 0)
(3 -3.66811e-14 0)
(3 -1.09251e-14 0)
(3 -3.5432e-14 0)
(3 -1.37985e-14 0)
(3 4.91187e-15 0)
(3 1.02093e-14 0)
(3 -1.36325e-14 0)
(3 -1.80192e-14 0)
(3 -5.44969e-15 0)
(3 -2.49823e-14 0)
(3 2.09256e-14 0)
(3 6.72766e-14 0)
(3 4.15668e-14 0)
(3 1.65867e-15 0)
(2.19982 0.174479 0)
(0.849015 0.194694 0)
(0.731492 0.194517 0)
(0.702561 0.19472 0)
(0.672255 0.196035 0)
(0.643107 0.196318 0)
(0.613413 0.195676 0)
(0.583705 0.195767 0)
(0.554488 0.198069 0)
(0.526022 0.203666 0)
(0.497909 0.211865 0)
(0.468809 0.219106 0)
(0.438452 0.223759 0)
(0.40726 0.229339 0)
(0.375081 0.237379 0)
(0.341406 0.246632 0)
(0.305846 0.255202 0)
(0.268783 0.264418 0)
(0.229776 0.271626 0)
(0.190812 0.282464 0)
(0.149204 0.288737 0)
(0.111698 0.309595 0)
(0.068002 0.322246 0)
(0.0238381 0.321989 0)
(3 -2.5198e-14 0)
(3 4.18711e-15 0)
(3 2.25551e-15 0)
(3 -4.80365e-14 0)
(3 -8.03682e-14 0)
(3 -6.34858e-14 0)
(3 -4.86855e-14 0)
(3 -6.72103e-14 0)
(3 -5.81652e-14 0)
(3 -4.27133e-14 0)
(3 -6.17896e-15 0)
(3 1.3005e-14 0)
(3 5.56855e-16 0)
(3 -2.20786e-14 0)
(3 3.86795e-14 0)
(3 5.58012e-14 0)
(3 6.56878e-14 0)
(3 3.61488e-14 0)
(3 -4.63591e-14 0)
(3 -1.01205e-13 0)
(3 -1.41059e-13 0)
(3 -1.16928e-13 0)
(3 5.12573e-15 0)
(3 2.3427e-14 0)
(2.43893 0.185023 0)
(0.889697 0.237177 0)
(0.740994 0.221462 0)
(0.71497 0.221611 0)
(0.684338 0.223027 0)
(0.654782 0.224141 0)
(0.62385 0.224141 0)
(0.592597 0.224104 0)
(0.561844 0.22567 0)
(0.532243 0.230534 0)
(0.503853 0.238848 0)
(0.475201 0.247202 0)
(0.445459 0.253061 0)
(0.415099 0.259808 0)
(0.384035 0.269398 0)
(0.351564 0.280759 0)
(0.316767 0.291511 0)
(0.280019 0.303125 0)
(0.240371 0.312061 0)
(0.200287 0.324855 0)
(0.156376 0.331893 0)
(0.115096 0.353705 0)
(0.0704212 0.369305 0)
(0.0322861 0.370374 0)
(3 -1.81502e-14 0)
(3 2.33486e-14 0)
(3 4.12922e-14 0)
(3 4.26947e-14 0)
(3 1.74053e-14 0)
(3 3.58587e-15 0)
(3 -8.79653e-14 0)
(3 -1.32447e-13 0)
(3 -1.31318e-13 0)
(3 -9.60171e-14 0)
(3 3.86142e-14 0)
(3 6.0118e-14 0)
(3 7.68601e-14 0)
(3 9.28734e-14 0)
(3 9.24727e-14 0)
(3 7.31483e-14 0)
(3 6.44409e-14 0)
(3 5.39014e-14 0)
(3 5.62113e-16 0)
(3 -3.53179e-14 0)
(3 -1.22896e-13 0)
(3 -1.65866e-13 0)
(3 -1.58547e-13 0)
(3 -1.21143e-13 0)
(2.70356 0.182038 0)
(0.962545 0.276017 0)
(0.773301 0.235772 0)
(0.749275 0.242645 0)
(0.716037 0.24711 0)
(0.684253 0.251001 0)
(0.65024 0.252971 0)
(0.615425 0.253845 0)
(0.580932 0.255301 0)
(0.547889 0.259354 0)
(0.516881 0.26725 0)
(0.486709 0.276207 0)
(0.456033 0.282869 0)
(0.42527 0.290311 0)
(0.394511 0.301052 0)
(0.363007 0.314483 0)
(0.329063 0.327736 0)
(0.292906 0.342474 0)
(0.252687 0.35426 0)
(0.211322 0.370151 0)
(0.164521 0.379575 0)
(0.118998 0.40326 0)
(0.0705462 0.41716 0)
(0.045526 0.420759 0)
(3 7.33823e-15 0)
(3 -1.84118e-14 0)
(3 -2.96267e-15 0)
(3 5.07971e-15 0)
(3 1.50436e-15 0)
(3 -3.23344e-14 0)
(3 -4.93582e-14 0)
(3 -9.60864e-14 0)
(3 -1.03818e-13 0)
(3 -5.90271e-14 0)
(3 1.8103e-14 0)
(3 8.04147e-14 0)
(3 9.10872e-14 0)
(3 5.28796e-14 0)
(3 -5.60618e-14 0)
(3 -3.83317e-14 0)
(3 -1.48489e-14 0)
(3 -4.2724e-14 0)
(3 -3.84517e-14 0)
(3 -3.0819e-14 0)
(3 -3.02755e-14 0)
(3 2.35351e-14 0)
(3 2.18784e-14 0)
(3 3.68287e-14 0)
(2.95124 0.0805212 0)
(1.0575 0.292051 0)
(0.802774 0.251121 0)
(0.787309 0.263771 0)
(0.753677 0.271968 0)
(0.720633 0.279202 0)
(0.684569 0.284276 0)
(0.647386 0.286735 0)
(0.609981 0.288183 0)
(0.573426 0.291195 0)
(0.538906 0.298109 0)
(0.505991 0.307159 0)
(0.473142 0.314242 0)
(0.440661 0.321818 0)
(0.408879 0.332995 0)
(0.377407 0.34815 0)
(0.343884 0.363966 0)
(0.308687 0.382237 0)
(0.268902 0.397392 0)
(0.227939 0.416793 0)
(0.180126 0.429957 0)
(0.132661 0.457279 0)
(0.0791682 0.468965 0)
(0.0528589 0.475577 0)
(3 1.20209e-14 0)
(3 -6.25888e-15 0)
(3 3.90294e-15 0)
(3 1.56853e-15 0)
(3 -1.51958e-14 0)
(3 -4.12094e-14 0)
(3 -1.35528e-14 0)
(3 3.73397e-15 0)
(3 1.56472e-15 0)
(3 3.01336e-14 0)
(3 3.9043e-16 0)
(3 -3.63498e-14 0)
(3 -6.11338e-14 0)
(3 -1.39959e-13 0)
(3 -6.41764e-14 0)
(3 -1.9318e-14 0)
(3 -1.43625e-14 0)
(3 -6.97697e-14 0)
(3 -1.59091e-14 0)
(3 4.5527e-14 0)
(3 3.00188e-14 0)
(3 6.52836e-14 0)
(3 1.39135e-13 0)
(3 9.3193e-14 0)
(3.018 0.00741257 0)
(1.14837 0.288503 0)
(0.805514 0.266955 0)
(0.795777 0.291902 0)
(0.769058 0.302612 0)
(0.742194 0.309674 0)
(0.712115 0.315012 0)
(0.678619 0.319241 0)
(0.642453 0.32268 0)
(0.605249 0.325981 0)
(0.568646 0.332085 0)
(0.533228 0.340963 0)
(0.497858 0.348268 0)
(0.462875 0.355617 0)
(0.428914 0.36642 0)
(0.396503 0.382597 0)
(0.362867 0.400376 0)
(0.328514 0.421999 0)
(0.288745 0.441274 0)
(0.246896 0.465722 0)
(0.196187 0.484948 0)
(0.146222 0.518147 0)
(0.0858518 0.529761 0)
(0.0557011 0.538809 0)
(3 -3.28437e-15 0)
(3 4.98263e-15 0)
(3 1.20233e-14 0)
(3 2.58052e-14 0)
(3 1.32459e-14 0)
(3 1.45436e-15 0)
(3 6.85374e-15 0)
(3 3.81526e-14 0)
(3 1.29754e-13 0)
(3 1.37902e-13 0)
(3 4.14995e-14 0)
(3 -7.83792e-14 0)
(3 -1.38935e-13 0)
(3 -7.67417e-14 0)
(3 2.27546e-14 0)
(3 5.13199e-14 0)
(3 2.45087e-14 0)
(3 2.61966e-14 0)
(3 -5.4151e-14 0)
(3 -4.63571e-14 0)
(3 -3.64564e-14 0)
(3 -5.26803e-14 0)
(3 -2.02906e-14 0)
(3 -9.22772e-14 0)
(3.00062 1.92356e-05 0)
(1.27924 0.305936 0)
(0.796513 0.275212 0)
(0.77985 0.307161 0)
(0.758678 0.326078 0)
(0.737455 0.335749 0)
(0.717024 0.343054 0)
(0.69497 0.348805 0)
(0.668302 0.353966 0)
(0.636473 0.359325 0)
(0.601911 0.366641 0)
(0.566468 0.376487 0)
(0.529798 0.384769 0)
(0.492585 0.392357 0)
(0.455931 0.40226 0)
(0.421648 0.418605 0)
(0.386824 0.437811 0)
(0.352469 0.462866 0)
(0.313088 0.487108 0)
(0.272102 0.517263 0)
(0.222102 0.542619 0)
(0.172311 0.583019 0)
(0.104177 0.598688 0)
(0.0702039 0.612118 0)
(3 3.68847e-15 0)
(3 2.13369e-14 0)
(3 6.14679e-14 0)
(3 3.96628e-14 0)
(3 2.53545e-14 0)
(3 2.27697e-14 0)
(3 5.7647e-14 0)
(3 4.74517e-14 0)
(3 6.8681e-15 0)
(3 -2.09522e-14 0)
(3 -6.76435e-14 0)
(3 -5.80696e-14 0)
(3 -6.94432e-14 0)
(3 -2.88479e-14 0)
(3 -1.55807e-14 0)
(3 3.2384e-14 0)
(3 -5.32939e-15 0)
(3 2.854e-15 0)
(3 1.59958e-14 0)
(3 2.32497e-14 0)
(3 3.6452e-14 0)
(3 -2.70619e-15 0)
(3 2.98153e-16 0)
(3 -8.68701e-15 0)
(3 -7.12244e-08 0)
(1.49825 0.335597 0)
(0.808003 0.307205 0)
(0.752145 0.316806 0)
(0.736234 0.332258 0)
(0.720156 0.344204 0)
(0.706092 0.356071 0)
(0.691014 0.367799 0)
(0.674424 0.37912 0)
(0.65347 0.388707 0)
(0.627514 0.398997 0)
(0.597609 0.411418 0)
(0.563803 0.422298 0)
(0.527216 0.43155 0)
(0.489302 0.440832 0)
(0.453059 0.457144 0)
(0.417035 0.476893 0)
(0.383101 0.504471 0)
(0.344729 0.533024 0)
(0.304926 0.569533 0)
(0.252133 0.605628 0)
(0.196996 0.660983 0)
(0.116914 0.687934 0)
(0.0717968 0.70882 0)
(3 -1.95314e-15 0)
(3 -6.91582e-16 0)
(3 7.90805e-15 0)
(3 -1.81798e-14 0)
(3 -1.41013e-14 0)
(3 1.73438e-14 0)
(3 3.08919e-14 0)
(3 -3.29331e-14 0)
(3 -6.58888e-14 0)
(3 -8.72682e-14 0)
(3 -7.04785e-14 0)
(3 -2.88185e-14 0)
(3 5.41953e-15 0)
(3 2.52122e-14 0)
(3 -3.43107e-16 0)
(3 -2.15969e-14 0)
(3 -1.81598e-15 0)
(3 2.81705e-14 0)
(3 8.46059e-14 0)
(3 3.00631e-14 0)
(3 9.73181e-15 0)
(3 1.79448e-14 0)
(3 4.82404e-15 0)
(3 1.7237e-14 0)
(3 -8.11125e-08 0)
(1.83137 0.37366 0)
(0.83626 0.367005 0)
(0.744269 0.346119 0)
(0.72562 0.349373 0)
(0.711432 0.357912 0)
(0.697844 0.367726 0)
(0.684394 0.379207 0)
(0.671048 0.393027 0)
(0.656464 0.40827 0)
(0.639328 0.424225 0)
(0.618575 0.441405 0)
(0.592438 0.457127 0)
(0.561151 0.470453 0)
(0.525287 0.481353 0)
(0.489752 0.49813 0)
(0.453364 0.517831 0)
(0.41958 0.547285 0)
(0.382316 0.580813 0)
(0.344871 0.626358 0)
(0.296124 0.675202 0)
(0.250429 0.744562 0)
(0.167555 0.788862 0)
(0.111049 0.822485 0)
(3 -2.70445e-14 0)
(3 -6.75651e-15 0)
(3 -3.2836e-14 0)
(3 -9.35157e-15 0)
(3 2.2471e-14 0)
(3 1.39668e-14 0)
(3 -5.41617e-14 0)
(3 -6.16692e-14 0)
(3 -4.94976e-14 0)
(3 -3.86349e-14 0)
(3 -4.30203e-14 0)
(3 -5.87146e-14 0)
(3 -9.65518e-15 0)
(3 7.83911e-15 0)
(3 -1.78912e-14 0)
(3 -1.00268e-13 0)
(3 -1.31221e-13 0)
(3 -1.2231e-13 0)
(3 -1.5844e-13 0)
(3 -1.46977e-13 0)
(3 -1.12504e-13 0)
(3 -7.86538e-14 0)
(3 -5.81776e-14 0)
(3 -8.51287e-14 0)
(3 -1.68335e-08 0)
(2.31488 0.37495 0)
(0.908401 0.436718 0)
(0.7842 0.374977 0)
(0.752385 0.372884 0)
(0.725929 0.377195 0)
(0.705016 0.385627 0)
(0.687624 0.396124 0)
(0.672477 0.408699 0)
(0.658824 0.424025 0)
(0.644724 0.442083 0)
(0.631048 0.463387 0)
(0.6137 0.484946 0)
(0.590644 0.504318 0)
(0.561284 0.519842 0)
(0.52979 0.539041 0)
(0.495103 0.559618 0)
(0.463236 0.590978 0)
(0.428929 0.628314 0)
(0.399512 0.679996 0)
(0.356764 0.737383 0)
(0.3161 0.835868 0)
(0.206595 0.945355 0)
(0.160391 1.03913 0)
(3 -4.7848e-15 0)
(3 1.28914e-14 0)
(3 3.48341e-14 0)
(3 6.12707e-14 0)
(3 4.108e-14 0)
(3 -1.29818e-14 0)
(3 -7.10491e-14 0)
(3 -6.71664e-14 0)
(3 -1.971e-14 0)
(3 1.16495e-14 0)
(3 -5.73681e-15 0)
(3 2.45131e-14 0)
(3 1.79405e-14 0)
(3 -7.46931e-15 0)
(3 -7.74593e-14 0)
(3 -9.10987e-14 0)
(3 -9.34064e-14 0)
(3 -9.46993e-14 0)
(3 -1.04e-13 0)
(3 -4.85469e-14 0)
(3 -3.65509e-14 0)
(3 -1.14562e-14 0)
(3 -8.23685e-14 0)
(3 -1.28377e-13 0)
(3 -1.6839e-09 0)
(2.907 0.192608 0)
(1.07412 0.464442 0)
(0.860425 0.398533 0)
(0.823044 0.394354 0)
(0.77689 0.400007 0)
(0.739344 0.406622 0)
(0.710444 0.4152 0)
(0.687611 0.426548 0)
(0.669713 0.441216 0)
(0.654458 0.458919 0)
(0.641841 0.480914 0)
(0.630124 0.506094 0)
(0.614813 0.531533 0)
(0.594121 0.553737 0)
(0.569536 0.577815 0)
(0.54004 0.6011 0)
(0.513024 0.634587 0)
(0.483022 0.673335 0)
(0.46219 0.731163 0)
(0.426852 0.809979 0)
(0.410676 0.944863 0)
(0.395311 1.09496 0)
(0.539767 1.34794 0)
(3 1.4752e-14 0)
(3 -9.61748e-15 0)
(3 9.8991e-15 0)
(3 1.0485e-14 0)
(3 1.14756e-14 0)
(3 8.96121e-15 0)
(3 4.82222e-15 0)
(3 1.06242e-14 0)
(3 2.22534e-14 0)
(3 5.58652e-14 0)
(3 3.78951e-14 0)
(3 7.7485e-14 0)
(3 6.59012e-14 0)
(3 3.48673e-14 0)
(3 5.15953e-15 0)
(3 2.34126e-15 0)
(3 2.69426e-14 0)
(3 7.81956e-14 0)
(3 3.50306e-14 0)
(3 3.10968e-14 0)
(3 6.76751e-14 0)
(3 5.07338e-14 0)
(3 -1.05174e-13 0)
(3 -1.73962e-13 0)
(3 -6.54955e-11 0)
(3.04751 0.0119615 0)
(1.26781 0.428476 0)
(0.884067 0.429533 0)
(0.857782 0.446905 0)
(0.821663 0.444796 0)
(0.782859 0.44268 0)
(0.746885 0.444928 0)
(0.716043 0.4505 0)
(0.691481 0.461121 0)
(0.672551 0.476369 0)
(0.657803 0.496988 0)
(0.647128 0.522894 0)
(0.637617 0.552008 0)
(0.624472 0.580251 0)
(0.608854 0.610262 0)
(0.586928 0.638243 0)
(0.567625 0.674829 0)
(0.544461 0.715518 0)
(0.532958 0.777884 0)
(0.523547 0.869256 0)
(0.537838 1.00893 0)
(0.624904 1.1607 0)
(0.933287 1.35426 0)
(3 7.62849e-15 0)
(3 -1.29917e-14 0)
(3 -3.17505e-14 0)
(3 -8.53576e-15 0)
(3 1.17433e-14 0)
(3 3.53287e-14 0)
(3 6.98595e-14 0)
(3 6.7918e-14 0)
(3 3.55088e-14 0)
(3 1.58834e-14 0)
(3 4.80098e-14 0)
(3 4.00874e-14 0)
(3 3.27095e-14 0)
(3 9.52081e-15 0)
(3 -5.28915e-15 0)
(3 4.17914e-15 0)
(3 3.84732e-14 0)
(3 3.27079e-14 0)
(3 3.75811e-15 0)
(3 7.58813e-15 0)
(3 -2.09632e-15 0)
(3 6.02999e-15 0)
(3 -1.50878e-14 0)
(3 -4.10617e-14 0)
(3 -1.37399e-12 0)
(3.00177 -8.05699e-06 0)
(1.49155 0.42472 0)
(0.866296 0.459227 0)
(0.844709 0.470506 0)
(0.8231 0.474146 0)
(0.800972 0.475701 0)
(0.774957 0.478384 0)
(0.74639 0.481566 0)
(0.719644 0.487833 0)
(0.696771 0.498606 0)
(0.679345 0.515729 0)
(0.666872 0.539502 0)
(0.660236 0.569355 0)
(0.652004 0.601486 0)
(0.645553 0.63655 0)
(0.63285 0.670244 0)
(0.623578 0.710473 0)
(0.611013 0.753717 0)
(0.610364 0.815968 0)
(0.625142 0.906216 0)
(0.67248 1.02831 0)
(0.822857 1.16553 0)
(1.15345 1.28053 0)
(3 -6.75934e-15 0)
(3 -1.79938e-14 0)
(3 -4.37255e-14 0)
(3 -5.65838e-14 0)
(3 -5.34647e-14 0)
(3 -2.76343e-14 0)
(3 7.3721e-14 0)
(3 8.97466e-14 0)
(3 4.99262e-14 0)
(3 2.14696e-14 0)
(3 1.07674e-14 0)
(3 -1.43864e-15 0)
(3 -2.151e-14 0)
(3 -7.22363e-14 0)
(3 -1.07571e-13 0)
(3 -5.59982e-14 0)
(3 -3.02375e-14 0)
(3 -3.07847e-14 0)
(3 1.28171e-14 0)
(3 2.65427e-14 0)
(3 -4.1882e-14 0)
(3 -5.68921e-14 0)
(3 1.07881e-14 0)
(3 6.18216e-14 0)
(3 2.85806e-14 0)
(3 -2.06783e-07 0)
(1.92996 0.451778 0)
(0.894612 0.491309 0)
(0.831321 0.477196 0)
(0.825744 0.487707 0)
(0.812301 0.496049 0)
(0.795691 0.50364 0)
(0.774463 0.509126 0)
(0.751374 0.515386 0)
(0.72802 0.522923 0)
(0.708808 0.536394 0)
(0.692929 0.556257 0)
(0.686364 0.584118 0)
(0.680608 0.617006 0)
(0.680687 0.654941 0)
(0.677107 0.694053 0)
(0.678628 0.737751 0)
(0.678821 0.783824 0)
(0.690769 0.842634 0)
(0.721649 0.924437 0)
(0.797966 1.03016 0)
(0.968377 1.1385 0)
(1.25653 1.20595 0)
(3 -9.13087e-15 0)
(3 -2.80624e-16 0)
(3 -1.0133e-14 0)
(3 -3.70497e-14 0)
(3 -4.98371e-14 0)
(3 5.73821e-15 0)
(3 6.93392e-14 0)
(3 5.75557e-14 0)
(3 5.49178e-14 0)
(3 6.13914e-14 0)
(3 3.82579e-14 0)
(3 -7.01539e-14 0)
(3 -5.14004e-14 0)
(3 -5.30991e-14 0)
(3 -5.85081e-14 0)
(3 -4.81755e-14 0)
(3 -9.18246e-14 0)
(3 -8.32177e-14 0)
(3 -3.11742e-14 0)
(3 -4.33921e-14 0)
(3 -2.94654e-14 0)
(3 -3.44578e-14 0)
(3 1.03914e-14 0)
(3 4.10817e-15 0)
(3 4.28303e-14 0)
(3 -2.6562e-07 0)
(2.60554 0.358731 0)
(1.01376 0.546141 0)
(0.87361 0.484693 0)
(0.855075 0.494478 0)
(0.837526 0.509167 0)
(0.821062 0.522304 0)
(0.802372 0.532629 0)
(0.783344 0.54237 0)
(0.76217 0.550352 0)
(0.742858 0.562212 0)
(0.725175 0.577347 0)
(0.716267 0.601487 0)
(0.711491 0.632029 0)
(0.715003 0.669284 0)
(0.718832 0.71097 0)
(0.73 0.757201 0)
(0.743224 0.805967 0)
(0.767798 0.86114 0)
(0.811511 0.931045 0)
(0.904005 1.01802 0)
(1.06664 1.09658 0)
(1.30886 1.14047 0)
(3 2.57833e-14 0)
(3 6.86167e-14 0)
(3 4.3654e-14 0)
(3 1.78461e-14 0)
(3 -1.23411e-14 0)
(3 -4.13382e-14 0)
(3 -4.58248e-14 0)
(3 -6.03248e-14 0)
(3 -1.58276e-14 0)
(3 -1.23217e-14 0)
(3 -3.58798e-14 0)
(3 -1.77839e-14 0)
(3 1.96786e-14 0)
(3 3.34189e-14 0)
(3 5.36717e-14 0)
(3 5.06641e-14 0)
(3 6.70618e-15 0)
(3 -5.81133e-15 0)
(3 -2.55017e-14 0)
(3 -8.47983e-15 0)
(3 3.2857e-14 0)
(3 5.99179e-14 0)
(3 5.51112e-15 0)
(3 -3.35953e-14 0)
(3 -1.29818e-14 0)
(3 -5.61362e-08 0)
(3.08202 0.0490071 0)
(1.26716 0.525022 0)
(0.929538 0.513453 0)
(0.897045 0.523287 0)
(0.872396 0.531374 0)
(0.851792 0.541019 0)
(0.833697 0.551479 0)
(0.817506 0.563316 0)
(0.799222 0.573401 0)
(0.781654 0.586255 0)
(0.764134 0.598812 0)
(0.752452 0.619103 0)
(0.746863 0.645975 0)
(0.750783 0.680193 0)
(0.759067 0.720764 0)
(0.776772 0.767022 0)
(0.800916 0.817193 0)
(0.83638 0.870583 0)
(0.89119 0.930634 0)
(0.988806 0.99779 0)
(1.13307 1.05169 0)
(1.3317 1.08047 0)
(3 1.94188e-14 0)
(3 -9.89811e-15 0)
(3 -1.0636e-15 0)
(3 7.84197e-16 0)
(3 3.83194e-15 0)
(3 -2.35327e-14 0)
(3 -2.12875e-14 0)
(3 -1.96091e-14 0)
(3 -5.25806e-15 0)
(3 1.17703e-14 0)
(3 1.21929e-14 0)
(3 1.36224e-14 0)
(3 2.37179e-14 0)
(3 5.92723e-14 0)
(3 1.05329e-13 0)
(3 9.95067e-14 0)
(3 9.99613e-14 0)
(3 8.7509e-14 0)
(3 2.51259e-14 0)
(3 5.86053e-14 0)
(3 4.08037e-14 0)
(3 3.05782e-14 0)
(3 1.46197e-15 0)
(3 -5.8975e-14 0)
(3 -8.50156e-14 0)
(3 -5.73102e-09 0)
(3.00948 0.000131171 0)
(1.4946 0.50697 0)
(0.919391 0.570972 0)
(0.892609 0.556109 0)
(0.876595 0.557833 0)
(0.862227 0.564689 0)
(0.849446 0.574514 0)
(0.838681 0.586998 0)
(0.826295 0.598576 0)
(0.814454 0.61258 0)
(0.801158 0.624829 0)
(0.790705 0.641654 0)
(0.785054 0.663717 0)
(0.788532 0.693185 0)
(0.799253 0.729456 0)
(0.820327 0.77192 0)
(0.851209 0.819778 0)
(0.895126 0.87112 0)
(0.958681 0.926117 0)
(1.05582 0.97737 0)
(1.18336 1.01512 0)
(1.34641 1.0353 0)
(3 -3.32177e-14 0)
(3 -5.76179e-14 0)
(3 -2.32814e-14 0)
(3 1.28184e-15 0)
(3 3.92849e-14 0)
(3 1.17242e-13 0)
(3 8.08113e-14 0)
(3 4.70851e-14 0)
(3 3.14019e-14 0)
(3 3.64244e-14 0)
(3 3.97661e-14 0)
(3 3.31146e-15 0)
(3 -2.47314e-14 0)
(3 1.23801e-17 0)
(3 6.83398e-14 0)
(3 7.16684e-14 0)
(3 8.83181e-14 0)
(3 6.82499e-14 0)
(3 6.71967e-14 0)
(3 1.80789e-14 0)
(3 1.21844e-14 0)
(3 4.40559e-15 0)
(3 -6.52756e-14 0)
(3 -1.19726e-13 0)
(3 -5.35499e-14 0)
(3 -1.82258e-10 0)
(3.00007 -2.54482e-06 0)
(2.05894 0.511496 0)
(0.966465 0.603176 0)
(0.904404 0.567668 0)
(0.89397 0.572813 0)
(0.882081 0.580231 0)
(0.871244 0.589379 0)
(0.862632 0.60205 0)
(0.853734 0.614992 0)
(0.846525 0.630557 0)
(0.838138 0.644854 0)
(0.83104 0.661322 0)
(0.826571 0.680205 0)
(0.829232 0.70541 0)
(0.840527 0.736956 0)
(0.862477 0.774166 0)
(0.89569 0.816801 0)
(0.943589 0.863092 0)
(1.01121 0.912872 0)
(1.10461 0.954313 0)
(1.22056 0.983369 0)
(1.35676 0.996901 0)
(3 -3.27297e-14 0)
(3 -3.46279e-14 0)
(3 -8.83089e-15 0)
(3 2.66623e-14 0)
(3 3.55108e-14 0)
(3 1.25695e-14 0)
(3 -2.09928e-14 0)
(3 3.00595e-14 0)
(3 3.67723e-14 0)
(3 4.37846e-14 0)
(3 2.50832e-14 0)
(3 1.946e-14 0)
(3 1.9233e-15 0)
(3 3.17837e-14 0)
(3 2.82315e-14 0)
(3 5.04992e-14 0)
(3 8.42145e-14 0)
(3 8.25848e-14 0)
(3 4.94791e-14 0)
(3 -6.17065e-14 0)
(3 -5.48223e-14 0)
(3 -5.33762e-14 0)
(3 -1.3178e-13 0)
(3 -1.33878e-13 0)
(3 -1.05814e-14 0)
(3 -2.67296e-13 0)
(3.00001 -3.3659e-06 0)
(2.87192 0.248288 0)
(1.15296 0.617039 0)
(0.961729 0.573572 0)
(0.937195 0.580301 0)
(0.916748 0.59344 0)
(0.900836 0.604121 0)
(0.889828 0.617382 0)
(0.880696 0.630708 0)
(0.875595 0.646919 0)
(0.871255 0.663123 0)
(0.868611 0.680614 0)
(0.867603 0.69856 0)
(0.871094 0.719966 0)
(0.882569 0.746646 0)
(0.904383 0.778203 0)
(0.937827 0.814353 0)
(0.986411 0.853848 0)
(1.05383 0.896141 0)
(1.14195 0.931619 0)
(1.24901 0.956823 0)
(1.36713 0.968073 0)
(3 9.29541e-15 0)
(3 7.34487e-15 0)
(3 3.20866e-14 0)
(3 3.8007e-14 0)
(3 -2.75996e-14 0)
(3 -5.98007e-14 0)
(3 -1.03182e-14 0)
(3 1.83853e-14 0)
(3 9.03529e-15 0)
(3 -7.29645e-15 0)
(3 3.45915e-14 0)
(3 4.45583e-14 0)
(3 6.55245e-14 0)
(3 6.52096e-14 0)
(3 6.31293e-14 0)
(3 3.3279e-14 0)
(3 1.45904e-14 0)
(3 2.58022e-14 0)
(3 4.76788e-14 0)
(3 -2.28583e-14 0)
(3 -2.93582e-14 0)
(3 -5.22199e-14 0)
(3 -7.18953e-14 0)
(3 -7.74125e-14 0)
(3 -6.97628e-15 0)
(3 9.85384e-14 0)
(3 -7.1337e-07 0)
(3.05685 0.0132491 0)
(1.40259 0.574653 0)
(0.992073 0.62418 0)
(0.964199 0.62085 0)
(0.93901 0.623422 0)
(0.923468 0.627166 0)
(0.913152 0.636882 0)
(0.904951 0.647585 0)
(0.901555 0.661935 0)
(0.900695 0.67789 0)
(0.902387 0.695621 0)
(0.906113 0.713964 0)
(0.912551 0.733326 0)
(0.924767 0.755828 0)
(0.94601 0.782167 0)
(0.978561 0.811746 0)
(1.02528 0.84414 0)
(1.08788 0.876746 0)
(1.16742 0.906764 0)
(1.26436 0.929041 0)
(1.36791 0.938093 0)
(3 3.04279e-14 0)
(3 8.07095e-14 0)
(3 5.34141e-14 0)
(3 -3.98154e-14 0)
(3 -5.70281e-14 0)
(3 -4.60584e-14 0)
(3 3.20413e-15 0)
(3 6.74865e-15 0)
(3 4.00011e-14 0)
(3 8.46584e-15 0)
(3 -1.3312e-14 0)
(3 1.79208e-15 0)
(3 1.50722e-14 0)
(3 -2.2214e-14 0)
(3 1.46023e-14 0)
(3 1.96923e-14 0)
(3 -3.60929e-14 0)
(3 -2.10548e-14 0)
(3 2.29905e-15 0)
(3 -3.92284e-14 0)
(3 -6.49215e-14 0)
(3 -5.907e-14 0)
(3 -1.64065e-14 0)
(3 1.84785e-14 0)
(3 3.88864e-14 0)
(3 2.84735e-14 0)
(3 -7.24503e-08 0)
(3.00188 -5.79958e-07 0)
(1.86351 0.566526 0)
(0.999707 0.661444 0)
(0.965804 0.638962 0)
(0.958409 0.644024 0)
(0.949311 0.646006 0)
(0.939852 0.653518 0)
(0.932206 0.662092 0)
(0.928563 0.674526 0)
(0.929043 0.689601 0)
(0.933243 0.706977 0)
(0.940594 0.725887 0)
(0.951204 0.745311 0)
(0.965133 0.765543 0)
(0.986726 0.7883 0)
(1.01888 0.812882 0)
(1.06322 0.839317 0)
(1.12048 0.864279 0)
(1.19182 0.887979 0)
(1.27857 0.906587 0)
(1.37184 0.913982 0)
(3 -3.78254e-15 0)
(3 -5.37823e-16 0)
(3 -3.3883e-14 0)
(3 -6.41267e-14 0)
(3 -3.53261e-14 0)
(3 -5.31891e-14 0)
(3 -4.12147e-14 0)
(3 -6.48309e-14 0)
(3 1.6846e-14 0)
(3 4.13084e-14 0)
(3 3.70821e-14 0)
(3 1.07113e-14 0)
(3 -2.79536e-14 0)
(3 -7.08471e-14 0)
(3 -4.70517e-14 0)
(3 2.06878e-14 0)
(3 6.417e-14 0)
(3 -1.05682e-14 0)
(3 -6.58635e-14 0)
(3 -5.19813e-14 0)
(3 -4.21209e-14 0)
(3 1.0239e-14 0)
(3 8.57944e-14 0)
(3 1.32192e-13 0)
(3 7.70011e-14 0)
(3 -2.1557e-15 0)
(3 -2.29811e-09 0)
(3 -1.74193e-07 0)
(2.73567 0.331086 0)
(1.15053 0.674538 0)
(1.00126 0.638722 0)
(0.990288 0.650303 0)
(0.97976 0.659607 0)
(0.969543 0.66898 0)
(0.961368 0.677311 0)
(0.956807 0.687958 0)
(0.956877 0.701135 0)
(0.962228 0.717179 0)
(0.971057 0.734883 0)
(0.985439 0.754319 0)
(1.00189 0.773356 0)
(1.02546 0.79242 0)
(1.05718 0.812732 0)
(1.09842 0.833579 0)
(1.14936 0.852371 0)
(1.21326 0.870182 0)
(1.28916 0.884277 0)
(1.37112 0.889039 0)
(3 -2.80192e-15 0)
(3 -8.2604e-15 0)
(3 1.96589e-14 0)
(3 7.05485e-14 0)
(3 6.43347e-14 0)
(3 1.39618e-14 0)
(3 -3.69242e-14 0)
(3 -3.36722e-14 0)
(3 -8.75148e-14 0)
(3 -6.24669e-14 0)
(3 -4.55616e-14 0)
(3 -1.86816e-14 0)
(3 -4.3988e-14 0)
(3 -5.33761e-14 0)
(3 -6.42258e-14 0)
(3 -8.60173e-16 0)
(3 1.14754e-14 0)
(3 -2.86706e-14 0)
(3 -1.15217e-14 0)
(3 1.00123e-14 0)
(3 6.88824e-14 0)
(3 1.07211e-13 0)
(3 1.06357e-13 0)
(3 7.63654e-14 0)
(3 7.45696e-14 0)
(3 3.58651e-14 0)
(3 -5.57752e-12 0)
(3 -2.30476e-07 0)
(3.06994 0.0246865 0)
(1.44097 0.641222 0)
(1.04716 0.682609 0)
(1.01569 0.679897 0)
(1.00077 0.683575 0)
(0.991036 0.690129 0)
(0.985137 0.69543 0)
(0.982599 0.703482 0)
(0.983678 0.713323 0)
(0.989726 0.726929 0)
(0.999345 0.742702 0)
(1.01524 0.760574 0)
(1.03436 0.779036 0)
(1.06028 0.7977 0)
(1.09248 0.815857 0)
(1.1318 0.833115 0)
(1.1781 0.848043 0)
(1.23658 0.861877 0)
(1.30343 0.871194 0)
(1.37641 0.873417 0)
(3 8.14432e-15 0)
(3 6.11794e-15 0)
(3 9.38261e-15 0)
(3 6.82554e-14 0)
(3 6.64451e-14 0)
(3 2.6501e-14 0)
(3 -5.45469e-16 0)
(3 -2.07057e-14 0)
(3 -1.2724e-13 0)
(3 -1.56957e-13 0)
(3 -1.53289e-13 0)
(3 -1.28683e-13 0)
(3 -8.62935e-14 0)
(3 -8.43002e-16 0)
(3 1.68896e-15 0)
(3 -1.05337e-14 0)
(3 -6.33785e-14 0)
(3 -7.92083e-14 0)
(3 -8.63675e-14 0)
(3 -8.94876e-14 0)
(3 -2.18647e-14 0)
(3 9.50093e-14 0)
(3 1.26147e-13 0)
(3 7.19309e-14 0)
(3 2.87237e-14 0)
(3 2.34093e-14 0)
(3 -2.69016e-14 0)
(3 -4.94069e-08 0)
(3.00355 7.89e-05 0)
(1.99808 0.610107 0)
(1.07328 0.728249 0)
(1.03578 0.69963 0)
(1.0312 0.698489 0)
(1.02244 0.704144 0)
(1.01529 0.708687 0)
(1.0126 0.716226 0)
(1.01339 0.724533 0)
(1.01863 0.736521 0)
(1.02785 0.7491 0)
(1.04281 0.765536 0)
(1.0635 0.781659 0)
(1.09017 0.798295 0)
(1.12246 0.814322 0)
(1.16035 0.82883 0)
(1.20404 0.840906 0)
(1.25789 0.851447 0)
(1.31698 0.857481 0)
(1.3832 0.858014 0)
(3 7.76269e-15 0)
(3 8.92182e-15 0)
(3 -4.35445e-14 0)
(3 -4.94757e-14 0)
(3 -4.40591e-15 0)
(3 5.45285e-14 0)
(3 5.17377e-14 0)
(3 6.26855e-15 0)
(3 -6.64746e-14 0)
(3 -6.14006e-14 0)
(3 -5.17792e-14 0)
(3 -5.39931e-14 0)
(3 -1.64662e-14 0)
(3 3.05554e-14 0)
(3 6.14729e-14 0)
(3 4.98477e-14 0)
(3 3.63461e-14 0)
(3 8.76835e-14 0)
(3 5.1356e-14 0)
(3 5.7908e-14 0)
(3 3.70054e-14 0)
(3 4.76876e-16 0)
(3 1.00595e-14 0)
(3 1.10989e-15 0)
(3 -2.17686e-14 0)
(3 3.00047e-14 0)
(3 4.24131e-14 0)
(3 -4.22577e-09 0)
(3.00001 -2.06975e-07 0)
(2.94975 0.216357 0)