/*--------------------------------*- C++ -*----------------------------------*\
  =========                 |
  \\      /  F ield         | OpenFOAM: The Open Source CFD Toolbox
   \\    /   O peration     | Website:  https://openfoam.org
    \\  /    A nd           | Version:  10
     \\/     M anipulation  |
\*---------------------------------------------------------------------------*/
FoamFile
{
    format      ascii;
    class       volScalarField;
    location    "5.5";
    object      p;
}
// * * * * * * * * * * * * * * * * * * * * * * * * * * * * * * * * * * * * * //

dimensions      [1 -1 -2 0 0 0 0];

internalField   nonuniform List<scalar> 
16128
(
1
1
1
1
1
1
1
1
1
1
1
1
1
1
1
1
1
1
1
1
1
1
1
1
4.93911
10.2903
10.5158
10.6099
10.7245
10.8308
10.9336
11.0319
11.1272
11.2202
11.3101
11.3948
11.4731
11.5468
11.6184
11.6863
11.7471
11.8008
11.8518
11.9007
11.9454
11.9762
11.9924
12.0086
1
1
1
1
1
1
1
1
1
1
1
1
1
1
1
1
1
1
1
1
1
1
1
1
4.85625
10.2493
10.5111
10.6067
10.7213
10.8273
10.9296
11.0275
11.1223
11.2145
11.3034
11.3875
11.4659
11.5394
11.6098
11.6756
11.7352
11.7897
11.8422
11.8904
11.9316
11.9582
11.9715
11.9949
1
1
1
1
1
1
1
1
1
1
1
1
1
1
1
1
1
1
1
1
1
1
1
1
4.67916
10.2005
10.4997
10.5955
10.7106
10.8166
10.9191
11.0173
11.1119
11.2033
11.2913
11.3753
11.4543
11.5276
11.5961
11.6598
11.7194
11.7754
11.8282
11.8726
11.9074
11.9301
11.9411
11.9762
1
1
1
1
1
1
1
1
1
1
1
1
1
1
1
1
1
1
1
1
1
1
1
1
4.42127
10.1244
10.4861
10.5816
10.6967
10.8022
10.9039
11.0014
11.0951
11.1852
11.2717
11.355
11.4338
11.5066
11.5735
11.6359
11.6962
11.7538
11.806
11.8462
11.8744
11.8933
11.9
11.9461
1
1
1
1
1
1
1
1
1
1
1
1
1
1
1
1
1
1
1
1
1
1
1
1
4.08933
10.013
10.47
10.5644
10.6791
10.7834
10.8838
10.98
11.0723
11.1607
11.2451
11.3266
11.4044
11.476
11.5414
11.6024
11.662
11.7189
11.7698
11.81
11.8406
11.8645
11.8457
11.9043
1
1
1
1
1
1
1
1
1
1
1
1
1
1
1
1
1
1
1
1
1
1
1
1
3.68752
9.85224
10.4523
10.5455
10.6598
10.7628
10.862
10.9571
11.0484
11.1353
11.2178
11.2969
11.3724
11.442
11.5055
11.5645
11.6218
11.6751
11.7214
11.7583
11.7884
11.8187
11.8047
11.8225
1
1
1
1
1
1
1
1
1
1
1
1
1
1
1
1
1
1
1
1
1
1
1
1
3.23845
9.61712
10.4318
10.521
10.634
10.7349
10.8321
10.9256
11.0153
11.1005
11.1806
11.2565
11.329
11.3963
11.4581
11.5155
11.5699
11.6192
11.662
11.6975
11.7241
11.7498
11.7457
11.7612
1
1
1
1
1
1
1
1
1
1
1
1
1
1
1
1
1
1
1
1
1
1
1
1
2.75714
9.29202
10.4182
10.4974
10.6071
10.7025
10.7952
10.8846
10.9709
11.0532
11.1307
11.2037
11.2732
11.3381
11.3984
11.4544
11.5065
11.5529
11.593
11.6258
11.647
11.666
11.664
11.6847
1
1
1
1
1
1
1
1
1
1
1
1
1
1
1
1
1
1
1
1
1
1
1
1
2.26607
8.85562
10.4229
10.4759
10.5824
10.6715
10.7609
10.8469
10.9299
11.0088
11.0826
11.1507
11.215
11.2749
11.3311
11.3833
11.431
11.4727
11.5094
11.5406
11.5618
11.5786
11.5472
11.594
1
1
1
1
1
1
1
1
1
1
1
1
1
1
1
1
1
1
1
1
1
1
1
1
1.77849
8.28152
10.4282
10.4493
10.5534
10.6334
10.7181
10.8007
10.8813
10.9576
11.0285
11.092
11.1507
11.2044
11.2545
11.3009
11.3433
11.3802
11.4127
11.4395
11.4549
11.4638
11.4206
11.4724
1
1
1
1
1
1
1
1
1
1
1
1
1
1
1
1
1
1
1
1
1
1
1
1
1.32496
7.62155
10.4649
10.4035
10.495
10.5722
10.6599
10.7429
10.8212
10.8953
10.9641
11.0244
11.078
11.1256
11.1689
11.2081
11.2428
11.2717
11.2947
11.3123
11.32
11.3213
11.2687
11.3333
1
1
1
1
1
1
1
1
1
1
1
1
1
1
1
1
1
1
1
1
1
1
1
1
1.01946
6.83043
10.3074
10.3238
10.418
10.5003
10.5848
10.6683
10.7493
10.8228
10.8892
10.9464
10.9952
11.0365
11.0722
11.1027
11.127
11.1463
11.1599
11.1698
11.1675
11.1524
11.0824
11.1337
1
1
1
1
1
1
1
1
1
1
1
1
1
1
1
1
1
1
1
1
1
1
1
1
1.0001
5.81166
10.0971
10.2324
10.3427
10.4398
10.5267
10.6029
10.6701
10.7373
10.8005
10.8548
10.8991
10.9343
10.9624
10.9836
10.9965
11.0036
11.0004
10.9896
10.9603
10.9228
10.8346
10.8973
1
1
1
1
1
1
1
1
1
1
1
1
1
1
1
1
1
1
1
1
1
1
1
1
1
4.7534
9.81131
10.1414
10.2575
10.3621
10.443
10.514
10.5807
10.6419
10.6963
10.7458
10.7857
10.8151
10.8358
10.8475
10.8459
10.8362
10.8116
10.7811
10.7319
10.6701
10.5414
10.5186
1
1
1
1
1
1
1
1
1
1
1
1
1
1
1
1
1
1
1
1
1
1
1
1
1
3.66426
9.38366
10.0957
10.2269
10.3179
10.3872
10.4437
10.4939
10.5404
10.5854
10.6273
10.6595
10.6819
10.6941
10.6933
10.6766
10.6484
10.598
10.5339
10.4268
10.272
10.057
9.99623
1
1
1
1
1
1
1
1
1
1
1
1
1
1
1
1
1
1
1
1
1
1
1
1
1
2.57789
8.70696
10.0981
10.1744
10.2484
10.3151
10.3688
10.4131
10.4494
10.4791
10.5052
10.5265
10.5389
10.5366
10.5218
10.4878
10.4352
10.3485
10.236
10.0665
9.86643
9.5516
9.50889
1
1
1
1
1
1
1
1
1
1
1
1
1
1
1
1
1
1
1
1
1
1
1
1
1
1.56564
7.9083
10.1831
10.1178
10.1867
10.2454
10.2884
10.324
10.3534
10.3742
10.3874
10.394
10.3942
10.3728
10.3405
10.2838
10.2034
10.0786
9.92092
9.66364
9.29599
8.38449
6.36347
1
1
1
1
1
1
1
1
1
1
1
1
1
1
1
1
1
1
1
1
1
1
1
1
1
1.04207
6.73555
10.1051
10.0263
10.0827
10.1448
10.1912
10.2256
10.25
10.2635
10.2657
10.258
10.2416
10.2029
10.1506
10.0685
9.95813
9.79132
9.56784
9.21135
8.59239
7.62148
5.34836
1
1
1
1
1
1
1
1
1
1
1
1
1
1
1
1
1
1
1
1
1
1
1
1
1
1.00008
5.15705
9.63426
9.86382
9.9744
10.0371
10.0847
10.1206
10.1405
10.1483
10.1422
10.1207
10.0876
10.0325
9.95977
9.85065
9.70903
9.50106
9.21123
8.78395
8.10989
7.0116
5.08986
1
1
1
1
1
1
1
1
1
1
1
1
1
1
1
1
1
1
1
1
1
1
1
1
1
0.999998
3.61719
9.17285
9.85248
9.92588
9.97473
9.99847
10.0203
10.0288
10.0288
10.0149
9.98091
9.93218
9.85917
9.76565
9.63244
9.46144
9.21907
8.88408
8.40097
7.71542
6.59905
5.08105
1
1
1
1
1
1
1
1
1
1
1
1
1
1
1
1
1
1
1
1
1
1
1
1
1
1
2.15765
8.35879
9.86528
9.85491
9.89262
9.91654
9.93181
9.9272
9.91447
9.88781
9.84138
9.7788
9.6886
9.57457
9.42153
9.22392
8.95568
8.59464
8.09488
7.40577
6.36943
5.19565
1
1
1
1
1
1
1
1
1
1
1
1
1
1
1
1
1
1
1
1
1
1
1
1
1
1
1.1434
7.0883
9.91684
9.82066
9.80611
9.8227
9.82797
9.81428
9.79182
9.75497
9.70012
9.6266
9.52227
9.39055
9.22022
9.00003
8.71529
8.34119
7.85002
7.17854
6.27492
5.31696
1
1
1
1
1
1
1
1
1
1
1
1
1
1
1
1
1
1
1
1
1
1
1
1
1
1
1.00175
5.37583
9.40098
9.62669
9.68367
9.70959
9.71226
9.69598
9.66615
9.62084
9.55692
9.47317
9.3586
9.21399
9.03045
8.79658
8.502
8.12352
7.64494
7.02176
6.24482
5.43722
1
1
1
1
1
1
1
1
1
1
1
1
1
1
1
1
1
1
1
1
1
1
1
1
1
1
0.999977
3.40038
8.84265
9.56725
9.61707
9.63409
9.62326
9.59722
9.55626
9.50065
9.42534
9.32995
9.20595
9.05075
8.85627
8.61451
8.31628
7.94167
7.47931
6.90803
6.24643
5.53747
1
1
1
1
1
1
1
1
1
1
1
1
1
1
1
1
1
1
1
1
1
1
1
1
1
1
0.999994
1.70517
7.97803
9.63404
9.55612
9.54256
9.51874
9.48522
9.43717
9.37529
9.29248
9.18838
9.05638
8.89381
8.69336
8.44927
8.15398
7.7906
7.34737
6.82413
6.25522
5.62809
1
1
1
1
1
1
1
1
1
1
1
1
1
1
1
1
1
1
1
1
1
1
1
1
1
1
0.999999
1.05012
6.34247
9.37078
9.37979
9.40464
9.38995
9.36477
9.318
9.25353
9.1662
9.05635
8.91852
8.75066
8.54654
8.30246
8.01234
7.66203
7.24206
6.76713
6.26285
5.7006
1
1
1
1
1
1
1
1
1
1
1
1
1
1
1
1
1
1
1
1
1
1
1
1
1
1
1
1.00005
4.07122
8.86074
9.30957
9.33936
9.31435
9.27744
9.22111
9.14694
9.05101
8.9333
8.79022
8.61879
8.41291
8.17292
7.8868
7.54897
7.15878
6.72802
6.27116
5.77041
1
1
1
1
1
1
1
1
1
1
1
1
1
1
1
1
1
1
1
1
1
1
1
1
1
1
1
0.999999
1.98603
8.10077
9.34063
9.26355
9.21492
9.17077
9.11341
9.03594
8.936
8.81446
8.66724
8.49645
8.29044
8.05803
7.77292
7.45091
7.08897
6.70024
6.27716
5.82298
1
1
1
1
1
1
1
1
1
1
1
1
1
1
1
1
1
1
1
1
1
1
1
1
1
1
1
1
1.08754
6.34622
9.1311
9.13524
9.10265
9.0659
9.01007
8.93069
8.8278
8.70415
8.55588
8.38373
8.18497
7.95169
7.67709
7.37271
7.03437
6.67951
6.28526
5.87649
1
1
1
1
1
1
1
1
1
1
1
1
1
1
1
1
1
1
1
1
1
1
1
1
1
1
1
1
1.00038
3.78213
8.58988
9.05537
9.02717
8.99938
8.94086
8.85013
8.73698
8.60611
8.45513
8.27875
8.0875
7.85341
7.59381
7.30578
6.98928
6.65765
6.29183
5.91865
1
1
1
1
1
1
1
1
1
1
1
1
1
1
1
1
1
1
1
1
1
1
1
1
1
1
1
1
0.999996
1.57276
7.66531
9.18377
9.00274
8.92134
8.84718
8.74831
8.63444
8.50701
8.35884
8.18552
7.99523
7.77048
7.52499
7.25131
6.95509
6.64155
6.30419
5.95638
1
1
1
1
1
1
1
1
1
1
1
1
1
1
1
1
1
1
1
1
1
1
1
1
1
1
1
1
0.999999
1.02895
5.68393
8.75201
8.78851
8.81062
8.74225
8.64398
8.53594
8.41467
8.27045
8.10349
7.91165
7.6975
7.46271
7.20195
6.92304
6.62526
6.31221
5.985
1
1
1
1
1
1
1
1
1
1
1
1
1
1
1
1
1
1
1
1
1
1
1
1
1
1
1
1
1
0.999938
2.91805
8.09015
8.78541
8.75868
8.66982
8.57453
8.46952
8.34737
8.20126
8.03357
7.84328
7.63378
7.40637
7.15868
6.89445
6.61212
6.3201
6.01106
1
1
1
1
1
1
1
1
1
1
1
1
1
1
1
1
1
1
1
1
1
1
1
1
1
1
1
1
1
0.999981
1.26243
6.62936
8.82169
8.67707
8.58311
8.49333
8.39221
8.27111
8.12627
7.96218
7.77862
7.57662
7.35694
7.12018
6.86592
6.5975
6.32226
6.03123
1
1
1
1
1
1
1
1
1
1
1
1
1
1
1
1
1
1
1
1
1
1
1
1
1
1
1
1
1
0.999997
1.00545
4.02682
8.2349
8.51131
8.48283
8.42574
8.33421
8.21337
8.06817
7.90557
7.72559
7.52797
7.314
7.08425
6.83859
6.58498
6.32395
6.05124
1
1
1
1
1
1
1
1
1
1
1
1
1
1
1
1
1
1
1
1
1
1
1
1
1
1
1
1
1
1
0.999983
1.57279
7.11775
8.64057
8.48891
8.39424
8.28639
8.15588
8.00861
7.84804
7.6722
7.47971
7.27272
7.05156
6.81665
6.57519
6.32584
6.06891
1
1
1
1
1
1
1
1
1
1
1
1
1
1
1
1
1
1
1
1
1
1
1
1
1
1
1
1
1
1
0.999996
1.02703
4.7873
8.23783
8.33626
8.29771
8.2082
8.08836
7.94906
7.79449
7.62345
7.43589
7.23514
7.02156
6.79629
6.56424
6.32634
6.08256
1
1
1
1
1
1
1
1
1
1
1
1
1
1
1
1
1
1
1
1
1
1
1
1
1
1
1
1
1
1
0.999999
1.00002
1.8807
7.34386
8.44323
8.29813
8.17921
8.05051
7.90763
7.75102
7.57958
7.39477
7.19865
6.99216
6.7771
6.55549
6.32924
6.09725
1
1
1
1
1
1
1
1
1
1
1
1
1
1
1
1
1
1
1
1
1
1
1
1
1
1
1
1
1
1
1
1
1.06039
5.20824
8.15573
8.1875
8.10655
7.98922
7.85162
7.69834
7.53058
7.35156
7.16227
6.96432
6.75977
6.54872
6.33185
6.11013
1
1
1
1
1
1
1
1
1
1
1
1
1
1
1
1
1
1
1
1
1
1
1
1
1
1
1
1
1
1
1
1
1.00023
2.10894
7.32983
8.23031
8.08531
7.95455
7.81258
7.65874
7.49299
7.31868
7.13627
6.94572
6.74862
6.54581
6.33683
6.12405
1
1
1
1
1
1
1
1
1
1
1
1
1
1
1
1
1
1
1
1
1
1
1
1
1
1
1
1
1
1
1
1
1
1.09114
5.3024
8.04338
8.01181
7.89405
7.75913
7.60952
7.44963
7.28169
7.10613
6.92314
6.7339
6.53962
6.34032
6.13704
1
1
1
1
1
1
1
1
1
1
1
1
1
1
1
1
1
1
1
1
1
1
1
1
1
1
1
1
1
1
1
1
1
1.00063
2.19118
7.17203
8.01963
7.85905
7.72399
7.57487
7.41817
7.2548
7.08539
6.90971
6.72814
6.54118
6.34928
6.15321
1
1
1
1
1
1
1
1
1
1
1
1
1
1
1
1
1
1
1
1
1
1
1
1
1
1
1
1
1
1
1
1
1
1
1.10252
5.11186
7.84576
7.8046
7.6753
7.53312
7.38087
7.22424
7.06272
6.89466
6.72005
6.54039
6.35501
6.16434
1
1
1
1
1
1
1
1
1
1
1
1
1
1
1
1
1
1
1
1
1
1
1
1
1
1
1
1
1
1
1
1
1
1
1.0009
2.10417
6.84906
7.79927
7.63912
7.50417
7.35597
7.20588
7.05043
6.88788
6.71788
6.54352
6.36502
6.17989
1
1
1
1
1
1
1
1
1
1
1
1
1
1
1
1
1
1
1
1
1
1
1
1
1
1
1
1
1
1
1
1
1
1
1
1.08771
4.58591
7.57905
7.59735
7.46717
7.3292
7.18693
7.03657
6.87932
6.71434
6.54397
6.37261
6.19652
1
1
1
1
1
1
1
1
1
1
1
1
1
1
1
1
1
1
1
1
1
1
1
1
1
1
1
1
1
1
1
1
1
1
1
1.00083
1.84589
6.34548
7.59219
7.4481
7.32596
7.18255
7.02972
6.87379
6.71388
6.54926
6.38364
6.21595
1
1
1
1
1
1
1
1
1
1
1
1
1
1
1
1
1
1
1
1
1
1
1
1
1
1
1
1
1
1
1
1
1
1
1
1
1.05297
3.68883
7.21684
7.43549
7.30489
7.16244
7.01444
6.86459
6.71335
6.55881
6.39667
6.23412
1
1
1
1
1
1
1
1
1
1
1
1
1
1
1
1
1
1
1
1
1
1
1
1
1
1
1
1
1
1
1
1
1
1
1
1
1.00048
1.48712
5.66135
7.47819
7.29451
7.15193
7.01207
6.87058
6.72431
6.57502
6.41395
6.25372
1
1
1
1
1
1
1
1
1
1
1
1
1
1
1
1
1
1
1
1
1
1
1
1
1
1
1
1
1
1
1
1
1
1
1
1
1
1.01909
2.74229
6.69319
7.25336
7.134
7.01199
6.87377
6.72908
6.57648
6.42384
6.26378
1
1
1
1
1
1
1
1
1
1
1
1
1
1
1
1
1
1
1
1
1
1
1
1
1
1
1
1
1
1
1
1
1
1
1
1
1
1.00014
1.20936
4.61095
7.20856
7.16638
7.04133
6.89391
6.74319
6.59046
6.43559
6.28423
1
1
1
1
1
1
1
1
1
1
1
1
1
1
1
1
1
1
1
1
1
1
1
1
1
1
1
1
1
1
1
1
1
1
1
1
1
1
1.00435
1.93125
5.99322
7.15412
7.007
6.86841
6.72836
6.58069
6.43478
6.27903
1
1
1
1
1
1
1
1
1
1
1
1
1
1
1
1
1
1
1
1
1
1
1
1
1
1
1
1
1
1
1
1
1
1
1
1
1
1
1.00002
1.06408
3.29778
6.68435
7.001
6.87894
6.74931
6.60056
6.46613
6.33445
1
1
1
1
1
1
1
1
1
1
1
1
1
1
1
1
1
1
1
1
1
1
1
1
1
1
1
1
1
1
1
1
1
1
1
1
1
1
1
1.00079
1.3602
4.86456
6.95059
6.91065
6.76521
6.6303
6.5462
6.81256
1
1
1
1
1
1
1
1
1
1
1
1
1
1
1
1
1
1
1
1
1
1
1
1
1
1
1
1
1
1
1
1
1
1
1
1
1
1
1
1
1.01162
2.1308
5.91275
6.8726
6.73971
6.70865
7.18878
8.37438
1
1
1
1
1
1
1
1
1
1
1
1
1
1
1
1
1
1
1
1
1
1
1
1
1
1
1
1
1
1
1
1
1
1
1
1
1
1
1
1
1.00009
1.09263
3.37256
6.35557
6.79371
7.69589
9.14128
9.86768
1
1
1
1
1
1
1
1
1
1
1
1
1
1
1
1
1
1
1
1
1
1
1
1
1
1
1
1
1
1
1
1
1
1
1
1
1
1
1
1
1
1.00146
1.39309
4.32063
7.72738
9.97823
10.5601
10.3558
1
1
1
1
1
1
1
1
1
1
1
1
1
1
1
1
1
1
1
1
1
1
1
1
1
1
1
1
1
1
1
1
1
1
1
1
1
1
1
1
1
1.00001
1.01336
2.09544
9.4872
11.3495
10.8834
10.3852
1
1
1
1
1
1
1
1
1
1
1
1
1
1
1
1
1
1
1
1
1
1
1
1
1
1
1
1
1
1
1
1
1
1
1
1
1
1
1
1
1
1
1.00015
2.03713
9.71535
11.0764
10.5059
10.1451
1
1
1
1
1
1
1
1
1
1
1
1
1
1
1
1
1
1
1
1
1
1
1
1
1
1
1
1
1
1
1
1
1
1
1
1
1
1
1
1
1
1
1
2.0895
9.0152
10.6294
10.3452
10.2489
1
1
1
1
1
1
1
1
1
1
1
1
1
1
1
1
1
1
1
1
1
1
1
1
1
1
1
1
1
1
1
1
1
1
1
1
1
1
1
1
1
1
1
1.8689
8.52827
10.5078
10.3365
10.2618
1
1
1
1
1
1
1
1
1
1
1
1
1
1
1
1
1
1
1
1
1
1
1
1
1
1
1
1
1
1
1
1
1
1
1
1
1
1
1
1
1
1
1
1.52509
7.89762
10.3662
10.2472
10.2423
1
1
1
1
1
1
1
1
1
1
1
1
1
1
1
1
1
1
1
1
1
1
1
1
1
1
1
1
1
1
1
1
1
1
1
1
1
1
1
1
1
1
1
1.20036
7.26908
10.383
10.3025
10.2256
1
1
1
1
1
1
1
1
1
1
1
1
1
1
1
1
1
1
1
1
1
1
1
1
1
1
1
1
1
1
1
1
1
1
1
1
1
1
1
1
1
1
1
1.00927
6.56211
10.2866
10.2868
10.2096
1
1
1
1
1
1
1
1
1
1
1
1
1
1
1
1
1
1
1
1
1
1
1
1
1
1
1
1
1
1
1
1
1
1
1
1
1
1
1
1
1
1
1
1.00005
5.79888
10.181
10.2996
10.2003
1
1
1
1
1
1
1
1
1
1
1
1
1
1
1
1
1
1
1
1
1
1
1
1
1
1
1
1
1
1
1
1
1
1
1
1
1
1
1
1
1
1
1
1
5.05847
10.0675
10.3174
10.21
1
1
1
1
1
1
1
1
1
1
1
1
1
1
1
1
1
1
1
1
1
1
1
1
1
1
1
1
1
1
1
1
1
1
1
1
1
1
1
1
1
1
1
1
4.37489
9.92678
10.3439
10.2247
1
1
1
1
1
1
1
1
1
1
1
1
1
1
1
1
1
1
1
1
1
1
1
1
1
1
1
1
1
1
1
1
1
1
1
1
1
1
1
1
1
1
1
1
3.77832
9.74939
10.3761
10.2422
1
1
1
1
1
1
1
1
1
1
1
1
1
1
1
1
1
1
1
1
1
1
1
1
1
1
1
1
1
1
1
1
1
1
1
1
1
1
1
1
1
1
1
1
3.26282
9.53638
10.4053
10.2547
1
1
1
1
1
1
1
1
1
1
1
1
1
1
1
1
1
1
1
1
1
1
1
1
1
1
1
1
1
1
1
1
1
1
1
1
1
1
1
1
1
1
1
1
2.81654
9.31103
10.4342
10.2697
1
1
1
1
1
1
1
1
1
1
1
1
1
1
1
1
1
1
1
1
1
1
1
1
1
1
1
1
1
1
1
1
1
1
1
1
1
1
1
1
1
1
1
1
2.42402
9.10408
10.4587
10.2848
1
1
1
1
1
1
1
1
1
1
1
1
1
1
1
1
1
1
1
1
1
1
1
1
1
1
1
1
1
1
1
1
1
1
1
1
1
1
1
1
1
1
1
1
2.13602
8.87188
10.4715
10.2998
1
1
1
1
1
1
1
1
1
1
1
1
1
1
1
1
1
1
1
1
1
1
1
1
1
1
1
1
1
1
1
1
1
1
1
1
1
1
1
1
1
1
1
1
1.923
8.6336
10.469
10.3088
1
1
1
1
1
1
1
1
1
1
1
1
1
1
1
1
1
1
1
1
1
1
1
1
1
1
1
1
1
1
1
1
1
1
1
1
1
1
1
1
1
1
1
1
1.7563
8.40885
10.4617
10.3177
1
1
1
1
1
1
1
1
1
1
1
1
1
1
1
1
1
1
1
1
1
1
1
1
1
1
1
1
1
1
1
1
1
1
1
1
1
1
1
1
1
1
1
1
1.62949
8.20657
10.4491
10.3189
1
1
1
1
1
1
1
1
1
1
1
1
1
1
1
1
1
1
1
1
1
1
1
1
1
1
1
1
1
1
1
1
1
1
1
1
1
1
1
1
1
1
1
1
1.53462
8.03297
10.4387
10.3184
1
1
1
1
1
1
1
1
1
1
1
1
1
1
1
1
1
1
1
1
1
1
1
1
1
1
1
1
1
1
1
1
1
1
1
1
1
1
1
1
1
1
1
1
1.46561
7.8935
10.4331
10.3165
1
1
1
1
1
1
1
1
1
1
1
1
1
1
1
1
1
1
1
1
1
1
1
1
1
1
1
1
1
1
1
1
1
1
1
1
1
1
1
1
1
1
1
1
1.41847
7.79209
10.4327
10.312
1
1
1
1
1
1
1
1
1
1
1
1
1
1
1
1
1
1
1
1
1
1
1
1
1
1
1
1
1
1
1
1
1
1
1
1
1
1
1
1
1
1
1
1
1.38717
7.72778
10.4406
10.3098
1
1
1
1
1
1
1
1
1
1
1
1
1
1
1
1
1
1
1
1
1
1
1
1
1
1
1
1
1
1
1
1
1
1
1
1
1
1
1
1
1
1
1
1
1.36904
7.69627
10.4541
10.3123
1
1
1
1
1
1
1
1
1
1
1
1
1
1
1
1
1
1
1
1
1
1
1
1
1
1
1
1
1
1
1
1
1
1
1
1
1
1
1
1
1
1
1
1
1.36514
7.69162
10.4699
10.3236
1.26139
0.193787
0.0129808
0.0111556
0.0554732
0.119497
0.14092
0.18125
0.226341
0.269277
0.316699
0.359465
0.431434
0.518071
0.59977
0.682423
0.784104
0.891629
0.923291
0.93196
0.966173
0.976865
1.00026
1.04825
1.06317
1.06245
1.07079
1.09124
1.11039
1.1463
1.18766
1.20847
1.21914
1.20673
1.18965
1.19279
1.21912
1.2687
1.30311
1.31768
1.31296
1.25539
1.6354
4.10559
5.28627
5.43736
5.43167
5.58662
5.67939
5.67692
5.68755
5.70473
5.71847
5.70051
5.66601
5.6382
5.63907
5.67433
5.72852
5.76473
5.75604
5.71471
5.67851
5.67398
5.69411
5.70429
5.668
5.60823
5.54548
5.49514
5.45762
5.43551
5.42017
5.40564
5.39161
5.38022
5.37248
5.36922
5.36246
5.329
5.27846
5.22754
5.18452
5.14931
5.11709
5.08187
5.04309
5.0047
4.97116
4.94397
4.92143
4.90043
4.87768
4.85056
4.82063
4.79243
4.76975
4.75386
4.74195
4.72804
4.70516
4.67018
4.62791
4.5861
4.55135
4.52544
4.50356
4.47766
4.44515
4.40815
4.36912
4.33064
4.29468
4.26284
4.23547
4.2108
4.18614
4.15906
4.1273
4.091
4.05294
4.01683
3.98503
3.95831
3.93525
3.91333
3.89043
3.86516
3.83671
3.80521
3.77184
3.73833
3.7056
3.67223
3.63695
3.60074
3.5651
3.53172
3.50253
3.47886
3.45962
3.44049
3.41736
3.39018
3.36035
3.32914
3.29854
3.27101
3.24905
3.23235
3.21502
3.19133
3.16137
3.12836
3.09506
3.06491
3.04304
3.03164
3.02237
3.00647
2.9815
2.95128
2.91543
2.87644
2.84202
2.81433
2.79845
2.78652
2.76733
2.74236
2.71539
2.68844
2.66448
2.64512
2.62703
2.60605
2.58406
2.56276
2.54416
2.52961
2.51615
2.49976
2.47571
2.4402
2.40332
2.37348
2.35332
2.34013
2.33716
2.33212
2.321
2.28419
2.09337
1.01732
0.439871
0.149687
0.158393
0.19915
0.186976
0.174342
0.174583
0.185325
0.221419
0.284018
0.348642
0.395115
0.444362
0.498937
0.549025
0.631819
0.711775
0.753558
0.808209
0.891801
0.954436
0.995597
1.03008
1.05189
1.07735
1.10933
1.1211
1.12132
1.11405
1.11301
1.12707
1.17192
1.22636
1.25959
1.27772
1.28251
1.25422
1.22691
1.21722
1.22733
1.38497
3.66509
5.45662
5.53327
5.50098
5.60156
5.68908
5.69681
5.67652
5.68848
5.69929
5.69756
5.68035
5.65886
5.64928
5.66142
5.69393
5.72878
5.74779
5.73589
5.70519
5.68178
5.67297
5.67227
5.6497
5.60096
5.54996
5.50303
5.46605
5.44407
5.43251
5.42394
5.41407
5.40151
5.38577
5.36658
5.34124
5.30749
5.26529
5.22075
5.1809
5.14895
5.12196
5.09223
5.05747
5.02009
4.98209
4.9466
4.91593
4.88926
4.86557
4.84389
4.82267
4.80107
4.77939
4.75688
4.73186
4.70417
4.67525
4.64645
4.61742
4.58916
4.56318
4.53672
4.50501
4.46825
4.43006
4.39296
4.35763
4.32418
4.29386
4.26628
4.23827
4.20795
4.17616
4.14454
4.11427
4.08464
4.05409
4.02299
3.99255
3.96261
3.93262
3.90263
3.873
3.844
3.81666
3.79159
3.76757
3.74149
3.71112
3.67886
3.64482
3.60804
3.57131
3.53761
3.50719
3.47931
3.45294
3.42853
3.40346
3.37679
3.35016
3.32474
3.30053
3.27763
3.25412
3.22983
3.20473
3.17764
3.14996
3.12336
3.09987
3.07819
3.0559
3.03284
3.01013
2.98459
2.9562
2.92787
2.90122
2.87746
2.85468
2.82937
2.80326
2.77949
2.75689
2.73441
2.71205
2.68897
2.66346
2.63767
2.61616
2.5986
2.58381
2.57129
2.55794
2.53917
2.51099
2.47807
2.44686
2.42035
2.40123
2.38872
2.37877
2.36835
2.35464
2.33044
2.2993
2.25798
2.72551
1.76808
1.20104
0.732386
0.496563
0.456097
0.390762
0.302359
0.289136
0.308305
0.314192
0.318043
0.323034
0.33601
0.351403
0.36687
0.384291
0.418519
0.502081
0.598512
0.666909
0.753624
0.835478
0.901934
0.972979
1.0199
1.06917
1.11536
1.12806
1.12189
1.10786
1.1133
1.1466
1.21084
1.25016
1.25813
1.25659
1.22782
1.20214
1.20266
1.23354
1.29756
1.34117
2.62317
5.4875
5.91514
5.74315
5.74373
5.75757
5.74798
5.70462
5.69327
5.69005
5.68685
5.68166
5.67799
5.67582
5.67624
5.68263
5.69635
5.72024
5.73948
5.73261
5.70089
5.66802
5.64403
5.61753
5.58498
5.54863
5.51279
5.4834
5.46339
5.45173
5.44342
5.43391
5.41943
5.39573
5.35964
5.31712
5.27654
5.23897
5.2054
5.17731
5.15376
5.1306
5.10268
5.06879
5.03184
4.98991
4.94699
4.91
4.87741
4.85212
4.83545
4.82292
4.80718
4.78528
4.75715
4.72381
4.68747
4.65298
4.62639
4.60937
4.59575
4.57641
4.5459
4.50554
4.46342
4.42251
4.38517
4.35352
4.32783
4.30468
4.27923
4.24809
4.21187
4.17487
4.13979
4.10904
4.0837
4.0601
4.03363
4.00385
3.97155
3.93601
3.89865
3.8638
3.83196
3.80398
3.78273
3.7655
3.74239
3.71427
3.68562
3.65365
3.61717
3.58116
3.54827
3.51621
3.48312
3.44969
3.4182
3.38985
3.36444
3.3424
3.32296
3.30504
3.28561
3.26187
3.23097
3.19591
3.16637
3.14449
3.12727
3.11176
3.09298
3.06775
3.0331
2.99376
2.95948
2.93307
2.91325
2.8984
2.88476
2.86694
2.8413
2.80761
2.77543
2.74981
2.7278
2.70634
2.68293
2.65698
2.63146
2.6121
2.59941
2.58845
2.57537
2.55747
2.52951
2.49196
2.45724
2.43426
2.42238
2.41489
2.40578
2.39298
2.37435
2.34508
2.30554
2.27307
2.24836
3.3804
2.46664
1.84793
1.30945
0.985839
0.847914
0.713263
0.550416
0.504386
0.49036
0.450958
0.399683
0.397561
0.407714
0.405684
0.400051
0.403587
0.428458
0.446863
0.461073
0.488441
0.540047
0.620149
0.706575
0.822677
0.924629
0.983172
1.02835
1.06066
1.07239
1.07236
1.09888
1.15506
1.20508
1.2219
1.2255
1.22197
1.20319
1.20401
1.22501
1.27396
1.31769
1.32278
1.78549
5.2494
6.31225
5.96772
5.92211
5.87193
5.81182
5.75133
5.73214
5.72156
5.70708
5.69087
5.68607
5.68311
5.67709
5.67663
5.68402
5.69922
5.72299
5.73216
5.7017
5.66138
5.63295
5.61174
5.58657
5.55447
5.52082
5.49185
5.47079
5.45427
5.44075
5.42519
5.40564
5.37869
5.33929
5.29475
5.25762
5.2335
5.21321
5.18881
5.15927
5.12692
5.09677
5.06634
5.03444
5.00056
4.96196
4.92111
4.89033
4.86513
4.84598
4.82996
4.81008
4.78355
4.75145
4.7161
4.67986
4.64645
4.62314
4.61404
4.60398
4.578
4.54196
4.50273
4.45964
4.42102
4.38633
4.35799
4.33772
4.31348
4.28005
4.24382
4.20506
4.16885
4.13712
4.10991
4.08778
4.06332
4.0346
4.00448
3.97037
3.93041
3.89022
3.85601
3.82712
3.80206
3.78159
3.76153
3.73675
3.71105
3.68372
3.65173
3.61722
3.58443
3.55258
3.51947
3.48415
3.44705
3.41087
3.38089
3.35899
3.34079
3.32353
3.30557
3.28529
3.25898
3.22401
3.18667
3.1623
3.14663
3.1329
3.11738
3.09781
3.06975
3.02811
2.98123
2.94626
2.92661
2.9136
2.90182
2.88862
2.8723
2.84769
2.81075
2.77178
2.74276
2.72065
2.70058
2.68095
2.66232
2.64573
2.63044
2.61388
2.59324
2.56654
2.53451
2.50117
2.47426
2.4593
2.45192
2.44801
2.44121
2.42895
2.40652
2.36204
2.31114
2.28024
2.26943
2.25876
3.92352
3.02963
2.42131
1.91035
1.5199
1.26302
1.04768
0.840619
0.761189
0.714712
0.666991
0.603902
0.558853
0.542073
0.534115
0.510197
0.479584
0.475635
0.484163
0.487692
0.481868
0.481924
0.490226
0.510736
0.559651
0.644502
0.723976
0.80698
0.895211
0.976323
1.02598
1.06556
1.13059
1.1753
1.18141
1.18735
1.19344
1.19244
1.20199
1.22573
1.26074
1.30309
1.33068
1.49653
4.52786
6.60338
6.27918
6.04314
5.94854
5.88594
5.84747
5.79657
5.74263
5.7117
5.70807
5.72826
5.73297
5.71219
5.69282
5.68937
5.69043
5.70552
5.72397
5.7086
5.67174
5.63636
5.60336
5.56461
5.53161
5.50994
5.49691
5.48818
5.47573
5.44861
5.41422
5.38627
5.35601
5.32273
5.29214
5.2731
5.26315
5.23694
5.19815
5.15993
5.12655
5.10008
5.07252
5.04364
5.01266
4.9721
4.92421
4.88924
4.86438
4.84247
4.82257
4.79757
4.767
4.73009
4.69304
4.66078
4.63372
4.61983
4.61808
4.60253
4.56962
4.53155
4.48562
4.43795
4.4014
4.37263
4.35214
4.33682
4.3112
4.27937
4.24075
4.19959
4.16604
4.13764
4.11242
4.08794
4.0608
4.03199
3.99868
3.95933
3.91901
3.88391
3.85488
3.83011
3.8074
3.78327
3.75764
3.73173
3.70401
3.67215
3.6383
3.60684
3.57766
3.54831
3.5173
3.48436
3.44988
3.41512
3.38313
3.35726
3.33642
3.31699
3.29664
3.27342
3.24643
3.21672
3.1865
3.16071
3.14261
3.12656
3.11017
3.09087
3.06305
3.02546
2.98568
2.95038
2.92387
2.90623
2.89167
2.87788
2.86305
2.84225
2.808
2.76888
2.73883
2.71705
2.69884
2.68211
2.66573
2.64862
2.62972
2.60763
2.57958
2.54653
2.51395
2.48773
2.47284
2.46438
2.45926
2.45346
2.44391
2.43085
2.40022
2.34298
2.29422
2.27588
2.26965
2.25979
4.28722
3.52054
2.91163
2.36667
1.98221
1.67944
1.4135
1.17253
1.03058
0.926656
0.864
0.828421
0.773729
0.694348
0.661231
0.649023
0.624482
0.580686
0.55504
0.551769
0.545447
0.534968
0.530962
0.535564
0.538212
0.541578
0.549661
0.574611
0.632886
0.726453
0.84653
0.94598
1.04042
1.09509
1.11023
1.12374
1.14976
1.16843
1.18991
1.21849
1.24369
1.30787
1.49219
1.7521
3.28259
6.35977
6.55486
6.16043
6.02612
6.01706
6.01235
5.88929
5.74528
5.68091
5.68964
5.73488
5.74622
5.71817
5.67162
5.66291
5.6627
5.68877
5.72855
5.72931
5.69469
5.63283
5.58476
5.55365
5.53748
5.53686
5.53226
5.51131
5.47948
5.43395
5.39261
5.36822
5.34736
5.32825
5.31352
5.30026
5.26954
5.22582
5.18223
5.14701
5.12041
5.09715
5.06735
5.03565
4.99937
4.95731
4.91834
4.89191
4.87069
4.84999
4.82649
4.7945
4.75423
4.71721
4.68945
4.66752
4.655
4.64943
4.63056
4.59693
4.55389
4.50429
4.45854
4.4252
4.40082
4.38678
4.37566
4.35296
4.3219
4.27998
4.23227
4.19162
4.16089
4.13467
4.11102
4.08581
4.05833
4.02463
3.98244
3.94069
3.90754
3.88201
3.86033
3.84165
3.82005
3.79381
3.76331
3.72679
3.68738
3.65133
3.62086
3.59417
3.56862
3.54285
3.51619
3.48856
3.46009
3.42996
3.39767
3.36461
3.33405
3.3075
3.28349
3.26027
3.23781
3.21634
3.19483
3.1711
3.14478
3.12008
3.09895
3.0756
3.04814
3.02044
2.99445
2.96761
2.93812
2.90973
2.88828
2.87206
2.85494
2.83054
2.79962
2.77061
2.74823
2.73049
2.71488
2.69914
2.68061
2.65589
2.62157
2.5837
2.55247
2.52823
2.51224
2.50239
2.49614
2.4905
2.48053
2.46628
2.44487
2.40917
2.36536
2.3257
2.30529
2.29431
2.28748
2.27115
4.57915
3.88641
3.30917
2.79684
2.38317
2.03883
1.71918
1.49649
1.35325
1.21627
1.06896
1.0174
0.980183
0.905353
0.806347
0.781984
0.768237
0.730368
0.676333
0.650297
0.64161
0.633464
0.624705
0.607916
0.593826
0.583344
0.563099
0.556028
0.559252
0.575053
0.615385
0.682953
0.754603
0.840718
0.925815
0.983926
1.04255
1.10619
1.17083
1.21563
1.28391
1.50104
1.91535
2.14888
2.49234
4.78254
6.25497
6.18594
6.14636
6.17244
6.15671
5.94285
5.77252
5.71496
5.73374
5.79015
5.79662
5.75156
5.68061
5.67878
5.69373
5.72376
5.74153
5.72049
5.68057
5.63027
5.59525
5.57497
5.55851
5.5383
5.50951
5.47068
5.42819
5.38799
5.36472
5.35001
5.334
5.31741
5.30215
5.28181
5.2468
5.20383
5.16664
5.13848
5.11754
5.09255
5.06177
5.03025
4.9968
4.96544
4.94142
4.9194
4.89475
4.86484
4.82634
4.78093
4.74072
4.71325
4.69208
4.67656
4.6619
4.63622
4.60257
4.56199
4.51957
4.48341
4.45721
4.44009
4.42787
4.40854
4.37964
4.34213
4.2967
4.24925
4.21044
4.18167
4.15721
4.13463
4.11017
4.08283
4.04922
4.00565
3.96093
3.92771
3.90429
3.88561
3.8731
3.8583
3.83584
3.80584
3.76354
3.71124
3.66537
3.63268
3.60619
3.58123
3.55666
3.53261
3.50959
3.48715
3.4641
3.43812
3.40693
3.37108
3.3337
3.29823
3.26801
3.24469
3.22651
3.21059
3.19446
3.17482
3.14695
3.11102
3.07551
3.04804
3.02792
3.0111
2.99494
2.97731
2.95431
2.9229
2.88767
2.85668
2.82913
2.80454
2.78448
2.76809
2.75229
2.73605
2.7198
2.70318
2.68335
2.65341
2.60747
2.55936
2.52962
2.51632
2.50797
2.5064
2.50837
2.50109
2.48892
2.46779
2.42782
2.37515
2.33541
2.32157
2.31312
2.30371
2.29497
2.27594
4.80425
4.19194
3.62363
3.13835
2.73869
2.38314
2.0421
1.80615
1.63702
1.4983
1.35336
1.2371
1.16625
1.09667
0.990681
0.898596
0.875674
0.855806
0.823792
0.775854
0.724937
0.712981
0.714619
0.707562
0.686255
0.663573
0.638304
0.606471
0.601202
0.602041
0.605545
0.61272
0.623105
0.641705
0.676435
0.729397
0.808172
0.912382
1.0346
1.1727
1.40452
1.79343
2.16678
2.38052
2.47618
3.03534
5.02277
6.05867
6.32401
6.41935
6.31071
5.98955
5.79905
5.75352
5.75985
5.7907
5.79273
5.7614
5.70834
5.69914
5.69594
5.69123
5.68577
5.66942
5.65519
5.64275
5.60928
5.56723
5.53215
5.49874
5.47143
5.44394
5.41844
5.39714
5.3781
5.35902
5.3382
5.31957
5.30546
5.28679
5.25656
5.21779
5.18235
5.15353
5.12933
5.10398
5.07352
5.04276
5.0116
4.9808
4.95077
4.91999
4.88624
4.84574
4.80017
4.76271
4.7359
4.71438
4.69361
4.66893
4.64079
4.61038
4.57764
4.54718
4.52302
4.50624
4.49052
4.46584
4.43308
4.39269
4.34832
4.30416
4.26346
4.23284
4.20967
4.19194
4.17109
4.14421
4.1118
4.07183
4.0279
3.98592
3.95384
3.9314
3.9147
3.90494
3.8911
3.86791
3.83671
3.79338
3.7407
3.69154
3.65439
3.62671
3.60228
3.5787
3.55561
3.53274
3.51091
3.49183
3.46839
3.43761
3.40281
3.3681
3.33531
3.30188
3.27018
3.24604
3.22884
3.21544
3.19969
3.17603
3.13898
3.0926
3.05623
3.036
3.0216
3.00894
2.99831
2.98418
2.96477
2.93246
2.88373
2.83935
2.81208
2.79584
2.78339
2.77132
2.75801
2.74251
2.72446
2.70248
2.67165
2.63325
2.59238
2.55728
2.53812
2.52709
2.5215
2.5215
2.51759
2.50609
2.48703
2.44907
2.39725
2.35768
2.34316
2.3358
2.32811
2.31829
2.30705
2.27958
5.00505
4.4443
3.8956
3.45296
3.06293
2.67884
2.35361
2.1399
1.93522
1.74554
1.61367
1.48301
1.35338
1.27213
1.19298
1.07027
0.976877
0.959419
0.950595
0.927407
0.88852
0.830535
0.791358
0.788114
0.774907
0.741052
0.711807
0.683359
0.673466
0.669816
0.660506
0.642824
0.641234
0.641955
0.629933
0.628543
0.640996
0.68222
0.78515
1.03338
1.46862
1.85314
2.03211
2.2845
2.37015
2.41032
3.14723
5.08944
6.24745
6.59045
6.47665
6.09863
5.89631
5.83077
5.80399
5.80447
5.80106
5.77477
5.72905
5.68843
5.66271
5.64549
5.64387
5.65249
5.66129
5.64142
5.60484
5.56009
5.52321
5.49531
5.47508
5.4618
5.44233
5.41861
5.3862
5.35856
5.34198
5.32678
5.31183
5.28881
5.25717
5.21594
5.1783
5.14825
5.12291
5.09676
5.06503
5.03287
5.00022
4.96753
4.93582
4.90298
4.86674
4.82891
4.79456
4.76691
4.74323
4.71868
4.69131
4.66136
4.62888
4.59863
4.57392
4.55511
4.54061
4.52033
4.49214
4.45726
4.41442
4.36461
4.31779
4.2802
4.25309
4.2349
4.22536
4.20676
4.17945
4.14177
4.0919
4.04274
4.0046
3.97803
3.95696
3.94174
3.93078
3.91459
3.89173
3.85992
3.81769
3.76893
3.72378
3.68754
3.65781
3.63094
3.60813
3.58751
3.5671
3.54428
3.5152
3.47524
3.43656
3.40631
3.38143
3.35871
3.33621
3.31319
3.28851
3.26248
3.2353
3.20574
3.17615
3.14762
3.1146
3.07776
3.05037
3.03279
3.01977
3.01351
3.00524
2.98892
2.96709
2.93256
2.88397
2.83907
2.81011
2.79205
2.77862
2.76879
2.76031
2.74608
2.72069
2.68273
2.64285
2.60697
2.5836
2.56969
2.5564
2.54555
2.53816
2.53056
2.51691
2.49437
2.46205
2.41947
2.37818
2.36192
2.35399
2.34788
2.34029
2.32942
2.31608
2.27617
5.1607
4.64398
4.1331
3.72743
3.35858
2.9546
2.65804
2.43162
2.21335
1.9936
1.85733
1.71987
1.54597
1.4111
1.34901
1.27141
1.17258
1.07516
1.03912
1.03771
1.02259
0.983276
0.927723
0.865324
0.837171
0.812315
0.78611
0.770183
0.757449
0.750398
0.738844
0.715401
0.687507
0.674904
0.663563
0.654286
0.668137
0.735953
0.954635
1.21256
1.43932
1.57069
1.6227
1.73126
1.89644
2.03194
2.20182
3.2044
5.44132
6.65497
6.55108
6.17116
5.99361
5.87604
5.80296
5.77967
5.78376
5.7734
5.74767
5.70701
5.66155
5.63821
5.63112
5.64673
5.66819
5.649
5.6101
5.55553
5.51769
5.49351
5.48205
5.4731
5.45026
5.42102
5.38306
5.35074
5.32902
5.31322
5.30043
5.27725
5.2456
5.20447
5.16894
5.13932
5.11487
5.088
5.05505
5.02134
4.98583
4.9501
4.91735
4.88683
4.85783
4.83082
4.80717
4.78422
4.75648
4.72541
4.69331
4.66093
4.6307
4.60566
4.58537
4.56337
4.5368
4.50733
4.47546
4.43653
4.38844
4.3415
4.3019
4.27479
4.26026
4.25791
4.23997
4.21127
4.17357
4.12257
4.06582