/*--------------------------------*- C++ -*----------------------------------*\
  =========                 |
  \\      /  F ield         | OpenFOAM: The Open Source CFD Toolbox
   \\    /   O peration     | Website:  https://openfoam.org
    \\  /    A nd           | Version:  10
     \\/     M anipulation  |
\*---------------------------------------------------------------------------*/
FoamFile
{
    format      ascii;
    class       volScalarField;
    location    "5.5";
    object      T;
}
// * * * * * * * * * * * * * * * * * * * * * * * * * * * * * * * * * * * * * //

dimensions      [0 0 0 1 0 0 0];

internalField   nonuniform List<scalar> 
16128
(
1
1
1
1
1
1
1
1
1
1
1
1
1
1
1
1
1
1
1
1
1
1
1
1
2.06852
2.6868
2.70336
2.71018
2.7186
2.72659
2.73439
2.74178
2.7487
2.75514
2.76109
2.76662
2.77186
2.77703
2.78221
2.7871
2.79131
2.79485
2.79816
2.8014
2.8045
2.80679
2.80809
2.80925
1
1
1
1
1
1
1
1
1
1
1
1
1
1
1
1
1
1
1
1
1
1
1
1
2.05707
2.68395
2.70315
2.71004
2.71844
2.72638
2.73412
2.74147
2.74835
2.75473
2.76061
2.7661
2.77135
2.77652
2.78162
2.78637
2.79049
2.79409
2.7975
2.80069
2.80355
2.80557
2.8067
2.80836
1
1
1
1
1
1
1
1
1
1
1
1
1
1
1
1
1
1
1
1
1
1
1
1
2.02955
2.67947
2.70232
2.70929
2.71773
2.72565
2.73337
2.7407
2.74755
2.75387
2.75971
2.76522
2.77053
2.7757
2.78068
2.78528
2.7894
2.7931
2.79652
2.79946
2.8019
2.80367
2.8047
2.80717
1
1
1
1
1
1
1
1
1
1
1
1
1
1
1
1
1
1
1
1
1
1
1
1
1.98755
2.67152
2.70071
2.70793
2.71651
2.72443
2.73209
2.73935
2.74613
2.75238
2.75816
2.76368
2.76905
2.77422
2.77911
2.78362
2.7878
2.79161
2.79499
2.79766
2.79972
2.80126
2.80197
2.80518
1
1
1
1
1
1
1
1
1
1
1
1
1
1
1
1
1
1
1
1
1
1
1
1
1.9306
2.65946
2.69776
2.70552
2.71445
2.72248
2.73011
2.73728
2.74398
2.75016
2.75591
2.76144
2.76684
2.772
2.77682
2.78126
2.78541
2.78919
2.79251
2.79521
2.79751
2.79943
2.79837
2.8024
1
1
1
1
1
1
1
1
1
1
1
1
1
1
1
1
1
1
1
1
1
1
1
1
1.85545
2.64141
2.69325
2.70206
2.71161
2.71988
2.72756
2.7347
2.74136
2.74755
2.75333
2.75888
2.7643
2.76944
2.7742
2.77854
2.78256
2.78614
2.78918
2.79169
2.79394
2.79634
2.79572
2.79702
1
1
1
1
1
1
1
1
1
1
1
1
1
1
1
1
1
1
1
1
1
1
1
1
1.76206
2.61565
2.6876
2.69746
2.70767
2.71618
2.72394
2.73105
2.73767
2.74386
2.74969
2.75529
2.76075
2.76591
2.77067
2.77497
2.77885
2.78221
2.78508
2.78756
2.78956
2.79165
2.79178
2.79299
1
1
1
1
1
1
1
1
1
1
1
1
1
1
1
1
1
1
1
1
1
1
1
1
1.65095
2.58323
2.68234
2.69232
2.70289
2.7114
2.71907
2.72603
2.73253
2.73869
2.74463
2.75037
2.75597
2.76124
2.76609
2.77041
2.77424
2.77749
2.78028
2.7827
2.78446
2.78609
2.78625
2.78778
1
1
1
1
1
1
1
1
1
1
1
1
1
1
1
1
1
1
1
1
1
1
1
1
1.51727
2.53841
2.67793
2.68642
2.69727
2.70558
2.71329
2.72029
2.72681
2.73303
2.73907
2.74489
2.75055
2.75584
2.76068
2.76495
2.76863
2.77169
2.77439
2.77688
2.77883
2.78034
2.77833
2.78156
1
1
1
1
1
1
1
1
1
1
1
1
1
1
1
1
1
1
1
1
1
1
1
1
1.35173
2.46995
2.67361
2.67912
2.68981
2.69766
2.70553
2.71288
2.71974
2.72622
2.73247
2.73844
2.74417
2.74947
2.75425
2.75842
2.76197
2.7649
2.76748
2.76985
2.77158
2.7726
2.76973
2.77326
1
1
1
1
1
1
1
1
1
1
1
1
1
1
1
1
1
1
1
1
1
1
1
1
1.15956
2.38881
2.67517
2.67212
2.68008
2.68767
2.69614
2.7041
2.71139
2.71817
2.72467
2.73081
2.73665
2.74198
2.74673
2.75078
2.75413
2.75679
2.75896
2.76087
2.76216
2.76279
2.75936
2.7638
1
1
1
1
1
1
1
1
1
1
1
1
1
1
1
1
1
1
1
1
1
1
1
1
1.00851
2.30958
2.6707
2.66972
2.67511
2.68116
2.68824
2.69566
2.70291
2.70962
2.71601
2.72211
2.72791
2.73322
2.73788
2.7418
2.74489
2.74729
2.74911
2.75062
2.75117
2.75091
2.74659
2.75006
1
1
1
1
1
1
1
1
1
1
1
1
1
1
1
1
1
1
1
1
1
1
1
1
1.00004
2.19613
2.67017
2.6709
2.6752
2.68046
2.68577
2.69092
2.69593
2.70136
2.70699
2.71258
2.718
2.72307
2.72759
2.73139
2.73427
2.73626
2.73709
2.73732
2.7362
2.73463
2.72907
2.73332
1
1
1
1
1
1
1
1
1
1
1
1
1
1
1
1
1
1
1
1
1
1
1
1
1
2.04408
2.65331
2.66947
2.67419
2.67907
2.6829
2.68659
2.69046
2.69434
2.69828
2.70262
2.70712
2.71158
2.71582
2.71934
2.72162
2.72288
2.72255
2.72172
2.71955
2.7166
2.70745
2.70439
1
1
1
1
1
1
1
1
1
1
1
1
1
1
1
1
1
1
1
1
1
1
1
1
1
1.84602
2.6021
2.66112
2.67082
2.67735
2.68161
2.68444
2.68662
2.68861
2.69082
2.69342
2.69626
2.69954
2.70297
2.70557
2.70694
2.7073
2.70581
2.70295
2.69688
2.68719
2.67109
2.66433
1
1
1
1
1
1
1
1
1
1
1
1
1
1
1
1
1
1
1
1
1
1
1
1
1
1.58619
2.50093
2.63906
2.65655
2.6677
2.67515
2.67971
2.68248
2.68402
2.68476
2.68538
2.68633
2.68781
2.68929
2.69042
2.69036
2.68936
2.68576
2.67973
2.66907
2.65613
2.63673
2.64121
1
1
1
1
1
1
1
1
1
1
1
1
1
1
1
1
1
1
1
1
1
1
1
1
1
1.24323
2.37456
2.62218
2.63395
2.64895
2.6608
2.66894
2.67435
2.67745
2.67842
2.67811
2.67754
2.67717
2.67593
2.6749
2.6728
2.66958
2.6633
2.65419
2.63698
2.61076
2.54509
2.40001
1
1
1
1
1
1
1
1
1
1
1
1
1
1
1
1
1
1
1
1
1
1
1
1
1
1.01723
2.2704
2.62339
2.61985
2.62783
2.63971
2.65112
2.66023
2.66649
2.6695
2.66957
2.66852
2.6666
2.66321
2.65962
2.65472
2.64861
2.63882
2.62461
2.59949
2.5522
2.47676
2.26913
1
1
1
1
1
1
1
1
1
1
1
1
1
1
1
1
1
1
1
1
1
1
1
1
1
1.00004
2.09388
2.60577
2.60889
2.61455
2.62225
2.63206
2.64222
2.6506
2.65644
2.65863
2.65789
2.65557
2.65103
2.64519
2.63718
2.6276
2.61372
2.59372
2.56229
2.50903
2.41418
2.21121
1
1
1
1
1
1
1
1
1
1
1
1
1
1
1
1
1
1
1
1
1
1
1
1
1
1
1.82698
2.56001
2.61007
2.61233
2.61534
2.61943
2.62587
2.63281
2.6397
2.6441
2.64448
2.64278
2.63805
2.63082
2.62033
2.60732
2.58939
2.56453
2.52726
2.471
2.36784
2.19973
1
1
1
1
1
1
1
1
1
1
1
1
1
1
1
1
1
1
1
1
1
1
1
1
1
1
1.4474
2.43784
2.60323
2.60559
2.60879
2.61099
2.61428
2.61769
2.62249
2.62692
2.62848
2.62752
2.62341
2.61588
2.60416
2.5884
2.56707
2.53841
2.49792
2.43899
2.33982
2.20971
1
1
1
1
1
1
1
1
1
1
1
1
1
1
1
1
1
1
1
1
1
1
1
1
1
1
1.05739
2.28979
2.60087
2.59825
2.60007
2.60258
2.60422
2.60475
2.60644
2.60891
2.61046
2.60996
2.6066
2.59955
2.58774
2.57049
2.54711
2.51583
2.47404
2.41418
2.32594
2.22063
1
1
1
1
1
1
1
1
1
1
1
1
1
1
1
1
1
1
1
1
1
1
1
1
1
1
1.0007
2.10628
2.56319
2.57878
2.58727
2.592
2.59376
2.59331
2.59271
2.59251
2.59225
2.59116
2.58783
2.58131
2.57015
2.55303
2.52915
2.49676
2.45439
2.39673
2.31926
2.23131
1
1
1
1
1
1
1
1
1
1
1
1
1
1
1
1
1
1
1
1
1
1
1
1
1
1
0.999994
1.76317
2.49346
2.561
2.5751
2.58142
2.58355
2.58321
2.58167
2.57942
2.57667
2.57353
2.569
2.56214
2.55138
2.53516
2.51216
2.48044
2.43882
2.38457
2.31758
2.24025
1
1
1
1
1
1
1
1
1
1
1
1
1
1
1
1
1
1
1
1
1
1
1
1
1
1
0.999998
1.28139
2.3584
2.55299
2.55737
2.56471
2.5691
2.57047
2.5694
2.56676
2.56257
2.5574
2.55097
2.54286
2.53182
2.51639
2.49497
2.46534
2.42587
2.37588
2.31787
2.24926
1
1
1
1
1
1
1
1
1
1
1
1
1
1
1
1
1
1
1
1
1
1
1
1
1
1
1
1.02021
2.20948
2.53224
2.5361
2.54416
2.54989
2.55429
2.55488
2.55331
2.54927
2.54316
2.53515
2.52538
2.51322
2.49773
2.47747
2.45012
2.41385
2.3692
2.31807
2.257
1
1
1
1
1
1
1
1
1
1
1
1
1
1
1
1
1
1
1
1
1
1
1
1
1
1
1
1.00004
1.88708
2.48456
2.52277
2.53203
2.535
2.53846
2.53985
2.5389
2.53553
2.52948
2.52085
2.50991
2.49645
2.48041
2.46022
2.43444
2.40188
2.36268
2.31751
2.26416
1
1
1
1
1
1
1
1
1
1
1
1
1
1
1
1
1
1
1
1
1
1
1
1
1
1
1
1
1.37295
2.36591
2.51687
2.51628
2.51817
2.52094
2.52287
2.52241
2.51994
2.5148
2.50657
2.49565
2.48151
2.46511
2.44409
2.41931
2.38966
2.35546
2.31514
2.26811
1
1
1
1
1
1
1
1
1
1
1
1
1
1
1
1
1
1
1
1
1
1
1
1
1
1
1
1
1.0348
2.19779
2.49867
2.5003
2.50137
2.50386
2.50572
2.50534
2.50327
2.49898
2.49177
2.48153
2.46816
2.45125
2.43032
2.40629
2.37839
2.3476
2.31112
2.27027
1
1
1
1
1
1
1
1
1
1
1
1
1
1
1
1
1
1
1
1
1
1
1
1
1
1
1
1
1.00018
1.81865
2.43861
2.48494
2.48752
2.4906
2.49142
2.49009
2.4872
2.48275
2.47615
2.46659
2.45464
2.438
2.41817
2.39504
2.36853
2.33959
2.30601
2.26958
1
1
1
1
1
1
1
1
1
1
1
1
1
1
1
1
1
1
1
1
1
1
1
1
1
1
1
1
0.999999
1.22304
2.29801
2.48592
2.47642
2.47681
2.47614
2.47365
2.47021
2.46588
2.45978
2.45113
2.44016
2.4251
2.40699
2.3852
2.36029
2.33274
2.30169
2.26812
1
1
1
1
1
1
1
1
1
1
1
1
1
1
1
1
1
1
1
1
1
1
1
1
1
1
1
1
1
1.01147
2.10988
2.45264
2.45506
2.46174
2.45973
2.45688
2.45368
2.44957
2.44364
2.43566
2.4251
2.41172
2.39535
2.37533
2.35231
2.32623
2.29742
2.26591
1
1
1
1
1
1
1
1
1
1
1
1
1
1
1
1
1
1
1
1
1
1
1
1
1
1
1
1
1
1
1.62126
2.36157
2.44604
2.44953
2.44683
2.44384
2.44035
2.43569
2.42921
2.42093
2.41052
2.39794
2.38292
2.36488
2.3439
2.31977
2.29327
2.26369
1
1
1
1
1
1
1
1
1
1
1
1
1
1
1
1
1
1
1
1
1
1
1
1
1
1
1
1
1
0.999997
1.1027
2.19663
2.44239
2.43349
2.43171
2.42975
2.42659
2.42169
2.41484
2.40639
2.39622
2.38421
2.37012
2.35362
2.33426
2.31221
2.28803
2.26074
1
1
1
1
1
1
1
1
1
1
1
1
1
1
1
1
1
1
1
1
1
1
1
1
1
1
1
1
1
0.999999
1.00215
1.84366
2.3807
2.40962
2.41356
2.41522
2.41355
2.40911
2.40222
2.39359
2.3833
2.3713
2.35754
2.34177
2.32374
2.30379
2.28177
2.25708
1
1
1
1
1
1
1
1
1
1
1
1
1
1
1
1
1
1
1
1
1
1
1
1
1
1
1
1
1
1
0.999997
1.21762
2.22257
2.41047
2.40234
2.40229
2.40033
2.3958
2.3892
2.3809
2.37081
2.35892
2.34541
2.33024
2.31325
2.29479
2.27451
2.25216
1
1
1
1
1
1
1
1
1
1
1
1
1
1
1
1
1
1
1
1
1
1
1
1
1
1
1
1
1
1
0.999999
1.01051
1.95913
2.37158
2.38225
2.38384
2.38282
2.37995
2.37495
2.36788
2.35858
2.34715
2.33401
2.31925
2.30294
2.28537
2.26645
2.24594
1
1
1
1
1
1
1
1
1
1
1
1
1
1
1
1
1
1
1
1
1
1
1
1
1
1
1
1
1
1
1
1.00001
1.31937
2.22924
2.37969
2.37295
2.37001
2.36623
2.3611
2.35436
2.34567
2.33501
2.32255
2.30846
2.29299
2.2763
2.25852
2.23938
1
1
1
1
1
1
1
1
1
1
1
1
1
1
1
1
1
1
1
1
1
1
1
1
1
1
1
1
1
1
1
1
1.02342
2.01048
2.34829
2.3589
2.35546
2.35112
2.34592
2.33944
2.33142
2.32177
2.31042
2.29749
2.2832
2.26757
2.2507
2.23262
1
1
1
1
1
1
1
1
1
1
1
1
1
1
1
1
1
1
1
1
1
1
1
1
1
1
1
1
1
1
1
1
1.0001
1.38708
2.21558
2.35016
2.34288
2.33827
2.33264
2.32587
2.31792
2.30894
2.29868
2.28689
2.27367
2.2591
2.24315
2.22606
1
1
1
1
1
1
1
1
1
1
1
1
1
1
1
1
1
1
1
1
1
1
1
1
1
1
1
1
1
1
1
1
1
1.0354
2.01153
2.32781
2.32818
2.3236
2.31819
2.31161
2.30399
2.29547
2.28594
2.27519
2.26314
2.24982
2.23519
2.21932
1
1
1
1
1
1
1
1
1
1
1
1
1
1
1
1
1
1
1
1
1
1
1
1
1
1
1
1
1
1
1
1
1
1.00024
1.40759
2.19608
2.3185
2.30959
2.30473
2.29853
2.2913
2.28309
2.27403
2.26403
2.25297
2.24074
2.22726
2.21253
1
1
1
1
1
1
1
1
1
1
1
1
1
1
1
1
1
1
1
1
1
1
1
1
1
1
1
1
1
1
1
1
1
1
1.03977
1.97887
2.2982
2.29726
2.29114
2.28482
2.27784
2.27024
2.26189
2.25258
2.24226
2.23096
2.21847
2.2047
1
1
1
1
1
1
1
1
1
1
1
1
1
1
1
1
1
1
1
1
1
1
1
1
1
1
1
1
1
1
1
1
1
1
1.00034
1.38066
2.15793
2.28729
2.27783
2.27222
2.26557
2.25854
2.25073
2.24192
2.23205
2.22133
2.20971
2.19681
1
1
1
1
1
1
1
1
1
1
1
1
1
1
1
1
1
1
1
1
1
1
1
1
1
1
1
1
1
1
1
1
1
1
1
1.03391
1.89293
2.25702
2.26824
2.26084
2.2539
2.24705
2.23951
2.23113
2.22171
2.21139
2.20054
2.18871
1
1
1
1
1
1
1
1
1
1
1
1
1
1
1
1
1
1
1
1
1
1
1
1
1
1
1
1
1
1
1
1
1
1
1
1.00029
1.30113
2.09359
2.25632
2.24861
2.24407
2.23734
2.22942
2.22095
2.21186
2.20201
2.1917
2.18077
1
1
1
1
1
1
1
1
1
1
1
1
1
1
1
1
1
1
1
1
1
1
1
1
1
1
1
1
1
1
1
1
1
1
1
1
1.02029
1.72726
2.19196
2.24089
2.23299
2.22601
2.21862
2.21071
2.20234
2.19333
2.18327
2.1728
1
1
1
1
1
1
1
1
1
1
1
1
1
1
1
1
1
1
1
1
1
1
1
1
1
1
1
1
1
1
1
1
1
1
1
1
1.00016
1.18085
2.00088
2.22891
2.21874
2.21371
2.20815
2.20163
2.194
2.18554
2.17556
2.16526
1
1
1
1
1
1
1
1
1
1
1
1
1
1
1
1
1
1
1
1
1
1
1
1
1
1
1
1
1
1
1
1
1
1
1
1
1
1.00714
1.52356
2.10978
2.20438
2.19897
2.19564
2.1906
2.1841
2.17599
2.16714
2.15698
1
1
1
1
1
1
1
1
1
1
1
1
1
1
1
1
1
1
1
1
1
1
1
1
1
1
1
1
1
1
1
1
1
1
1
1
1
1.00004
1.07959
1.85667
2.18449
2.18911
2.1852
2.17964
2.17344
2.16626
2.15806
2.14904
1
1
1
1
1
1
1
1
1
1
1
1
1
1
1
1
1
1
1
1
1
1
1
1
1
1
1
1
1
1
1
1
1
1
1
1
1
1
1.00155
1.31663
2.02199
2.1753
2.16788
2.16359
2.15894
2.15305
2.14636
2.13736
1
1
1
1
1
1
1
1
1
1
1
1
1
1
1
1
1
1
1
1
1
1
1
1
1
1
1
1
1
1
1
1
1
1
1
1
1
1
1.00001
1.02419
1.6325
2.09821
2.15971
2.15284
2.14802
2.1421
2.1362
2.13408
1
1
1
1
1
1
1
1
1
1
1
1
1
1
1
1
1
1
1
1
1
1
1
1
1
1
1
1
1
1
1
1
1
1
1
1
1
1
1
1.00026
1.13434
1.87562
2.14115
2.1438
2.13764
2.13155
2.13405
2.1663
1
1
1
1
1
1
1
1
1
1
1
1
1
1
1
1
1
1
1
1
1
1
1
1
1
1
1
1
1
1
1
1
1
1
1
1
1
1
1
1
1.00421
1.3673
1.99652
2.12978
2.12245
2.12751
2.17932
2.28662
1
1
1
1
1
1
1
1
1
1
1
1
1
1
1
1
1
1
1
1
1
1
1
1
1
1
1
1
1
1
1
1
1
1
1
1
1
1
1
1
1.00003
1.03493
1.63505
2.05707
2.11026
2.19803
2.31835
2.3746
1
1
1
1
1
1
1
1
1
1
1
1
1
1
1
1
1
1
1
1
1
1
1
1
1
1
1
1
1
1
1
1
1
1
1
1
1
1
1
1
1
1.00048
1.1436
1.7891
2.16972
2.34881
2.39981
2.38862
1
1
1
1
1
1
1
1
1
1
1
1
1
1
1
1
1
1
1
1
1
1
1
1
1
1
1
1
1
1
1
1
1
1
1
1
1
1
1
1
1
1
1.00491
1.35995
2.35036
2.46751
2.43725
2.40237
1
1
1
1
1
1
1
1
1
1
1
1
1
1
1
1
1
1
1
1
1
1
1
1
1
1
1
1
1
1
1
1
1
1
1
1
1
1
1
1
1
1
1.00005
1.46321
2.6019
2.56642
2.48716
2.43344
1
1
1
1
1
1
1
1
1
1
1
1
1
1
1
1
1
1
1
1
1
1
1
1
1
1
1
1
1
1
1
1
1
1
1
1
1
1
1
1
1
1
1
1.50128
2.63974
2.64297
2.59075
2.53857
1
1
1
1
1
1
1
1
1
1
1
1
1
1
1
1
1
1
1
1
1
1
1
1
1
1
1
1
1
1
1
1
1
1
1
1
1
1
1
1
1
1
1
1.4074
2.5775
2.6996
2.67043
2.63444
1
1
1
1
1
1
1
1
1
1
1
1
1
1
1
1
1
1
1
1
1
1
1
1
1
1
1
1
1
1
1
1
1
1
1
1
1
1
1
1
1
1
1
1.25997
2.46917
2.70173
2.6884
2.67788
1
1
1
1
1
1
1
1
1
1
1
1
1
1
1
1
1
1
1
1
1
1
1
1
1
1
1
1
1
1
1
1
1
1
1
1
1
1
1
1
1
1
1
1.10395
2.36801
2.69686
2.69256
2.687
1
1
1
1
1
1
1
1
1
1
1
1
1
1
1
1
1
1
1
1
1
1
1
1
1
1
1
1
1
1
1
1
1
1
1
1
1
1
1
1
1
1
1
1.0041
2.27855
2.68051
2.68954
2.68615
1
1
1
1
1
1
1
1
1
1
1
1
1
1
1
1
1
1
1
1
1
1
1
1
1
1
1
1
1
1
1
1
1
1
1
1
1
1
1
1
1
1
1
1.00002
2.18295
2.66461
2.68969
2.6834
1
1
1
1
1
1
1
1
1
1
1
1
1
1
1
1
1
1
1
1
1
1
1
1
1
1
1
1
1
1
1
1
1
1
1
1
1
1
1
1
1
1
1
1
2.07968
2.65219
2.68731
2.68017
1
1
1
1
1
1
1
1
1
1
1
1
1
1
1
1
1
1
1
1
1
1
1
1
1
1
1
1
1
1
1
1
1
1
1
1
1
1
1
1
1
1
1
1
1.97331
2.64083
2.6852
2.67688
1
1
1
1
1
1
1
1
1
1
1
1
1
1
1
1
1
1
1
1
1
1
1
1
1
1
1
1
1
1
1
1
1
1
1
1
1
1
1
1
1
1
1
1
1.87028
2.62888
2.68538
2.67543
1
1
1
1
1
1
1
1
1
1
1
1
1
1
1
1
1
1
1
1
1
1
1
1
1
1
1
1
1
1
1
1
1
1
1
1
1
1
1
1
1
1
1
1
1.76955
2.61318
2.68654
2.67499
1
1
1
1
1
1
1
1
1
1
1
1
1
1
1
1
1
1
1
1
1
1
1
1
1
1
1
1
1
1
1
1
1
1
1
1
1
1
1
1
1
1
1
1
1.66852
2.59172
2.68848
2.67572
1
1
1
1
1
1
1
1
1
1
1
1
1
1
1
1
1
1
1
1
1
1
1
1
1
1
1
1
1
1
1
1
1
1
1
1
1
1
1
1
1
1
1
1
1.56455
2.56779
2.69094
2.67766
1
1
1
1
1
1
1
1
1
1
1
1
1
1
1
1
1
1
1
1
1
1
1
1
1
1
1
1
1
1
1
1
1
1
1
1
1
1
1
1
1
1
1
1
1.48058
2.54482
2.69358
2.68063
1
1
1
1
1
1
1
1
1
1
1
1
1
1
1
1
1
1
1
1
1
1
1
1
1
1
1
1
1
1
1
1
1
1
1
1
1
1
1
1
1
1
1
1
1.41218
2.5224
2.695
2.68311
1
1
1
1
1
1
1
1
1
1
1
1
1
1
1
1
1
1
1
1
1
1
1
1
1
1
1
1
1
1
1
1
1
1
1
1
1
1
1
1
1
1
1
1
1.35267
2.49909
2.69534
2.68455
1
1
1
1
1
1
1
1
1
1
1
1
1
1
1
1
1
1
1
1
1
1
1
1
1
1
1
1
1
1
1
1
1
1
1
1
1
1
1
1
1
1
1
1
1.30379
2.47696
2.69434
2.68441
1
1
1
1
1
1
1
1
1
1
1
1
1
1
1
1
1
1
1
1
1
1
1
1
1
1
1
1
1
1
1
1
1
1
1
1
1
1
1
1
1
1
1
1
1.26506
2.45784
2.69272
2.68349
1
1
1
1
1
1
1
1
1
1
1
1
1
1
1
1
1
1
1
1
1
1
1
1
1
1
1
1
1
1
1
1
1
1
1
1
1
1
1
1
1
1
1
1
1.23566
2.44235
2.69133
2.68221
1
1
1
1
1
1
1
1
1
1
1
1
1
1
1
1
1
1
1
1
1
1
1
1
1
1
1
1
1
1
1
1
1
1
1
1
1
1
1
1
1
1
1
1
1.215
2.43044
2.69052
2.68099
1
1
1
1
1
1
1
1
1
1
1
1
1
1
1
1
1
1
1
1
1
1
1
1
1
1
1
1
1
1
1
1
1
1
1
1
1
1
1
1
1
1
1
1
1.20091
2.42169
2.69042
2.6804
1
1
1
1
1
1
1
1
1
1
1
1
1
1
1
1
1
1
1
1
1
1
1
1
1
1
1
1
1
1
1
1
1
1
1
1
1
1
1
1
1
1
1
1
1.19275
2.41736
2.69139
2.68086
1
1
1
1
1
1
1
1
1
1
1
1
1
1
1
1
1
1
1
1
1
1
1
1
1
1
1
1
1
1
1
1
1
1
1
1
1
1
1
1
1
1
1
1
1.1915
2.41762
2.69307
2.68219
1.47839
0.737597
0.284324
0.329774
0.747947
0.925642
1.00879
1.13545
1.11919
1.10234
1.12018
1.17167
1.27052
1.35975
1.4157
1.45146
1.47611
1.49338
1.50556
1.52653
1.55741
1.55164
1.54124
1.54176
1.54285
1.54677
1.56029
1.57787
1.58091
1.58519
1.59201
1.59548
1.59804
1.59236
1.58451
1.58512
1.59586
1.61641
1.62628
1.62697
1.6205
1.5957
1.78535
2.44101
2.63912
2.66982
2.6745
2.69836
2.71082
2.70972
2.70938
2.70911
2.70755
2.70026
2.69031
2.68185
2.67745
2.67753
2.68113
2.68352
2.68027
2.67216
2.66505
2.66208
2.66216
2.66034
2.65123
2.63941
2.62735
2.61694
2.60847
2.60251
2.598
2.59412
2.59082
2.58831
2.58654
2.58538
2.58361
2.57799
2.56955
2.5606
2.55251
2.54535
2.5385
2.53114
2.52325
2.51545
2.50839
2.50225
2.4968
2.49159
2.48603
2.47982
2.47321
2.46684
2.46132
2.45681
2.45291
2.44856
2.44259
2.43469
2.42578
2.41708
2.4095
2.40335
2.39779
2.39156
2.38414
2.37591
2.36736
2.359
2.35122
2.34418
2.33794
2.33221
2.32645
2.32017
2.31308
2.30535
2.29755
2.2902
2.28361
2.27796
2.27302
2.26821
2.2631
2.25751
2.25131
2.24462
2.23776
2.23109
2.22462
2.21817
2.21153
2.20483
2.19832
2.1923
2.18713
2.18301
2.17972
2.17632
2.17202
2.16689
2.16126
2.15543
2.14981
2.14484
2.14103
2.13825
2.13519
2.13061
2.12471
2.11835
2.11209
2.10656
2.10283
2.10131
2.10006
2.0972
2.0923
2.0861
2.0787
2.07087
2.06408
2.05877
2.05603
2.05398
2.05012
2.04492
2.03944
2.03407
2.02942
2.02578
2.02222
2.01789
2.01335
2.00895
2.00529
2.00272
2.00036
1.99697
1.99135
1.98279
1.97418
1.96718
1.96232
1.95922
1.95888
1.95802
1.95519
1.94581
1.74665
1.40699
1.18242
0.829105
0.836106
0.896932
0.898348
0.919377
0.914143
0.920744
0.947702
1.01227
1.09134
1.14925
1.20133
1.24715
1.27332
1.31118
1.34989
1.38079
1.41977
1.46678
1.48894
1.49578
1.50515
1.51882
1.53938
1.55774
1.55778
1.5526
1.54451
1.54266
1.54702
1.56496
1.58689
1.59894
1.60434
1.605
1.59262
1.58059
1.57544
1.57841
1.64337
2.33507
2.65587
2.67822
2.67517
2.69096
2.7039
2.70487
2.70129
2.70135
2.70019
2.69637
2.68898
2.68045
2.67346
2.66935
2.66859
2.66926
2.66933
2.66582
2.65986
2.65525
2.65247
2.65039
2.64463
2.63528
2.62537
2.61558
2.60686
2.60011
2.59501
2.59069
2.58655
2.58258
2.57882
2.57516
2.57101
2.56585
2.55944
2.55248
2.54589
2.54014
2.53484
2.52895
2.52216
2.51485
2.50735
2.50012
2.49352
2.48746
2.48181
2.47642
2.47103
2.46554
2.46002
2.45435
2.44827
2.44175
2.43501
2.4283
2.4216
2.41508
2.40896
2.40282
2.39584
2.38806
2.37997
2.372
2.36428
2.3569
2.35007
2.34373
2.33737
2.33067
2.32374
2.31683
2.31017
2.30368
2.29712
2.29054
2.28414
2.27787
2.27161
2.26531
2.25902
2.25287
2.24706
2.24171
2.23658
2.23116
2.22508
2.21879
2.2123
2.20541
2.19859
2.19238
2.18681
2.18173
2.17692
2.17242
2.16777
2.16285
2.15796
2.1533
2.1489
2.14479
2.1406
2.13621
2.13148
2.12624
2.12089
2.11576
2.1113
2.10731
2.10331
2.09916
2.09496
2.09002
2.08437
2.07879
2.07359
2.06903
2.06477
2.06006
2.05511
2.05045
2.04587
2.04128
2.03676
2.03212
2.02698
2.0218
2.01755
2.01409
2.01119
2.0088
2.00632
2.00262
1.99646
1.98897
1.98196
1.97606
1.97181
1.96912
1.9671
1.96501
1.96202
1.95601
1.94793
1.93722
1.86015
1.6643
1.50193
1.28887
1.13797
1.1204
1.08248
1.02669
1.02499
1.03877
1.03262
1.02363
1.02494
1.03589
1.05492
1.07594
1.09408
1.12088
1.17799
1.23825
1.27845
1.32885
1.37496
1.40669
1.43727
1.4602
1.48492
1.50473
1.50983
1.5077
1.50344
1.50697
1.52181
1.54606
1.56007
1.56268
1.56167
1.54923
1.53831
1.5387
1.55255
1.57887
1.5917
2.05522
2.62494
2.69564
2.67326
2.67539
2.67999
2.68052
2.67594
2.67449
2.6735
2.67147
2.66678
2.6603
2.65295
2.64505
2.63768
2.63261
2.63113
2.63127
2.62959
2.62544
2.62201
2.61968
2.61688
2.6127
2.60709
2.6003
2.59308
2.58583
2.57904
2.57217
2.56509
2.55784
2.55024
2.54268
2.53577
2.5301
2.52561
2.52216
2.5195
2.5172
2.51456
2.51086
2.5059
2.50003
2.493
2.48545
2.47843
2.47181
2.46614
2.46154
2.45738
2.45256
2.44668
2.4398
2.43213
2.42417
2.41682
2.41083
2.40628
2.4022
2.3973
2.39074
2.38281
2.37469
2.36689
2.35969
2.35331
2.34772
2.34237
2.33657
2.32983
2.3223
2.31475
2.30772
2.30154
2.29624
2.2911
2.28542
2.27924
2.27263
2.26544
2.258
2.25111
2.24485
2.23934
2.23497
2.2312
2.22631
2.22063
2.21493
2.20869
2.20171
2.19483
2.18851
2.18237
2.17606
2.16973
2.16388
2.15876
2.15428
2.15045
2.14708
2.14394
2.14046
2.13606
2.13021
2.1235
2.11793
2.11382
2.11046
2.10731
2.10344
2.09828
2.0912
2.08331
2.07663
2.07161
2.06812
2.06574
2.06349
2.06029
2.05546
2.04878
2.04229
2.03728
2.03306
2.02886
2.02413
2.01878
2.0135
2.00971
2.00742
2.00542
2.00285
1.99906
1.99287
1.98446
1.9768
1.97209
1.97011
1.96895
1.96735
1.96502
1.9612
1.95424
1.94414
1.93609
1.92974
1.96354
1.81131
1.67836
1.51669
1.39283
1.33855
1.27942
1.1998
1.17195
1.15859
1.12557
1.08187
1.07955
1.08677
1.08502
1.08092
1.08357
1.10122
1.11344
1.1239
1.14274
1.17856
1.23075
1.27969
1.33856
1.38573
1.40922
1.42498
1.43657
1.44596
1.452
1.46774
1.48899
1.50361
1.50891
1.5111
1.51054
1.50452
1.50501
1.51301
1.53182
1.54724
1.54762
1.72667
2.50235
2.66985
2.63189
2.6325
2.63122
2.62707
2.62085
2.6194
2.61866
2.61673
2.61196
2.60638
2.59919
2.58975
2.5798
2.57098
2.56522
2.56437
2.56455
2.56127
2.55922
2.55917
2.56006
2.56017
2.55872
2.55523
2.55039
2.54452
2.53699
2.5283
2.51835
2.50801
2.49739
2.48702
2.47835
2.47248
2.46985
2.46907
2.46862
2.46763
2.46591
2.46415
2.46196
2.45898
2.45502
2.44974
2.44352
2.43822
2.43328
2.42879
2.42446
2.41929
2.41294
2.40567
2.39793
2.39021
2.38309
2.37757
2.37417
2.37069
2.36511
2.35836
2.35138
2.34408
2.33759
2.33168
2.3266
2.32256
2.31772
2.31129
2.30437
2.29711
2.29042
2.28456
2.27948
2.27519
2.27052
2.26516
2.25958
2.25337
2.24624
2.23912
2.233
2.22769
2.22288
2.21871
2.21455
2.20955
2.20438
2.1989
2.19258
2.18582
2.1794
2.1732
2.16686
2.16025
2.15349
2.14703
2.14175
2.13796
2.13488
2.13203
2.12906
2.12564
2.12103
2.11477
2.108
2.10349
2.10041
2.09752
2.0941
2.08973
2.08367
2.07512
2.06574
2.05893
2.05538
2.0532
2.0513
2.04917
2.0464
2.04189
2.03481
2.02731
2.02187
2.0178
2.01407
2.01036
2.00681
2.00363
2.00064
1.99735
1.99314
1.98748
1.98052
1.97338
1.96803
1.96551
1.9645
1.96417
1.9633
1.96122
1.95687
1.94697
1.93508
1.92836
1.92654
1.92416
2.04207
1.90418
1.79258
1.67674
1.57502
1.50056
1.42353
1.33402
1.29641
1.27354
1.24934
1.21527
1.18651
1.17328
1.16699
1.15172
1.13199
1.12903
1.13407
1.13496
1.12972
1.12969
1.13588
1.15071
1.18293
1.23505
1.27609
1.314
1.35086
1.38513
1.4094
1.42757
1.45004
1.46327
1.46643
1.47065
1.47614
1.4765
1.47917
1.48643
1.49767
1.51254
1.5236
1.57958
2.29865
2.61766
2.58534
2.56423
2.55903
2.55506
2.55144
2.54563
2.53909
2.53545
2.53289
2.532
2.52705
2.51699
2.50547
2.49579
2.48753
2.48423
2.48447
2.48262
2.48095
2.48092
2.4813
2.48114
2.48128
2.48147
2.48112
2.47981
2.47572
2.46727
2.45626
2.44566
2.43497
2.42491
2.41698
2.41229
2.41027
2.40768
2.40516
2.40329
2.40215
2.40191
2.4014
2.40024
2.39818
2.39408
2.38827
2.3837
2.38005
2.37635
2.37253
2.36765
2.36172
2.35468
2.34746
2.34081
2.33489
2.3309
2.32891
2.32485
2.31876
2.31229
2.30493
2.29758
2.29206
2.28773
2.28455
2.28199
2.27767
2.27229
2.26581
2.25891
2.25324
2.24843
2.24419
2.24016
2.2358
2.23124
2.22602
2.21984
2.2135
2.20792
2.20319
2.19899
2.19496
2.19055
2.18578
2.18089
2.17559
2.16948
2.16295
2.15681
2.15113
2.14554
2.13983
2.13395
2.12793
2.12193
2.11644
2.11209
2.10874
2.10574
2.10267
2.09915
2.09497
2.09022
2.08518
2.08062
2.0772
2.07388
2.07024
2.06591
2.05992
2.05218
2.04418
2.03718
2.03208
2.02889
2.02643
2.02421
2.02192
2.01856
2.01249
2.00536
2.00001
1.99628
1.99323
1.99041
1.9876
1.9845
1.98085
1.9764
1.9706
1.96372
1.95701
1.95179
1.94913
1.948
1.94766
1.94719
1.9459
1.94388
1.93785
1.92559
1.91529
1.91242
1.91183
1.91018
2.08993
1.97836
1.87654
1.77013
1.68884
1.6165
1.54049
1.45815
1.40604
1.36427
1.33764
1.32317
1.29843
1.25705
1.23671
1.22971
1.21725
1.19378
1.17678
1.17284
1.16793
1.16135
1.15889
1.16143
1.16227
1.1641
1.16974
1.18536
1.21964
1.2694
1.32784
1.37078
1.4063
1.42489
1.43056
1.43661
1.44789
1.45471
1.4611
1.46933
1.47794
1.50147
1.56396
1.64103
2.00898
2.47787
2.54709
2.50393
2.48958
2.49059
2.49139
2.47713
2.45893
2.4505
2.45084
2.45351
2.45105
2.44225
2.42982
2.42328
2.41716
2.41581
2.41786
2.41754
2.41481
2.41061
2.40859
2.40849
2.41002
2.41321
2.4147
2.41362
2.40972
2.40235
2.39429
2.38777
2.38133
2.37505
2.36992
2.36565
2.36005
2.35426
2.3497
2.34698
2.34582
2.34528
2.34399
2.34226
2.33958
2.33566
2.33169
2.32903
2.32674
2.3242
2.32102
2.31642
2.31043
2.30467
2.29999
2.2959
2.29295
2.29091
2.28681
2.28076
2.27357
2.26573
2.25878
2.25385
2.25033
2.24841
2.24695
2.2438
2.23927
2.23286
2.22546
2.21907
2.21418
2.21001
2.20633
2.2025
2.19848
2.19361
2.18741
2.18126
2.17644
2.17275
2.16957
2.16673
2.16327
2.15893
2.15378
2.14751
2.14059
2.13407
2.12837
2.12327
2.11841
2.11363
2.10887
2.10413
2.09935
2.09433
2.08901
2.08359
2.07868
2.0746
2.07111
2.06788
2.06482
2.06191
2.05888
2.05517
2.05059
2.0459
2.04158
2.03663
2.03082
2.02499
2.01963
2.0143
2.00865
2.00337
1.99958
1.99695
1.99428
1.99033
1.98517
1.98039
1.97688
1.97423
1.97193
1.96954
1.96646
1.96194
1.95517
1.94746
1.94124
1.93655
1.93358
1.93186
1.93098
1.93037
1.92895
1.92673
1.92311
1.9163
1.90767
1.90016
1.89693
1.89567
1.89512
1.8927
2.12618
2.03038
1.93995
1.85046
1.77293
1.6993
1.61788
1.55434
1.51251
1.46975
1.41696
1.39732
1.38218
1.35067
1.30533
1.29302
1.2865
1.26905
1.24197
1.22607
1.21977
1.21482
1.21025
1.2013
1.19333
1.18669
1.1736
1.16931
1.17143
1.18144
1.20552
1.24385
1.28066
1.32122
1.35845
1.38186
1.40416
1.4279
1.45059
1.46534
1.48907
1.56257
1.6836
1.74021
1.81643
2.22374
2.44385
2.44927
2.44421
2.44834
2.4476
2.42391
2.40296
2.39564
2.39795
2.40351
2.40275
2.39459
2.38217
2.38034
2.37952
2.38026
2.3804
2.37655
2.37245
2.36852
2.36656
2.36631
2.36647
2.36611
2.36434
2.36103
2.35692
2.35256
2.3498
2.34774
2.34497
2.34165
2.33831
2.33424
2.32847
2.32224
2.31737
2.3142
2.31234
2.31024
2.30759
2.30483
2.30169
2.29867
2.29645
2.29431
2.29164
2.28811
2.28325
2.27735
2.27215
2.26867
2.26598
2.26389
2.26171
2.25771
2.25231
2.24588
2.23922
2.23351
2.22934
2.22666
2.22485
2.22212
2.21799
2.2126
2.20606
2.19907
2.19327
2.18891
2.18509
2.18146
2.17761
2.17346
2.16841
2.16195
2.15534
2.15055
2.14727
2.14471
2.14304
2.1409
2.13742
2.13271
2.1259
2.11724
2.10949
2.10382
2.09906
2.09451
2.09004
2.08574
2.08164
2.07772
2.0739
2.06962
2.06455
2.05875
2.0527
2.04704
2.04244
2.03916
2.03678
2.03475
2.03271
2.03002
2.02559
2.01923
2.01251
2.00703
2.00281
1.99921
1.99578
1.99219
1.98775
1.98187
1.97536
1.96981
1.96504
1.96094
1.95787
1.95562
1.95348
1.95117
1.94873
1.94614
1.94297
1.93764
1.92866
1.91894
1.9131
1.9107
1.90929
1.9092
1.90995
1.9088
1.90687
1.90333
1.89569
1.8851
1.87748
1.87572
1.87503
1.87421
1.87337
1.87096
2.15253
2.0716
1.98792
1.90967
1.83972
1.76932
1.69233
1.6352
1.59177
1.553
1.50962
1.47217
1.4473
1.42119
1.38004
1.34163
1.33183
1.32353
1.30998
1.28803
1.26177
1.25463
1.25527
1.25174
1.2411
1.22914
1.2148
1.19664
1.19346
1.19382
1.19554
1.19932
1.2051
1.21554
1.23565
1.26453
1.30314
1.35078
1.40137
1.45312
1.53184
1.64886
1.74647
1.79397
1.8123
1.92729
2.25261
2.38821
2.42862
2.44102
2.42937
2.39501
2.37477
2.37009
2.37139
2.376
2.37666
2.37317
2.36586
2.36372
2.36217
2.36066
2.35903
2.35666
2.35539
2.3547
2.3517
2.3477
2.34454
2.34161
2.33945
2.3373
2.33539
2.33399
2.33278
2.33149
2.32973
2.32784
2.32614
2.32347
2.31895
2.3133
2.30827
2.30431
2.30115
2.29806
2.29444
2.2908
2.2871
2.2834
2.27976
2.27595
2.27166
2.26643
2.2605
2.25559
2.25217
2.24968
2.24742
2.24463
2.24113
2.23702
2.23238
2.22788
2.22414
2.22139
2.21868
2.21468
2.20958
2.20344
2.19683
2.19025
2.18429
2.18002
2.17678
2.17412
2.1709
2.16672
2.1615
2.15513
2.14831
2.14184
2.13694
2.13363
2.13127
2.12998
2.12813
2.12477
2.11991
2.11288
2.10423
2.09604
2.08975
2.08498
2.08076
2.07668
2.07268
2.06875
2.06507
2.06177
2.05769
2.05243
2.04651
2.04066
2.03527
2.02989
2.02489
2.02127
2.01891
2.01727
2.01513
2.01139
2.0051
1.99692
1.99036
1.98658
1.98367
1.98101
1.97875
1.9758
1.97189
1.96563
1.9564
1.94807
1.94326
1.9407
1.93893
1.93729
1.9354
1.93318
1.93039
1.92663
1.92093
1.91371
1.90596
1.89913
1.89538
1.89333
1.89242
1.89261
1.89217
1.89022
1.88658
1.87895
1.86854
1.86098
1.8587
1.85789
1.85711
1.85595
1.85433
1.85024
2.17586
2.10416
2.02728
1.9603
1.89575
1.82478
1.75841
1.71302
1.66586
1.61806
1.58294
1.54592
1.50569
1.47884
1.45228
1.40861
1.37166
1.36413
1.36056
1.3513
1.3353
1.30958
1.29038
1.28849
1.28212
1.266
1.25137
1.23639
1.23065
1.2284
1.22344
1.21419
1.21312
1.21325
1.20667
1.20628
1.21393
1.23827
1.29323
1.40491
1.55693
1.66601
1.70861
1.76656
1.78476
1.79221
1.94461
2.24793
2.39689
2.44317
2.43165
2.39233
2.3736
2.36972
2.36903
2.37093
2.37206
2.37036
2.36551
2.36017
2.35637
2.35352
2.3531
2.35389
2.35486
2.35254
2.34856
2.34372
2.33984
2.33728
2.33587
2.33526
2.33385
2.33198
2.32916
2.32694
2.32601
2.32516
2.32402
2.32132
2.31698
2.31117
2.30582
2.30155
2.29798
2.2943
2.28985
2.28535
2.28088
2.27651
2.27235
2.26804
2.26323
2.25805
2.25327
2.24948
2.24633
2.24319
2.23984
2.23622
2.23218
2.22826
2.22492
2.22218
2.2198
2.21649
2.21204
2.20652
2.1998
2.19212
2.18506
2.1795
2.17543
2.17273
2.17146
2.1687
2.16449
2.15864
2.15088
2.14311
2.137
2.13267
2.12923
2.12672
2.12504
2.12265
2.11919
2.11433
2.10777
2.0999
2.09241
2.08622
2.08099
2.07627
2.07232
2.06886
2.06547
2.06163
2.05668
2.04991
2.04323
2.03799
2.03363
2.0296
2.02566
2.02178
2.01775
2.01352
2.0092
2.00452
1.99965
1.99478
1.98902
1.98265
1.97789
1.97472
1.97222
1.97087
1.96909
1.96579
1.96144
1.95472
1.94538
1.93686
1.93148
1.9283
1.92606
1.92463
1.92342
1.92101
1.91642
1.90923
1.90139
1.89439
1.89009
1.88761
1.88505
1.88284
1.88139
1.87998
1.87724
1.87277
1.86633
1.85768
1.84946
1.84666
1.84556
1.84489
1.84382
1.84191
1.83947
1.83205
2.19412
2.12936
2.06021
2.00144
1.94346
1.87339
1.81836
1.77416
1.72807
1.67724
1.64454
1.60934
1.56096
1.5201
1.50107
1.47661
1.44367
1.40778
1.39328
1.39279
1.38714
1.37201
1.3494
1.32203
1.30904
1.29782
1.28593
1.2782
1.27169
1.268
1.26217
1.25057
1.23642
1.22991
1.22385
1.21887
1.22647
1.26221
1.36389
1.46342
1.5399
1.58129
1.59476
1.62429
1.66746
1.70015
1.73824
1.95194
2.30232
2.45328
2.44328
2.40442
2.39016
2.3809
2.37511
2.37514
2.37727
2.37742
2.37538
2.37095
2.36567
2.36233
2.36054
2.36102
2.3626
2.35962
2.35431
2.34762
2.34318
2.34058
2.33973
2.33923
2.33706
2.33413
2.33025
2.32716
2.32546
2.3245
2.32368
2.32113
2.317
2.31137
2.30631
2.30199
2.29831
2.29423
2.28928
2.28428
2.2792
2.2742
2.2697
2.2655
2.26143
2.25755
2.25407
2.25077
2.24695
2.24272
2.23844
2.23421
2.2303
2.22698
2.22412
2.22091
2.21695
2.21238
2.20739
2.20136
2.19403
2.18687
2.18071
2.17637
2.17397
2.17338
2.17055
2.16631
2.16064
2.15285
2.14419
2.1377
2.13312
2.1294
2.12701
2.12556
2.12267
2.11849
2.11283
2.10612
2.09903
2.09282
2.08783
2.08352
2.07891
2.07433
2.07018
2.06624
2.06181
2.05653
2.04995
2.04201
2.03454
2.02953
2.02638
2.02428
2.0223
2.01911
2.0151
2.01004
2.00342
1.99575
1.9891
1.98421
1.97999
1.97678
1.9739
1.97066
1.96659