/*--------------------------------*- C++ -*----------------------------------*\
  =========                 |
  \\      /  F ield         | OpenFOAM: The Open Source CFD Toolbox
   \\    /   O peration     | Website:  https://openfoam.org
    \\  /    A nd           | Version:  10
     \\/     M anipulation  |
\*---------------------------------------------------------------------------*/
FoamFile
{
    format      ascii;
    class       volVectorField;
    location    "5.5";
    object      U;
}
// * * * * * * * * * * * * * * * * * * * * * * * * * * * * * * * * * * * * * //

dimensions      [0 1 -1 0 0 0 0];

internalField   nonuniform List<vector> 
16128
(
(3 -2.452e-15 0)
(3 -2.42132e-14 0)
(3 -3.09508e-14 0)
(3 -4.54934e-14 0)
(3 -1.69514e-14 0)
(3 -2.73182e-14 0)
(3 -4.76075e-15 0)
(3 1.89972e-14 0)
(3 3.28013e-14 0)
(3 5.06844e-14 0)
(3 4.29907e-14 0)
(3 -5.61162e-14 0)
(3 -5.72434e-14 0)
(3 -3.98503e-14 0)
(3 -2.82094e-14 0)
(3 -2.26502e-14 0)
(3 -9.06242e-15 0)
(3 1.94923e-14 0)
(3 1.55587e-14 0)
(3 -2.4908e-14 0)
(3 -5.08021e-14 0)
(3 -1.07771e-13 0)
(3 -1.14666e-13 0)
(3 -6.99811e-14 0)
(1.44925 0.00786825 0)
(0.773718 0.00701749 0)
(0.72675 0.0127009 0)
(0.697062 0.0130982 0)
(0.665863 0.0131306 0)
(0.636008 0.0129865 0)
(0.606753 0.0129052 0)
(0.577839 0.0130236 0)
(0.548667 0.0133487 0)
(0.518736 0.0138359 0)
(0.48794 0.0143231 0)
(0.456806 0.0145705 0)
(0.425876 0.0146584 0)
(0.394865 0.0148987 0)
(0.363141 0.0153206 0)
(0.330612 0.0158055 0)
(0.297523 0.0163184 0)
(0.263649 0.0169448 0)
(0.22837 0.0176491 0)
(0.191212 0.0184379 0)
(0.152549 0.0191066 0)
(0.112233 0.0204997 0)
(0.0686894 0.0220758 0)
(0.0238843 0.0228149 0)
(3 -5.41281e-15 0)
(3 -2.04711e-14 0)
(3 -6.18748e-14 0)
(3 -7.21998e-14 0)
(3 -3.57068e-14 0)
(3 -1.88425e-14 0)
(3 -1.8969e-14 0)
(3 4.06558e-14 0)
(3 4.33823e-14 0)
(3 5.3639e-14 0)
(3 6.70971e-14 0)
(3 -5.34519e-15 0)
(3 -1.8899e-14 0)
(3 2.32538e-14 0)
(3 -1.01364e-14 0)
(3 -8.12239e-14 0)
(3 -7.43833e-14 0)
(3 5.80987e-15 0)
(3 1.55996e-15 0)
(3 5.07135e-16 0)
(3 -4.94713e-14 0)
(3 -1.19763e-13 0)
(3 -1.25433e-13 0)
(3 -6.77136e-14 0)
(1.46551 0.0374825 0)
(0.769343 0.0302238 0)
(0.719259 0.0378065 0)
(0.689344 0.0381181 0)
(0.658049 0.037991 0)
(0.628128 0.0374524 0)
(0.598839 0.0371868 0)
(0.569914 0.0376035 0)
(0.540755 0.0387011 0)
(0.510876 0.0403349 0)
(0.480135 0.041999 0)
(0.448978 0.0428769 0)
(0.417964 0.0431643 0)
(0.386935 0.0438867 0)
(0.355394 0.0452646 0)
(0.323249 0.0469623 0)
(0.290638 0.0487318 0)
(0.257325 0.0507012 0)
(0.222876 0.0527292 0)
(0.187065 0.0551403 0)
(0.150081 0.057506 0)
(0.111299 0.0625376 0)
(0.0683848 0.0679341 0)
(0.0248819 0.0695233 0)
(3 -7.51638e-15 0)
(3 -1.1611e-14 0)
(3 -4.29166e-14 0)
(3 -4.81437e-14 0)
(3 -4.53162e-14 0)
(3 -2.67989e-14 0)
(3 -5.59045e-14 0)
(3 -3.25343e-14 0)
(3 1.82749e-14 0)
(3 2.17793e-14 0)
(3 8.66328e-14 0)
(3 5.64791e-14 0)
(3 1.25784e-14 0)
(3 -2.95464e-14 0)
(3 -1.03327e-13 0)
(3 -1.65711e-13 0)
(3 -1.22689e-13 0)
(3 -8.68974e-14 0)
(3 -5.48275e-14 0)
(3 -3.83797e-14 0)
(3 -1.54306e-13 0)
(3 -1.03595e-13 0)
(3 -1.01565e-13 0)
(3 -1.33594e-13 0)
(1.51515 0.0661505 0)
(0.774515 0.0537426 0)
(0.721126 0.0641294 0)
(0.690407 0.0647949 0)
(0.658192 0.0646577 0)
(0.627338 0.0637334 0)
(0.597158 0.0631384 0)
(0.567459 0.0636419 0)
(0.537714 0.0653193 0)
(0.507451 0.0679436 0)
(0.476393 0.0706554 0)
(0.444773 0.0720676 0)
(0.413134 0.0724762 0)
(0.381478 0.0735889 0)
(0.349438 0.0757538 0)
(0.316808 0.0783122 0)
(0.283582 0.0807885 0)
(0.249678 0.0835356 0)
(0.215111 0.0864466 0)
(0.18008 0.0903248 0)
(0.144442 0.0943263 0)
(0.10754 0.103215 0)
(0.0661451 0.112008 0)
(0.026108 0.11422 0)
(3 -1.91726e-16 0)
(3 -6.39747e-15 0)
(3 -5.05657e-15 0)
(3 -1.43458e-14 0)
(3 -1.89948e-14 0)
(3 -3.65785e-14 0)
(3 -1.66086e-14 0)
(3 -2.81378e-14 0)
(3 -2.32735e-14 0)
(3 1.58002e-14 0)
(3 3.14867e-14 0)
(3 2.28219e-14 0)
(3 -4.50969e-15 0)
(3 -8.69064e-14 0)
(3 -1.04583e-13 0)
(3 -7.16447e-14 0)
(3 -5.41442e-14 0)
(3 -4.84899e-15 0)
(3 -3.35262e-14 0)
(3 -6.29523e-14 0)
(3 -6.0438e-14 0)
(3 -7.91065e-14 0)
(3 -1.48258e-13 0)
(3 -2.29192e-13 0)
(1.59089 0.0923222 0)
(0.781409 0.0777906 0)
(0.723933 0.0901792 0)
(0.69352 0.0911894 0)
(0.661446 0.0911835 0)
(0.630596 0.090022 0)
(0.600298 0.0891639 0)
(0.570462 0.0897629 0)
(0.540666 0.0920224 0)
(0.510475 0.0956585 0)
(0.47947 0.0995213 0)
(0.447627 0.101715 0)
(0.415456 0.102569 0)
(0.38312 0.104376 0)
(0.350357 0.107545 0)
(0.316805 0.111085 0)
(0.282298 0.114294 0)
(0.246912 0.117761 0)
(0.211081 0.121248 0)
(0.175378 0.126127 0)
(0.139243 0.130824 0)
(0.103072 0.142784 0)
(0.0632716 0.153649 0)
(0.0298881 0.157177 0)
(3 1.60932e-14 0)
(3 4.71946e-14 0)
(3 2.27313e-14 0)
(3 5.33142e-15 0)
(3 2.10533e-14 0)
(3 4.53145e-14 0)
(3 7.81191e-14 0)
(3 6.79774e-14 0)
(3 2.8446e-14 0)
(3 3.02863e-15 0)
(3 -8.14977e-14 0)
(3 -5.67857e-14 0)
(3 -2.80609e-15 0)
(3 -4.41314e-14 0)
(3 -1.10234e-14 0)
(3 2.17118e-15 0)
(3 3.1718e-14 0)
(3 7.45433e-14 0)
(3 7.3054e-14 0)
(3 7.62001e-14 0)
(3 8.59769e-14 0)
(3 5.21113e-14 0)
(3 1.08221e-14 0)
(3 -5.2499e-14 0)
(1.69535 0.118286 0)
(0.790635 0.103265 0)
(0.725627 0.116262 0)
(0.695196 0.11759 0)
(0.663069 0.117863 0)
(0.632107 0.116611 0)
(0.601631 0.115465 0)
(0.571688 0.115972 0)
(0.54202 0.118589 0)
(0.512277 0.123081 0)
(0.481911 0.128084 0)
(0.450582 0.131201 0)
(0.418712 0.132649 0)
(0.386593 0.135245 0)
(0.354052 0.139515 0)
(0.320575 0.144196 0)
(0.285832 0.148376 0)
(0.249949 0.152933 0)
(0.213311 0.157335 0)
(0.176365 0.163629 0)
(0.137734 0.168939 0)
(0.0999443 0.183346 0)
(0.0594374 0.192255 0)
(0.0397741 0.198198 0)
(3 1.34668e-14 0)
(3 3.46116e-15 0)
(3 1.80545e-14 0)
(3 3.66379e-14 0)
(3 2.72902e-14 0)
(3 3.78388e-14 0)
(3 5.49803e-14 0)
(3 7.64614e-14 0)
(3 5.627e-14 0)
(3 -3.26885e-14 0)
(3 -6.72194e-14 0)
(3 -2.54096e-14 0)
(3 9.60073e-16 0)
(3 1.2712e-14 0)
(3 -1.15245e-14 0)
(3 4.59208e-15 0)
(3 4.34926e-15 0)
(3 1.246e-14 0)
(3 3.43314e-14 0)
(3 7.81082e-14 0)
(3 9.87201e-14 0)
(3 8.52508e-14 0)
(3 1.06977e-13 0)
(3 6.00394e-14 0)
(1.83639 0.141801 0)
(0.805799 0.130499 0)
(0.728986 0.142883 0)
(0.698493 0.144052 0)
(0.66643 0.144695 0)
(0.635464 0.143605 0)
(0.604789 0.142311 0)
(0.574543 0.142642 0)
(0.544666 0.145409 0)
(0.514973 0.150581 0)
(0.484893 0.156719 0)
(0.453766 0.160936 0)
(0.421868 0.163132 0)
(0.389601 0.166564 0)
(0.356906 0.171962 0)
(0.323231 0.177883 0)
(0.28819 0.183156 0)
(0.252054 0.188938 0)
(0.215175 0.194243 0)
(0.178268 0.20216 0)
(0.139094 0.208181 0)
(0.101766 0.225062 0)
(0.0594533 0.23291 0)
(0.0356173 0.238641 0)
(3 -1.28152e-14 0)
(3 -4.28342e-14 0)
(3 1.06282e-14 0)
(3 5.67485e-14 0)
(3 3.61903e-14 0)
(3 -3.32081e-16 0)
(3 -1.41974e-14 0)
(3 -1.57865e-16 0)
(3 -4.32058e-14 0)
(3 -4.65041e-14 0)
(3 -3.23528e-14 0)
(3 3.30723e-14 0)
(3 7.392e-14 0)
(3 8.87756e-14 0)
(3 6.30064e-14 0)
(3 2.20781e-14 0)
(3 -3.79844e-14 0)
(3 -4.64431e-14 0)
(3 -4.2076e-14 0)
(3 -2.04087e-14 0)
(3 1.31651e-14 0)
(3 1.18307e-14 0)
(3 1.23e-14 0)
(3 4.46283e-14 0)
(2.01065 0.159778 0)
(0.826684 0.159957 0)
(0.733253 0.169069 0)
(0.703862 0.169607 0)
(0.672996 0.170574 0)
(0.643158 0.169887 0)
(0.613209 0.168688 0)
(0.583386 0.168873 0)
(0.55384 0.171611 0)
(0.524608 0.177228 0)
(0.495158 0.184425 0)
(0.464483 0.189954 0)
(0.432635 0.193167 0)
(0.400106 0.197624 0)
(0.366953 0.204336 0)
(0.332688 0.21177 0)
(0.296939 0.218412 0)
(0.260091 0.225621 0)
(0.222205 0.231702 0)
(0.184357 0.240885 0)
(0.144153 0.247032 0)
(0.107058 0.266029 0)
(0.0643899 0.277815 0)
(0.0249272 0.27925 0)
(3 -2.1727e-14 0)
(3 4.84977e-15 0)
(3 3.54298e-14 0)
(3 4.09636e-14 0)
(3 2.03994e-14 0)
(3 2.16243e-14 0)
(3 -3.63225e-14 0)
(3 -4.62442e-14 0)
(3 -6.2835e-14 0)
(3 -6.26009e-14 0)
(3 -2.43122e-14 0)
(3 -2.05247e-14 0)
(3 -1.56097e-14 0)
(3 -3.94863e-14 0)
(3 -8.63777e-15 0)
(3 -1.98137e-14 0)
(3 -1.59862e-14 0)
(3 -4.93526e-14 0)
(3 -5.8056e-14 0)
(3 -2.4397e-14 0)
(3 1.98752e-14 0)
(3 1.71588e-14 0)
(3 2.38786e-14 0)
(3 9.73654e-14 0)
(2.21463 0.173681 0)
(0.850646 0.195446 0)
(0.731249 0.195047 0)
(0.70248 0.195069 0)
(0.672183 0.196307 0)
(0.6431 0.196453 0)
(0.613563 0.195722 0)
(0.583961 0.195878 0)
(0.554687 0.198403 0)
(0.526089 0.204187 0)
(0.49789 0.212356 0)
(0.468741 0.219364 0)
(0.438276 0.223771 0)
(0.406941 0.229301 0)
(0.374748 0.237386 0)
(0.341131 0.246553 0)
(0.305529 0.254884 0)
(0.268366 0.263888 0)
(0.22935 0.271032 0)
(0.190086 0.281604 0)
(0.14802 0.287749 0)
(0.109013 0.307839 0)
(0.0662358 0.323537 0)
(0.0265421 0.324633 0)
(3 -3.61242e-15 0)
(3 1.33158e-14 0)
(3 3.43821e-14 0)
(3 3.39125e-14 0)
(3 1.15905e-14 0)
(3 4.5794e-15 0)
(3 -4.90907e-14 0)
(3 -4.9502e-14 0)
(3 -5.07402e-14 0)
(3 -2.68023e-14 0)
(3 1.00417e-14 0)
(3 -1.94757e-14 0)
(3 -5.531e-14 0)
(3 -7.32398e-14 0)
(3 -8.23117e-14 0)
(3 -2.28885e-14 0)
(3 -3.55809e-15 0)
(3 -1.59865e-14 0)
(3 -1.51488e-14 0)
(3 -3.51856e-14 0)
(3 -2.41423e-14 0)
(3 -4.57799e-14 0)
(3 -6.36825e-14 0)
(3 2.92343e-14 0)
(2.45466 0.184368 0)
(0.892858 0.238259 0)
(0.741701 0.221727 0)
(0.715621 0.221904 0)
(0.684861 0.223283 0)
(0.655213 0.224319 0)
(0.624318 0.224255 0)
(0.593136 0.224274 0)
(0.562313 0.226054 0)
(0.532507 0.231147 0)
(0.503923 0.239485 0)
(0.475183 0.247615 0)
(0.445412 0.25316 0)
(0.414987 0.25976 0)
(0.383885 0.269359 0)
(0.351403 0.280679 0)
(0.316593 0.291278 0)
(0.279873 0.302744 0)
(0.240296 0.311663 0)
(0.199692 0.324366 0)
(0.15464 0.331605 0)
(0.111694 0.353515 0)
(0.0668259 0.36859 0)
(0.0419531 0.37009 0)
(3 2.00769e-14 0)
(3 1.05767e-14 0)
(3 -3.72961e-14 0)
(3 -2.69504e-14 0)
(3 -4.66006e-14 0)
(3 -8.01141e-14 0)
(3 -4.49862e-14 0)
(3 -1.90396e-14 0)
(3 -5.83853e-15 0)
(3 5.16899e-14 0)
(3 3.92654e-14 0)
(3 1.09491e-15 0)
(3 -2.16074e-14 0)
(3 -2.14248e-14 0)
(3 2.21165e-14 0)
(3 9.14681e-14 0)
(3 4.28765e-14 0)
(3 5.89195e-14 0)
(3 8.5504e-14 0)
(3 2.61153e-14 0)
(3 -9.87212e-15 0)
(3 -5.56755e-15 0)
(3 -4.73002e-15 0)
(3 1.501e-17 0)
(2.71922 0.179866 0)
(0.967468 0.276245 0)
(0.77491 0.235942 0)
(0.750954 0.242491 0)
(0.71729 0.247166 0)
(0.685241 0.251142 0)
(0.651176 0.253116 0)
(0.616444 0.254028 0)
(0.581923 0.255673 0)
(0.548649 0.260009 0)
(0.517344 0.26802 0)
(0.48698 0.276806 0)
(0.456252 0.283121 0)
(0.425438 0.290319 0)
(0.394594 0.301012 0)
(0.362988 0.314435 0)
(0.328961 0.327599 0)
(0.292804 0.342218 0)
(0.252684 0.353896 0)
(0.211234 0.369828 0)
(0.164222 0.379727 0)
(0.119049 0.404002 0)
(0.0705586 0.415756 0)
(0.0466395 0.41997 0)
(3 7.17281e-15 0)
(3 1.88345e-14 0)
(3 -5.05608e-14 0)
(3 -8.44966e-14 0)
(3 -1.24634e-13 0)
(3 -9.44844e-14 0)
(3 -2.35821e-14 0)
(3 -2.55353e-14 0)
(3 -2.78593e-15 0)
(3 -2.41731e-14 0)
(3 -3.04508e-14 0)
(3 -3.50436e-14 0)
(3 -6.4374e-14 0)
(3 -7.41022e-14 0)
(3 -3.41641e-14 0)
(3 -2.00008e-14 0)
(3 3.54642e-14 0)
(3 7.36925e-14 0)
(3 4.53355e-14 0)
(3 9.23845e-15 0)
(3 3.51782e-14 0)
(3 1.03785e-13 0)
(3 1.16006e-13 0)
(3 1.10696e-13 0)
(2.9595 0.0729837 0)
(1.0632 0.290466 0)
(0.80359 0.250924 0)
(0.788306 0.264177 0)
(0.754718 0.272336 0)
(0.721581 0.279402 0)
(0.685553 0.284403 0)
(0.648529 0.286942 0)
(0.611267 0.288566 0)
(0.57464 0.291868 0)
(0.539858 0.298962 0)
(0.506698 0.307918 0)
(0.473746 0.314679 0)
(0.441199 0.32195 0)
(0.4093 0.333007 0)
(0.377662 0.348144 0)
(0.343966 0.36389 0)
(0.308693 0.382085 0)
(0.268928 0.397033 0)
(0.228057 0.416421 0)
(0.180313 0.429751 0)
(0.133256 0.457453 0)
(0.0795614 0.46794 0)
(0.0530331 0.475093 0)
(3 -3.22773e-14 0)
(3 -3.44338e-14 0)
(3 -2.20053e-14 0)
(3 -7.90752e-14 0)
(3 -1.24111e-13 0)
(3 -7.57359e-14 0)
(3 -5.84543e-14 0)
(3 -5.45771e-14 0)
(3 -3.22592e-14 0)
(3 -6.85882e-14 0)
(3 -5.60673e-14 0)
(3 -1.71347e-14 0)
(3 -1.1202e-14 0)
(3 -2.85827e-14 0)
(3 -9.93111e-14 0)
(3 -1.50526e-13 0)
(3 -8.22145e-14 0)
(3 -4.60981e-14 0)
(3 -3.76709e-15 0)
(3 5.21195e-14 0)
(3 7.42106e-14 0)
(3 4.40708e-14 0)
(3 1.14748e-13 0)
(3 6.65319e-14 0)
(3.0162 0.00652448 0)
(1.15279 0.286996 0)
(0.804726 0.266526 0)
(0.795266 0.292218 0)
(0.768495 0.303013 0)
(0.741722 0.310011 0)
(0.712012 0.315211 0)
(0.679066 0.319335 0)
(0.643425 0.322858 0)
(0.606507 0.32653 0)
(0.569871 0.332941 0)
(0.534285 0.341856 0)
(0.498793 0.348938 0)
(0.463725 0.355993 0)
(0.429624 0.366616 0)
(0.397008 0.382735 0)
(0.36311 0.400404 0)
(0.328588 0.421983 0)
(0.2887 0.44099 0)
(0.246911 0.465349 0)
(0.196344 0.484507 0)
(0.146568 0.517992 0)
(0.0860072 0.529195 0)
(0.0557029 0.538508 0)
(3 5.32337e-15 0)
(3 -4.25043e-15 0)
(3 -6.48216e-15 0)
(3 -3.60722e-14 0)
(3 -2.01328e-14 0)
(3 -1.44312e-14 0)
(3 -5.2181e-15 0)
(3 2.56769e-14 0)
(3 6.88123e-14 0)
(3 -5.75091e-16 0)
(3 -6.07193e-14 0)
(3 -5.5162e-14 0)
(3 -1.61913e-14 0)
(3 -1.61638e-14 0)
(3 -2.12106e-14 0)
(3 -4.67067e-14 0)
(3 -8.29647e-14 0)
(3 -1.04525e-13 0)
(3 -6.45085e-14 0)
(3 9.45663e-14 0)
(3 1.19783e-13 0)
(3 7.43342e-14 0)
(3 1.12547e-13 0)
(3 4.77194e-14 0)
(3.00051 1.56776e-05 0)
(1.2855 0.305819 0)
(0.795939 0.274613 0)
(0.778639 0.306845 0)
(0.757291 0.326014 0)
(0.736005 0.335662 0)
(0.715698 0.342877 0)
(0.694128 0.348648 0)
(0.668278 0.35383 0)
(0.637217 0.359472 0)
(0.603005 0.367175 0)
(0.567637 0.377247 0)
(0.530962 0.385495 0)
(0.493721 0.392923 0)
(0.456948 0.402647 0)
(0.422468 0.418941 0)
(0.38731 0.437971 0)
(0.352704 0.462972 0)
(0.313059 0.486933 0)
(0.272058 0.516979 0)
(0.222116 0.542118 0)
(0.172433 0.582629 0)
(0.104155 0.598252 0)
(0.0701333 0.611926 0)
(3 2.93117e-14 0)
(3 1.88219e-14 0)
(3 -5.24179e-15 0)
(3 -6.98301e-15 0)
(3 1.78171e-14 0)
(3 2.29992e-14 0)
(3 2.1792e-15 0)
(3 -2.20335e-14 0)
(3 -4.37105e-14 0)
(3 -5.0384e-14 0)
(3 -4.99185e-14 0)
(3 -4.74483e-14 0)
(3 -8.44812e-15 0)
(3 -1.71474e-15 0)
(3 1.1712e-14 0)
(3 4.14462e-14 0)
(3 5.15398e-14 0)
(3 6.03646e-14 0)
(3 4.30287e-14 0)
(3 4.24318e-14 0)
(3 1.15878e-13 0)
(3 1.24508e-13 0)
(3 1.09815e-13 0)
(3 4.85828e-14 0)
(3 -5.38308e-08 0)
(1.50813 0.336618 0)
(0.80809 0.308169 0)
(0.750727 0.31713 0)
(0.734656 0.332225 0)
(0.718651 0.343753 0)
(0.704649 0.35523 0)
(0.689723 0.366868 0)
(0.673362 0.378358 0)
(0.652919 0.388431 0)
(0.627505 0.399209 0)
(0.598002 0.41199 0)
(0.564488 0.423021 0)
(0.528125 0.432308 0)
(0.490243 0.441483 0)
(0.45398 0.45779 0)
(0.417661 0.477308 0)
(0.383481 0.504767 0)
(0.344792 0.533018 0)
(0.304905 0.569382 0)
(0.252046 0.605138 0)
(0.196949 0.660413 0)
(0.116936 0.687566 0)
(0.0717882 0.708883 0)
(3 -8.36342e-15 0)
(3 -6.38012e-16 0)
(3 3.47429e-14 0)
(3 5.37212e-14 0)
(3 2.167e-14 0)
(3 4.07868e-14 0)
(3 4.32911e-14 0)
(3 -2.16103e-15 0)
(3 -5.94442e-14 0)
(3 -6.44645e-14 0)
(3 -2.48977e-14 0)
(3 2.4064e-14 0)
(3 7.17808e-14 0)
(3 1.13187e-13 0)
(3 9.66392e-14 0)
(3 7.40049e-14 0)
(3 9.92552e-14 0)
(3 1.43462e-13 0)
(3 1.18188e-13 0)
(3 4.45965e-14 0)
(3 6.78864e-14 0)
(3 1.33421e-13 0)
(3 1.06889e-13 0)
(3 2.2262e-14 0)
(3 -6.17836e-08 0)
(1.84602 0.374675 0)
(0.837639 0.368949 0)
(0.744177 0.347581 0)
(0.725161 0.349194 0)
(0.711227 0.3577 0)
(0.697471 0.367483 0)
(0.68374 0.378781 0)
(0.670169 0.392385 0)
(0.655471 0.407552 0)
(0.63863 0.423839 0)
(0.618264 0.441385 0)
(0.592551 0.457371 0)
(0.561705 0.470938 0)
(0.526074 0.481935 0)
(0.490688 0.498906 0)
(0.454124 0.518459 0)
(0.420152 0.547762 0)
(0.382591 0.580953 0)
(0.344989 0.626305 0)
(0.296012 0.674759 0)
(0.250351 0.744016 0)
(0.167936 0.788691 0)
(0.111148 0.822563 0)
(3 -2.32902e-14 0)
(3 -2.94787e-14 0)
(3 6.52613e-15 0)
(3 3.6612e-14 0)
(3 4.46649e-14 0)
(3 8.95117e-14 0)
(3 1.34299e-13 0)
(3 9.62021e-14 0)
(3 7.40664e-14 0)
(3 2.65822e-14 0)
(3 1.43798e-14 0)
(3 5.69699e-14 0)
(3 4.66771e-14 0)
(3 7.08345e-14 0)
(3 8.42348e-14 0)
(3 7.88003e-14 0)
(3 3.82969e-14 0)
(3 6.36434e-14 0)
(3 1.00191e-13 0)
(3 8.79619e-14 0)
(3 7.17979e-14 0)
(3 6.15466e-14 0)
(3 6.22974e-14 0)
(3 6.95453e-14 0)
(3 -1.28449e-08 0)
(2.33618 0.373264 0)
(0.911854 0.43754 0)
(0.787587 0.37495 0)
(0.755131 0.372309 0)
(0.727949 0.377157 0)
(0.706172 0.385684 0)
(0.688003 0.396152 0)
(0.672242 0.408544 0)
(0.658152 0.423617 0)
(0.643912 0.441593 0)
(0.630305 0.463023 0)
(0.613195 0.484776 0)
(0.590584 0.504482 0)
(0.56158 0.520256 0)
(0.53048 0.53981 0)
(0.495828 0.560413 0)
(0.46388 0.591663 0)
(0.429405 0.62861 0)
(0.399811 0.680013 0)
(0.356834 0.737018 0)
(0.316514 0.835465 0)
(0.206584 0.944813 0)
(0.161112 1.03812 0)
(3 -6.64476e-15 0)
(3 -5.93673e-14 0)
(3 -7.43496e-14 0)
(3 -3.57612e-14 0)
(3 6.75123e-14 0)
(3 3.48607e-14 0)
(3 2.97423e-15 0)
(3 4.67875e-15 0)
(3 1.6925e-14 0)
(3 3.37788e-14 0)
(3 2.9197e-14 0)
(3 6.55929e-14 0)
(3 1.19078e-13 0)
(3 1.06855e-13 0)
(3 7.57755e-14 0)
(3 7.4111e-14 0)
(3 6.21465e-14 0)
(3 7.1013e-14 0)
(3 6.18868e-14 0)
(3 5.26888e-14 0)
(3 1.6667e-14 0)
(3 2.15057e-14 0)
(3 8.05833e-14 0)
(3 1.10118e-13 0)
(3 -1.28663e-09 0)
(2.92376 0.181083 0)
(1.08165 0.461541 0)
(0.863242 0.39733 0)
(0.826582 0.395029 0)
(0.780129 0.400914 0)
(0.741674 0.40759 0)
(0.711937 0.415823 0)
(0.688338 0.426721 0)
(0.669837 0.44106 0)
(0.654113 0.458548 0)
(0.641328 0.480514 0)
(0.629463 0.505695 0)
(0.614412 0.531288 0)
(0.594012 0.55374 0)
(0.569946 0.578238 0)
(0.540639 0.601804 0)
(0.51366 0.635369 0)
(0.483561 0.673832 0)
(0.462604 0.731367 0)
(0.4271 0.80971 0)
(0.410565 0.944434 0)
(0.394897 1.09494 0)
(0.539494 1.3458 0)
(3 -7.80779e-15 0)
(3 1.05472e-14 0)
(3 -3.40165e-15 0)
(3 -1.3854e-14 0)
(3 8.88627e-15 0)
(3 1.00707e-14 0)
(3 -6.86059e-14 0)
(3 -7.28624e-14 0)
(3 -5.14441e-14 0)
(3 -1.49425e-15 0)
(3 7.66319e-14 0)
(3 3.17068e-14 0)
(3 -8.45096e-15 0)
(3 1.12167e-15 0)
(3 4.83034e-14 0)
(3 6.26221e-14 0)
(3 1.14702e-14 0)
(3 -7.11833e-15 0)
(3 8.1695e-15 0)
(3 9.69589e-15 0)
(3 -3.13455e-14 0)
(3 -2.08902e-15 0)
(3 5.86005e-14 0)
(3 5.64425e-14 0)
(3 -4.99566e-11 0)
(3.04465 0.0105272 0)
(1.26901 0.425148 0)
(0.881426 0.429114 0)
(0.857366 0.448282 0)
(0.821715 0.446333 0)
(0.783872 0.444187 0)
(0.74822 0.446315 0)
(0.717189 0.451413 0)
(0.692244 0.461541 0)
(0.67273 0.476384 0)
(0.657633 0.496843 0)
(0.646585 0.522615 0)
(0.637013 0.551665 0)
(0.624066 0.579983 0)
(0.608928 0.610285 0)
(0.587307 0.638689 0)
(0.568221 0.675492 0)
(0.545091 0.715988 0)
(0.533468 0.778131 0)
(0.52391 0.869492 0)
(0.538004 1.00913 0)
(0.624734 1.1603 0)
(0.932756 1.34861 0)
(3 -7.32285e-15 0)
(3 1.5822e-14 0)
(3 4.77599e-14 0)
(3 3.06536e-14 0)
(3 -1.22804e-15 0)
(3 -3.87228e-14 0)
(3 -3.35501e-14 0)
(3 -7.28314e-14 0)
(3 -6.38919e-14 0)
(3 -4.14391e-15 0)
(3 1.02183e-14 0)
(3 -5.61863e-15 0)
(3 -8.16854e-15 0)
(3 -7.43009e-15 0)
(3 1.83763e-14 0)
(3 3.21602e-14 0)
(3 2.45509e-14 0)
(3 -2.88117e-14 0)
(3 -3.13885e-14 0)
(3 3.28135e-14 0)
(3 3.87347e-14 0)
(3 3.20793e-14 0)
(3 6.41168e-14 0)
(3 9.72564e-14 0)
(3 -9.55835e-13 0)
(3.00151 -9.10462e-06 0)
(1.49707 0.424225 0)
(0.864829 0.459185 0)
(0.843495 0.469984 0)
(0.82232 0.473986 0)
(0.800987 0.476038 0)
(0.775768 0.479144 0)
(0.747725 0.482251 0)
(0.72104 0.488439 0)
(0.697767 0.498923 0)
(0.679854 0.515859 0)
(0.666773 0.539449 0)
(0.659769 0.569112 0)
(0.651565 0.601085 0)
(0.645414 0.6362 0)
(0.632973 0.670334 0)
(0.623951 0.71097 0)
(0.611512 0.754297 0)
(0.610972 0.816283 0)
(0.626052 0.906227 0)
(0.673516 1.02883 0)
(0.822917 1.16408 0)
(1.16138 1.27772 0)
(3 1.34566e-15 0)
(3 2.46567e-14 0)
(3 2.97475e-14 0)
(3 2.83471e-14 0)
(3 1.83693e-15 0)
(3 -8.174e-14 0)
(3 -3.30828e-14 0)
(3 3.84868e-14 0)
(3 3.4578e-14 0)
(3 5.51253e-14 0)
(3 7.79563e-15 0)
(3 2.74135e-14 0)
(3 9.1001e-14 0)
(3 8.72759e-14 0)
(3 7.86183e-14 0)
(3 8.35346e-14 0)
(3 5.29182e-14 0)
(3 3.3459e-14 0)
(3 -1.83895e-14 0)
(3 -2.47441e-14 0)
(3 6.53108e-16 0)
(3 5.60836e-15 0)
(3 -4.07534e-14 0)
(3 -6.52622e-14 0)
(3 -1.154e-13 0)
(3 -1.60656e-07 0)
(1.94144 0.452635 0)
(0.895142 0.490967 0)
(0.83057 0.476635 0)
(0.824839 0.487231 0)
(0.811495 0.495757 0)
(0.795411 0.503652 0)
(0.77472 0.509544 0)
(0.752294 0.515988 0)
(0.729154 0.523599 0)
(0.709624 0.536971 0)
(0.693371 0.556626 0)
(0.686179 0.584265 0)
(0.680274 0.616815 0)
(0.680479 0.654448 0)
(0.67713 0.693656 0)
(0.678862 0.737738 0)
(0.679101 0.784205 0)
(0.691243 0.842959 0)
(0.72247 0.92369 0)
(0.798687 1.02886 0)
(0.969559 1.13793 0)
(1.25268 1.20774 0)
(3 1.5842e-14 0)
(3 3.24308e-14 0)
(3 2.1712e-14 0)
(3 7.24276e-15 0)
(3 3.39159e-15 0)
(3 3.22392e-15 0)
(3 1.1637e-14 0)
(3 4.09846e-14 0)
(3 5.86327e-14 0)
(3 3.1955e-14 0)
(3 3.34752e-14 0)
(3 6.60017e-14 0)
(3 3.99984e-14 0)
(3 3.84489e-14 0)
(3 4.07192e-14 0)
(3 4.37007e-14 0)
(3 2.6557e-14 0)
(3 4.70596e-14 0)
(3 2.26246e-14 0)
(3 9.00021e-15 0)
(3 2.01086e-14 0)
(3 -5.00721e-14 0)
(3 -1.24642e-13 0)
(3 -1.93483e-13 0)
(3 -7.03594e-14 0)
(3 -2.04449e-07 0)
(2.62078 0.353648 0)
(1.01778 0.546416 0)
(0.87406 0.484735 0)
(0.85441 0.494853 0)
(0.835954 0.509332 0)
(0.819439 0.522167 0)
(0.80128 0.532489 0)
(0.783083 0.542347 0)
(0.762637 0.55068 0)
(0.743588 0.562702 0)
(0.725931 0.577943 0)
(0.716456 0.60199 0)
(0.711336 0.632248 0)
(0.714766 0.669104 0)
(0.718784 0.710513 0)
(0.730166 0.756827 0)
(0.743386 0.80607 0)
(0.768109 0.861802 0)
(0.811679 0.931809 0)
(0.904225 1.01685 0)
(1.06853 1.09674 0)
(1.3063 1.14406 0)
(3 3.8407e-14 0)
(3 3.15758e-14 0)
(3 2.77069e-14 0)
(3 5.57944e-15 0)
(3 -4.36442e-15 0)
(3 4.36688e-14 0)
(3 2.77602e-14 0)
(3 -4.30644e-14 0)
(3 -3.72234e-14 0)
(3 -1.37457e-14 0)
(3 -1.51064e-14 0)
(3 -2.31321e-15 0)
(3 -2.14463e-14 0)
(3 -2.02065e-14 0)
(3 -9.6905e-14 0)
(3 -1.06664e-13 0)
(3 -7.27338e-14 0)
(3 -4.02385e-14 0)
(3 4.51751e-14 0)
(3 5.80589e-14 0)
(3 1.8016e-14 0)
(3 -5.01973e-14 0)
(3 -1.27955e-13 0)
(3 -1.38091e-13 0)
(3 -3.68084e-14 0)
(3 -4.30879e-08 0)
(3.08148 0.0465394 0)
(1.27329 0.52565 0)
(0.930131 0.514673 0)
(0.897132 0.524423 0)
(0.871207 0.531326 0)
(0.849898 0.540564 0)
(0.831639 0.550982 0)
(0.815934 0.562811 0)
(0.798463 0.573209 0)
(0.781652 0.586327 0)
(0.764632 0.599294 0)
(0.752893 0.619683 0)
(0.746985 0.646401 0)
(0.750656 0.680331 0)
(0.75899 0.720455 0)
(0.77682 0.766358 0)
(0.800953 0.816574 0)
(0.83669 0.870288 0)
(0.890812 0.931619 0)
(0.988022 0.997586 0)
(1.13691 1.05299 0)
(1.3293 1.08328 0)
(3 4.63391e-15 0)
(3 9.82611e-16 0)
(3 1.28762e-14 0)
(3 3.4195e-14 0)
(3 3.81368e-14 0)
(3 1.73637e-14 0)
(3 4.28432e-14 0)
(3 5.6097e-14 0)
(3 5.20932e-14 0)
(3 8.19975e-14 0)
(3 1.10378e-13 0)
(3 9.42391e-14 0)
(3 2.28435e-14 0)
(3 -2.33622e-14 0)
(3 -2.52521e-14 0)
(3 -8.77987e-14 0)
(3 -3.81911e-14 0)
(3 -2.31405e-14 0)
(3 -3.46718e-14 0)
(3 -4.76045e-14 0)
(3 -9.58868e-14 0)
(3 -1.28349e-13 0)
(3 -1.5593e-13 0)
(3 -1.49842e-13 0)
(3 -2.2197e-14 0)
(3 -4.38174e-09 0)
(3.00893 0.000112833 0)
(1.50524 0.507826 0)
(0.918985 0.572007 0)
(0.89245 0.557274 0)
(0.876558 0.558681 0)
(0.86175 0.564924 0)
(0.848282 0.57415 0)
(0.83719 0.586203 0)
(0.825028 0.597784 0)
(0.813768 0.611969 0)
(0.801082 0.624714 0)
(0.791022 0.642022 0)
(0.785315 0.664286 0)
(0.788557 0.693768 0)
(0.799193 0.729824 0)
(0.820374 0.771882 0)
(0.851312 0.819466 0)
(0.895643 0.87064 0)
(0.958507 0.92575 0)
(1.05521 0.978612 0)
(1.18643 1.01692 0)
(1.34669 1.03618 0)
(3 -3.68921e-14 0)
(3 -4.08145e-14 0)
(3 -2.40233e-14 0)
(3 3.00583e-14 0)
(3 6.35532e-14 0)
(3 5.11369e-14 0)
(3 6.61783e-14 0)
(3 7.0122e-14 0)
(3 1.00823e-13 0)
(3 9.34189e-14 0)
(3 1.11671e-13 0)
(3 2.84418e-14 0)
(3 1.4645e-14 0)
(3 -2.00745e-14 0)
(3 -2.58384e-14 0)
(3 2.70596e-14 0)
(3 3.09748e-14 0)
(3 -1.46567e-14 0)
(3 -4.92163e-14 0)
(3 -5.04049e-14 0)
(3 -6.45826e-14 0)
(3 -8.45645e-14 0)
(3 -9.11099e-14 0)
(3 -8.22055e-14 0)
(3 -4.9102e-14 0)
(3 -1.38511e-10 0)
(3.00006 -2.31879e-06 0)
(2.07943 0.510736 0)
(0.968249 0.604027 0)
(0.905677 0.567567 0)
(0.895939 0.573105 0)
(0.883726 0.580698 0)
(0.871921 0.589449 0)
(0.862285 0.601657 0)
(0.852884 0.61428 0)
(0.845684 0.629714 0)
(0.837623 0.644143 0)
(0.831035 0.66103 0)
(0.826815 0.680328 0)
(0.829472 0.705715 0)
(0.840584 0.737239 0)
(0.862466 0.774228 0)
(0.895585 0.816575 0)
(0.943804 0.862559 0)
(1.01127 0.911165 0)
(1.10412 0.955038 0)
(1.2223 0.984312 0)
(1.35603 0.996515 0)
(3 -2.20589e-14 0)
(3 -3.72579e-14 0)
(3 -2.49409e-14 0)
(3 -3.37258e-14 0)
(3 -6.07876e-14 0)
(3 -3.8843e-14 0)
(3 -2.61275e-14 0)
(3 -2.83342e-15 0)
(3 9.64279e-15 0)
(3 -3.73607e-14 0)
(3 -5.42146e-14 0)
(3 -8.81029e-14 0)
(3 -1.03257e-13 0)
(3 -5.50108e-14 0)
(3 6.40106e-15 0)
(3 1.20365e-14 0)
(3 -2.76531e-15 0)
(3 1.90907e-15 0)
(3 6.91758e-14 0)
(3 6.30086e-14 0)
(3 8.57046e-14 0)
(3 6.83734e-14 0)
(3 7.74241e-14 0)
(3 6.10057e-14 0)
(3 6.0906e-14 0)
(3 -2.60471e-13 0)
(3.00001 -3.06812e-06 0)
(2.89306 0.235407 0)
(1.16203 0.614447 0)
(0.963959 0.574278 0)
(0.940332 0.581126 0)
(0.920057 0.594535 0)
(0.903482 0.605002 0)
(0.891291 0.617814 0)
(0.881087 0.630612 0)
(0.875292 0.646489 0)
(0.870662 0.662455 0)
(0.868195 0.680094 0)
(0.867479 0.698467 0)
(0.87123 0.720324 0)
(0.882722 0.74723 0)
(0.904498 0.778847 0)
(0.937827 0.814918 0)
(0.986617 0.854162 0)
(1.05405 0.89469 0)
(1.14235 0.931995 0)
(1.25 0.957254 0)
(1.36494 0.966826 0)
(3 6.85064e-15 0)
(3 9.0913e-15 0)
(3 1.16615e-14 0)
(3 -2.90904e-14 0)
(3 -7.37672e-14 0)
(3 -8.41227e-14 0)
(3 -4.29368e-14 0)
(3 -2.40413e-14 0)
(3 -5.89676e-14 0)
(3 -1.24869e-13 0)
(3 -1.05686e-13 0)
(3 -9.37922e-14 0)
(3 -8.6312e-14 0)
(3 -7.916e-14 0)
(3 -2.28819e-14 0)
(3 -2.36078e-14 0)
(3 4.62568e-14 0)
(3 6.77216e-14 0)
(3 9.49314e-15 0)
(3 -1.29235e-14 0)
(3 2.06048e-14 0)
(3 3.30436e-14 0)
(3 1.24571e-13 0)
(3 1.57595e-13 0)
(3 1.7878e-13 0)
(3 1.72717e-13 0)
(3 -6.49946e-07 0)
(3.05391 0.0115152 0)
(1.40685 0.572381 0)
(0.991631 0.626035 0)
(0.962944 0.62116 0)
(0.939791 0.624472 0)
(0.925054 0.628612 0)
(0.914876 0.638224 0)
(0.906219 0.648362 0)
(0.902104 0.662161 0)
(0.900628 0.677505 0)
(0.902053 0.69488 0)
(0.905809 0.713238 0)
(0.912508 0.732939 0)
(0.924925 0.755703 0)
(0.94616 0.782267 0)
(0.978626 0.8121 0)
(1.02523 0.844256 0)
(1.08771 0.876382 0)
(1.16857 0.907305 0)
(1.26385 0.928824 0)
(1.36641 0.936517 0)
(3 2.97863e-14 0)
(3 1.97224e-14 0)
(3 -2.28729e-15 0)
(3 2.70295e-14 0)
(3 1.29608e-14 0)
(3 -1.68994e-14 0)
(3 -3.17776e-14 0)
(3 -9.39815e-14 0)
(3 -1.57371e-13 0)
(3 -8.65283e-14 0)
(3 -6.51812e-14 0)
(3 -6.83681e-14 0)
(3 -4.4262e-14 0)
(3 -4.65561e-14 0)
(3 -5.10316e-14 0)
(3 -6.22099e-14 0)
(3 -1.44996e-14 0)
(3 4.81536e-14 0)
(3 5.3345e-14 0)
(3 3.07084e-14 0)
(3 1.85651e-15 0)
(3 9.77288e-14 0)
(3 1.47564e-13 0)
(3 1.21343e-13 0)
(3 6.56214e-14 0)
(3 -9.13732e-15 0)
(3 -6.59648e-08 0)
(3.00161 -4.06545e-06 0)
(1.88042 0.56482 0)
(1.0009 0.66105 0)
(0.965063 0.637971 0)
(0.958584 0.643535 0)
(0.949981 0.646583 0)
(0.941409 0.654692 0)
(0.933972 0.663415 0)
(0.929971 0.675614 0)
(0.929794 0.690148 0)
(0.933429 0.707042 0)
(0.940419 0.725583 0)
(0.950963 0.745056 0)
(0.96512 0.765641 0)
(0.98683 0.788542 0)
(1.01914 0.813396 0)
(1.06323 0.839498 0)
(1.1201 0.864999 0)
(1.19312 0.88926 0)
(1.27836 0.906284 0)
(1.37135 0.912673 0)
(3 -3.01173e-15 0)
(3 3.12658e-15 0)
(3 2.60246e-14 0)
(3 3.16233e-14 0)
(3 3.30093e-14 0)
(3 6.40133e-15 0)
(3 -2.94279e-14 0)
(3 -3.49291e-14 0)
(3 -3.53173e-14 0)
(3 -1.11106e-14 0)
(3 -3.51991e-14 0)
(3 -9.34845e-14 0)
(3 -1.0159e-13 0)
(3 -4.74892e-14 0)
(3 -2.45339e-14 0)
(3 -3.83545e-14 0)
(3 -6.79187e-14 0)
(3 -3.19309e-14 0)
(3 -1.49042e-14 0)
(3 -2.56018e-14 0)
(3 5.83494e-14 0)
(3 1.03344e-13 0)
(3 7.95816e-14 0)
(3 6.59706e-14 0)
(3 -3.29542e-14 0)
(3 -1.01363e-13 0)
(3 -2.08851e-09 0)
(3 -1.36769e-07 0)
(2.75635 0.320343 0)
(1.1562 0.67342 0)
(1.00234 0.63725 0)
(0.991271 0.648182 0)
(0.981185 0.658821 0)
(0.971619 0.669052 0)
(0.963885 0.677955 0)
(0.959296 0.688901 0)
(0.958931 0.701836 0)
(0.963523 0.71745 0)
(0.971697 0.734726 0)
(0.985564 0.753769 0)
(1.00182 0.772769 0)
(1.02537 0.792232 0)
(1.05735 0.812724 0)
(1.09839 0.833489 0)
(1.14916 0.853016 0)
(1.21439 0.871399 0)
(1.28849 0.883713 0)
(1.37121 0.888283 0)
(3 3.51659e-16 0)
(3 4.27017e-14 0)
(3 3.93448e-14 0)
(3 2.18267e-14 0)
(3 2.48145e-14 0)
(3 6.27859e-14 0)
(3 7.3759e-14 0)
(3 6.49597e-14 0)
(3 7.35448e-14 0)
(3 4.80184e-14 0)
(3 1.83119e-14 0)
(3 -2.2687e-14 0)
(3 -5.84382e-14 0)
(3 -5.06833e-14 0)
(3 1.32588e-14 0)
(3 -1.42599e-14 0)
(3 -3.50532e-14 0)
(3 -4.30224e-14 0)
(3 -6.72494e-14 0)
(3 -4.34277e-14 0)
(3 -1.06512e-14 0)
(3 -3.76509e-14 0)
(3 -1.0033e-13 0)
(3 -3.94306e-14 0)
(3 -4.96595e-14 0)
(3 -5.30584e-14 0)
(3 -4.94824e-12 0)
(3 -1.74279e-07 0)
(3.06813 0.0224666 0)
(1.44368 0.638366 0)
(1.04662 0.682823 0)
(1.01347 0.679613 0)
(0.999657 0.68328 0)
(0.990823 0.69044 0)
(0.98597 0.696391 0)
(0.984193 0.705144 0)
(0.985667 0.715147 0)
(0.991559 0.728582 0)
(1.00068 0.743613 0)
(1.01591 0.761266 0)
(1.03471 0.779261 0)
(1.06031 0.79766 0)
(1.09262 0.815876 0)
(1.13155 0.833013 0)
(1.17844 0.848556 0)
(1.23739 0.862524 0)
(1.30262 0.87054 0)
(1.37677 0.873762 0)
(3 1.11321e-14 0)
(3 -1.31458e-15 0)
(3 -1.97931e-14 0)
(3 1.40705e-14 0)
(3 1.96508e-14 0)
(3 2.22877e-14 0)
(3 3.18688e-14 0)
(3 2.51225e-14 0)
(3 8.01246e-14 0)
(3 5.11884e-14 0)
(3 4.4896e-14 0)
(3 5.44692e-14 0)
(3 -3.3377e-15 0)
(3 -5.73947e-14 0)
(3 -4.81319e-14 0)
(3 -4.54464e-14 0)
(3 -1.6523e-14 0)
(3 1.70441e-14 0)
(3 -1.04221e-16 0)
(3 7.17023e-15 0)
(3 -3.38051e-14 0)
(3 -8.24168e-15 0)
(3 -5.68577e-15 0)
(3 3.49311e-14 0)
(3 4.05989e-14 0)
(3 4.88561e-14 0)
(3 -8.13345e-16 0)
(3 -3.72228e-08 0)
(3.0032 6.61203e-05 0)
(2.01054 0.60725 0)
(1.07365 0.72782 0)
(1.035 0.698405 0)
(1.02999 0.696735 0)
(1.02129 0.702766 0)
(1.01493 0.707801 0)
(1.01324 0.716272 0)
(1.01487 0.725373 0)
(1.02053 0.737754 0)
(1.02981 0.750316 0)
(1.04423 0.766057 0)
(1.06436 0.781982 0)
(1.09071 0.79846 0)
(1.12277 0.814406 0)
(1.16007 0.828659 0)
(1.20463 0.841142 0)
(1.25796 0.851559 0)
(1.31664 0.856801 0)
(1.38295 0.858631 0)
(3 -3.05066e-15 0)
(3 -1.97316e-14 0)
(3 -1.35263e-14 0)
(3 8.32829e-15 0)
(3 1.23522e-14 0)
(3 -3.22134e-14 0)
(3 -4.84225e-14 0)
(3 -1.5773e-14 0)
(3 4.29516e-14 0)
(3 1.74074e-14 0)
(3 -1.44524e-15 0)
(3 1.8019e-15 0)
(3 -3.3736e-14 0)
(3 -6.72552e-14 0)
(3 -4.73222e-14 0)
(3 -7.34209e-15 0)
(3 2.36116e-16 0)
(3 -1.57942e-15 0)
(3 3.52507e-14 0)
(3 1.3672e-14 0)
(3 -3.45505e-14 0)
(3 -7.1252e-14 0)
(3 -5.86096e-14 0)
(3 -3.35613e-14 0)
(3 1.81614e-14 0)
(3 3.79853e-14 0)
(3 4.89683e-15 0)
(3 -3.17314e-09 0)