/*--------------------------------*- C++ -*----------------------------------*\
  =========                 |
  \\      /  F ield         | OpenFOAM: The Open Source CFD Toolbox
   \\    /   O peration     | Website:  https://openfoam.org
    \\  /    A nd           | Version:  10
     \\/     M anipulation  |
\*---------------------------------------------------------------------------*/
FoamFile
{
    format      ascii;
    class       volScalarField;
    location    "69";
    object      p;
}
// * * * * * * * * * * * * * * * * * * * * * * * * * * * * * * * * * * * * * //

dimensions      [0 2 -2 0 0 0 0];

internalField   nonuniform List<scalar> 
2200
(
0.772037
0.750539
0.734636
0.718974
0.70437
0.691863
0.681525
0.67344
0.66776
0.66485
0.665387
0.669224
0.675599
0.684181
0.694878
0.707663
0.722464
0.7384
0.754448
0.775946
0.704457
0.7012
0.698278
0.694165
0.688712
0.68225
0.675649
0.669721
0.665253
0.662931
0.663435
0.666798
0.672004
0.678484
0.685487
0.692251
0.697918
0.702016
0.704868
0.708232
0.664517
0.664739
0.666805
0.668157
0.668556
0.667714
0.665749
0.663096
0.660587
0.659137
0.65975
0.66226
0.665582
0.668839
0.671189
0.6722
0.671935
0.670934
0.669291
0.669044
0.64201
0.643464
0.646062
0.648518
0.650973
0.653008
0.654184
0.654443
0.654108
0.653865
0.654561
0.655993
0.65724
0.657662
0.657001
0.655347
0.653203
0.651031
0.648428
0.647024
0.627618
0.62959
0.632414
0.635262
0.638136
0.640985
0.64347
0.645367
0.646637
0.647489
0.648295
0.648823
0.648636
0.647576
0.645745
0.643391
0.640856
0.63814
0.635354
0.633431
0.620236
0.621835
0.624045
0.626586
0.629268
0.631957
0.634577
0.637032
0.639104
0.640694
0.641639
0.64174
0.640961
0.639491
0.637634
0.635522
0.633211
0.630874
0.628778
0.627203
0.616758
0.61778
0.619057
0.620937
0.623102
0.625296
0.627528
0.629872
0.632155
0.634079
0.635202
0.6353
0.634598
0.633448
0.6321
0.630575
0.628902
0.627341
0.626234
0.625217
0.614031
0.6147
0.615339
0.616656
0.618292
0.62001
0.621805
0.62379
0.625937
0.627994
0.629359
0.629774
0.629538
0.628982
0.628255
0.62735
0.626328
0.625423
0.624986
0.624308
0.610706
0.61115
0.611555
0.612569
0.613857
0.615276
0.616824
0.618561
0.620511
0.6226
0.624246
0.625152
0.62551
0.625538
0.625317
0.624894
0.624351
0.623845
0.623669
0.623203
0.606561
0.606856
0.60722
0.608105
0.609241
0.610549
0.612036
0.613718
0.615625
0.617793
0.61982
0.621282
0.622179
0.622658
0.622823
0.622752
0.622505
0.622211
0.622096
0.62177
0.601737
0.601938
0.602315
0.603162
0.604282
0.60563
0.60721
0.609031
0.611115
0.613511
0.615977
0.617978
0.619339
0.620172
0.620609
0.620777
0.620718
0.62058
0.620491
0.62025
0.596405
0.59655
0.596928
0.597755
0.598924
0.600396
0.602167
0.604239
0.606656
0.609497
0.612516
0.615046
0.616825
0.61799
0.61868
0.619036
0.619192
0.619204
0.619148
0.618954
0.590629
0.590736
0.591119
0.591956
0.593214
0.594855
0.596875
0.599301
0.602193
0.605633
0.609292
0.612404
0.614641
0.616152
0.617142
0.61776
0.618133
0.618285
0.618274
0.618101
0.584447
0.584512
0.584904
0.585775
0.587138
0.58896
0.591247
0.594064
0.597523
0.601684
0.606171
0.609993
0.612767
0.614735
0.616124
0.617065
0.617687
0.617993
0.618024
0.617856
0.577679
0.577716
0.578142
0.57906
0.580579
0.582623
0.58523
0.588525
0.592676
0.597741
0.603168
0.607809
0.611282
0.613823
0.615691
0.61702
0.617914
0.61838
0.618461
0.618293
0.57028
0.570237
0.570676
0.57171
0.573456
0.575784
0.57878
0.582632
0.587553
0.593662
0.60025
0.605908
0.610251
0.613507
0.61596
0.61773
0.618934
0.619568
0.619697
0.619522
0.561955
0.561956
0.562389
0.563503
0.565495
0.56814
0.571607
0.576124
0.581954
0.589262
0.597305
0.604275
0.609643
0.613784
0.61691
0.619215
0.620773
0.621585
0.621771
0.621583
0.55249
0.552507
0.552964
0.554232
0.556526
0.559613
0.56372
0.569096
0.576068
0.584882
0.594515
0.603039
0.609678
0.614793
0.618699
0.62158
0.623541
0.624548
0.624786
0.624579
0.541527
0.541501
0.542076
0.543569
0.546207
0.549872
0.554798
0.561258
0.569631
0.58026
0.591958
0.602237
0.6103
0.616541
0.621315
0.624899
0.627317
0.628512
0.628795
0.628561
0.528426
0.528355
0.529044
0.530921
0.534148
0.538616
0.544627
0.552522
0.56273
0.575545
0.589621
0.601932
0.611613
0.61913
0.62492
0.62924
0.632142
0.633535
0.63385
0.633588
0.512981
0.51287
0.513645
0.515875
0.519861
0.525438
0.532906
0.542672
0.555219
0.570793
0.587566
0.60224
0.613686
0.622611
0.629495
0.634675
0.638099
0.639657
0.639982
0.639685
0.494199
0.494126
0.495148
0.497923
0.502857
0.509858
0.519293
0.531573
0.547116
0.566006
0.585929
0.60312
0.616506
0.626974
0.635093
0.641189
0.64511
0.646829
0.647131
0.646804
0.470949
0.470797
0.472134
0.475783
0.48226
0.491446
0.503651
0.519267
0.538514
0.561269
0.584812
0.60482
0.620348
0.632386
0.641748
0.648745
0.653123
0.654936
0.655172
0.654823
0.441091
0.441118
0.443233
0.448328
0.457153
0.469537
0.485615
0.505515
0.529233
0.556507
0.584062
0.607137
0.624857
0.638638
0.64935
0.657229
0.661946
0.663793
0.663925
0.66356
0.401718
0.401971
0.405539
0.41357
0.426401
0.443712
0.46511
0.490472
0.519604
0.552068
0.584019
0.610254
0.63029
0.645798
0.657777
0.66642
0.671323
0.673068
0.673076
0.672719
0.349252
0.34972
0.356846
0.370209
0.389641
0.414276
0.442751
0.474812
0.510199
0.548334
0.584834
0.614338
0.636627
0.653805
0.666998
0.676142
0.680837
0.682168
0.682032
0.681743
0.280732
0.283476
0.298782
0.320596
0.349013
0.382579
0.419277
0.458803
0.501027
0.545473
0.587069
0.620231
0.645238
0.664478
0.678884
0.688441
0.692755
0.693495
0.69339
0.693176
0.20273
0.212517
0.238094
0.269625
0.308254
0.351036
0.39599
0.443253
0.492775
0.543932
0.591112
0.628471
0.656592
0.677824
0.693616
0.703275
0.707005
0.707198
0.707213
0.707082
0.133226
0.147892
0.18006
0.220734
0.269092
0.320755
0.373827
0.42888
0.485649
0.543336
0.595939
0.637312
0.668017
0.691142
0.707826
0.717285
0.720599
0.720536
0.720684
0.720615
0.0803026
0.0939533
0.130759
0.177508
0.233377
0.292737
0.35331
0.4156
0.479208
0.543353
0.601313
0.646425
0.679547
0.704263
0.7218
0.731581
0.73436
0.734597
0.734846
0.734819
0.0364823
0.0493293
0.090172
0.140931
0.202291
0.267629
0.334626
0.403437
0.473423
0.54363
0.606555
0.65521
0.690987
0.717405
0.736043
0.746128
0.749324
0.74987
0.749908
0.749984
-0.0005346
0.0123264
0.0558157
0.109506
0.175223
0.245417
0.317936
0.392474
0.468143
0.543766
0.611458
0.663773
0.702038
0.730094
0.749986
0.760841
0.76442
0.764968
0.764979
0.76504
-0.0329466
-0.019824
0.0258342
0.0821306
0.151521
0.225765
0.302952
0.382379
0.463091
0.543889
0.616446
0.672206
0.712602
0.74237
0.763488
0.774599
0.778499
0.77908
0.779132
0.77918
-0.0614571
-0.0484715
-0.00106031
0.0576715
0.130246
0.207965
0.28919
0.372927
0.458365
0.544305
0.621409
0.68015
0.722648
0.753673
0.775684
0.787312
0.79142
0.792101
0.792143
0.792179
-0.0875033
-0.0744776
-0.0257695
0.0353171
0.110728
0.191534
0.276352
0.364042
0.453928
0.544524
0.625573
0.687245
0.731831
0.764145
0.786548
0.798619
0.803066
0.803821
0.803866
0.803883
-0.111415
-0.0983374
-0.0488
0.014508
0.0924225
0.176018
0.264108
0.3554
0.4492
0.543816
0.628876
0.693698
0.740176
0.773379
0.796159
0.808801
0.813335
0.8142
0.814237
0.814232
-0.133998
-0.120558
-0.0704106
-0.00512124
0.0749828
0.161129
0.252153
0.346556
0.443783
0.542367
0.631706
0.6995
0.747645
0.782014
0.804961
0.817772
0.822416
0.823332
0.823358
0.823333
-0.155262
-0.14157
-0.0908281
-0.0238216
0.0581554
0.146552
0.240121
0.337273
0.437744
0.540264
0.633666
0.704648
0.754778
0.789996
0.813142
0.82585
0.830402
0.831337
0.831342
0.831296
-0.175356
-0.161693
-0.110227
-0.0417949
0.0417413
0.132099
0.227926
0.327611
0.431126
0.537332
0.634763
0.709236
0.761587
0.797882
0.820966
0.83304
0.837494
0.838347
0.838342
0.838268
-0.194622
-0.180802
-0.128797
-0.059201
0.025649
0.117712
0.215555
0.317593
0.423935
0.53359
0.635064
0.713222
0.76833
0.805688
0.828527
0.840006
0.843853
0.844458
0.844429
0.844327
-0.21349
-0.199153
-0.146714
-0.0761338
0.00984335
0.103409
0.203077
0.307266
0.416168
0.52901
0.634494
0.716672
0.774916
0.814015
0.836544
0.846764
0.849596
0.849781
0.849736
0.849768
-0.231921
-0.21687
-0.164095
-0.0926324
-0.00565011
0.0892398
0.190506
0.296593
0.407786
0.523568
0.632956
0.719481
0.781488
0.82291
0.845493
0.854298
0.855036
0.8546
0.854275
0.854144
-0.249934
-0.23418
-0.181002
-0.108688
-0.0208112
0.0752232
0.17786
0.285588
0.39882
0.5173
0.630388
0.721468
0.787786
0.832661
0.856429
0.863286
0.861496
0.859903
0.859857
0.860967
-0.267319
-0.25104
-0.197425
-0.124295
-0.0356182
0.0613873
0.165153
0.274272
0.389329
0.51022
0.626675
0.72237
0.793737
0.843074
0.869584
0.875832
0.871091
0.864117
0.859463
0.858658
-0.284128
-0.267451
-0.213339
-0.139433
-0.0500598
0.0477477
0.152437
0.262745
0.379417
0.502416
0.62181
0.721948
0.79863
0.853919
0.885256
0.892793
0.887621
0.877427
0.878025
0.882201
-0.300283
-0.283272
-0.228681
-0.154085
-0.0641121
0.0343568
0.139793
0.251099
0.369161
0.493958
0.615789
0.719938
0.802232
0.864199
0.902372
0.914532
0.908285
0.879112
0.842178
0.81026
-0.315795
-0.298546
-0.243489
-0.168316
-0.0778712
0.0211003
0.127104
0.239196
0.358367
0.484621
0.608417
0.715928
0.803355
0.873035
0.920438
0.940249
0.947189
0.920077
0.937713
1.00039
-0.330586
-0.31324
-0.257829
-0.18227
-0.0915127
0.00777489
0.114117
0.226696
0.346567
0.47381
0.599084
0.709058
0.800987
0.877426
0.931209
0.956011
0.954522
0.924722
0.879759
0.897581
-0.344667
-0.327389
-0.271672
-0.195878
-0.104945
-0.00551861
0.100949
0.213718
0.33387
0.4616
0.587719
0.699008
0.79282
0.872728
0.928306
0.95388
0.931377
0.870865
0.80419
0.79097
-0.358
-0.340923
-0.284992
-0.209141
-0.118166
-0.0187714
0.0876084
0.200267
0.320284
0.447939
0.574131
0.685385
0.778484
0.855181
0.905842
0.905189
0.864152
0.781818
0.704616
0.678285
-0.370642
-0.353898
-0.297826
-0.222066
-0.131189
-0.032003
0.0740818
0.186352
0.305849
0.432862
0.558259
0.667907
0.756373
0.821794
0.847755
0.829281
0.763203
0.657769
0.567947
0.543142
-0.383012
-0.36664
-0.310525
-0.235018
-0.144365
-0.045522
0.0601025
0.171753
0.29039
0.416185
0.539803
0.645936
0.727269
0.776313
0.768755
0.729392
0.611246
0.484994
0.375022
0.345474
-0.395969
-0.380003
-0.323804
-0.248585
-0.158233
-0.0597976
0.0452721
0.156147
0.27366
0.397719
0.518536
0.619032
0.69311
0.716429
0.68163
0.587883
0.42759
0.271696
0.139686
0.109955
-0.410003
-0.394243
-0.337907
-0.263008
-0.172982
-0.0749526
0.029515
0.139499
0.255653
0.377467
0.494388
0.588076
0.651385
0.645246
0.591891
0.437137
0.234491
0.0196152
-0.16211
-0.212533
-0.425254
-0.409615
-0.352975
-0.278293
-0.188572
-0.0909572
0.0128593
0.121841
0.236425
0.355526
0.467362
0.554482
0.602464
0.564454
0.474992
0.284213
0.0516817
-0.23822
-0.559347
-0.709386
-0.441772
-0.426032
-0.369037
-0.294563
-0.205095
-0.10788
-0.00476078
0.103111
0.215923
0.33191
0.437668
0.518038
0.547634
0.479162
0.339746
0.132973
-0.101124
-0.445083
-1.02967
-1.60022
-0.459674
-0.443794
-0.386273
-0.311845
-0.22254
-0.125711
-0.0233151
0.0833794
0.194305
0.306988
0.406469
0.478686
0.488643
0.404033
0.209969
-0.0240303
-0.226618
-0.460671
-1.01157
-2.51129
-0.478953
-0.462736
-0.404664
-0.330311
-0.241115
-0.144662
-0.043046
0.0623725
0.171237
0.280401
0.373637
0.435987
0.424625
0.34492
0.116386
-0.121279
-0.269423
-0.306923
-0.295901
-0.679726
-0.499569
-0.483296
-0.424528
-0.350202
-0.261158
-0.16521
-0.0645687
0.0393207
0.145785
0.250847
0.338198
0.389717
0.361932
0.293852
0.0665034
-0.135564
-0.246585
-0.255023
-0.202366
-0.242352
-0.521387
-0.505005
-0.445687
-0.371652
-0.282841
-0.187528
-0.0880698
0.0140416
0.117728
0.218128
0.300287
0.341416
0.306915
0.239151
0.0339781
-0.126239
-0.20886
-0.21718
-0.264881
-0.268934
-0.54437
-0.528157
-0.468267
-0.394581
-0.306059
-0.211595
-0.113575
-0.0135324
0.0870459
0.182629
0.259741
0.290981
0.25896
0.177217
0.00555762
-0.116982
-0.187714
-0.164723
-0.18519
-0.186852
-0.568224
-0.551745
-0.491896
-0.418984
-0.330803
-0.237413
-0.141061
-0.0432982
0.0538657
0.144685
0.216825
0.237118
0.217464
0.10929
-0.0299524
-0.112522
-0.151833
-0.199995
-0.174123
-0.182788
-0.592914
-0.576032
-0.516674
-0.444579
-0.356687
-0.264744
-0.170289
-0.0750451
0.0183452
0.104703
0.172524
0.182234
0.174143
0.0479069
-0.06717
-0.130839
-0.108672
-0.168325
-0.148874
-0.153914
-0.617225
-0.600135
-0.542249
-0.471103
-0.383577
-0.293482
-0.201072
-0.108459
-0.0192905
0.0630086
0.127976
0.130025
0.121833
-0.00300209
-0.0939686
-0.145405
-0.132803
-0.148541
-0.153736
-0.152025
-0.640984
-0.62402
-0.56815
-0.497774
-0.41092
-0.323122
-0.232889
-0.143115
-0.0585125
0.0200405
0.0834941
0.081858
0.0646179
-0.0457751
-0.107624
-0.139345
-0.177516
-0.149113
-0.154774
-0.149178
-0.662961
-0.646725
-0.592897
-0.523763
-0.43866
-0.353321
-0.265392
-0.178538
-0.0985177
-0.0239882
0.0390119
0.0381179
0.00862049
-0.0800876
-0.120249
-0.113949
-0.186524
-0.129244
-0.144351
-0.136467
-0.682704
-0.667596
-0.615877
-0.548049
-0.466065
-0.383086
-0.297722
-0.214064
-0.138337
-0.0685109
-0.00599963
-0.00227079
-0.0360965
-0.098968
-0.127979
-0.0877687
-0.133575
-0.115419
-0.121511
-0.118227
-0.69844
-0.684944
-0.635887
-0.570269
-0.492255
-0.411726
-0.329345
-0.249068
-0.177048
-0.112785
-0.0512475
-0.0401896
-0.0677201
-0.100588
-0.116515
-0.0934877
-0.107278
-0.111299
-0.112593
-0.112753
-0.709493
-0.698141
-0.652482
-0.589497
-0.515424
-0.438037
-0.359081
-0.282519
-0.213841
-0.155614
-0.0956492
-0.075424
-0.0896446
-0.0964164
-0.10713
-0.117289
-0.110385
-0.114371
-0.112734
-0.113883
-0.714362
-0.705396
-0.66392
-0.604546
-0.534665
-0.461143
-0.386127
-0.313502
-0.247954
-0.195291
-0.136446
-0.109241
-0.117094
-0.0955609
-0.107977
-0.140198
-0.119433
-0.12427
-0.117835
-0.118817
-0.713187
-0.706322
-0.669247
-0.613893
-0.548436
-0.479466
-0.409039
-0.340693
-0.278654
-0.23007
-0.172734
-0.141316
-0.139774
-0.101909
-0.106079
-0.135852
-0.112607
-0.127605
-0.123863
-0.12581
-0.705007
-0.697738
-0.66573
-0.616155
-0.556208
-0.492342
-0.426761
-0.362668
-0.304159
-0.258208
-0.20338
-0.169363
-0.153884
-0.111068
-0.0574314
-0.0458477
-0.0555963
-0.0646905
-0.0682982
-0.07203
-0.684042
-0.675717
-0.652002
-0.610019
-0.556475
-0.498313
-0.438317
-0.378329
-0.322573
-0.277965
-0.226268
-0.187043
-0.166417
-0.163726
-0.167181
-0.207391
-0.220758
-0.215456
-0.207581
-0.200046
-0.64122
-0.633428
-0.625174
-0.595434
-0.550292
-0.498384
-0.443329
-0.386382
-0.33171
-0.286621
-0.236873
-0.191217
-0.230111
-0.323006
-0.517509
-0.686729
-0.701969
-0.683489
-0.624531
-0.568905
-0.600886
-0.598173
-0.596765
-0.573992
-0.537847
-0.492991
-0.442546
-0.387656
-0.331168
-0.281676
-0.232715
-0.164731
-0.186172
-0.273658
-0.394812
-0.431077
-0.378591
-0.311931
-0.269619
-0.247155
-0.577853
-0.579664
-0.569408
-0.556122
-0.527593
-0.486678
-0.437431
-0.382527
-0.321216
-0.260703
-0.204011
-0.094582
0.035231
0.226132
0.409209
0.593201
0.729042
0.8073
0.849927
0.887005
-0.546848
-0.546461
-0.54361
-0.542433
-0.518446
-0.481172
-0.432666
-0.375639
-0.308354
-0.232012
-0.153997
-0.0221602
0.182575
0.491545
0.787766
1.03683
1.21273
1.31391
1.36137
1.37671
-0.534989
-0.533102
-0.536179
-0.528389
-0.511819
-0.477495
-0.427887
-0.36783
-0.29656
-0.208275
-0.11163
0.0142481
0.244608
0.561084
0.867824
1.12551
1.31631
1.42679
1.47596
1.49229
-0.521728
-0.520093
-0.523393
-0.515231
-0.511049
-0.477475
-0.426588
-0.363127
-0.288031
-0.193198
-0.0880183
0.017545
0.236462
0.515046
0.78783
1.02354
1.20797
1.31919
1.36881
1.38246
-0.511325
-0.51126
-0.510646
-0.509725
-0.507524
-0.475984
-0.426623
-0.362998
-0.285884
-0.190055
-0.0860857
-0.00294596
0.182651
0.419705
0.645675
0.840572
0.997853
1.09415
1.13609
1.14634
-0.507465
-0.508551
-0.506993
-0.511751
-0.506357
-0.477835
-0.429212
-0.365969
-0.290099
-0.198562
-0.0994999
-0.0333865
0.113754
0.312935
0.494635
0.645852
0.767445
0.842941
0.874846
0.882565
-0.4988
-0.499809
-0.497701
-0.501749
-0.496198
-0.479588
-0.436089
-0.372685
-0.298481
-0.213317
-0.119748
-0.0641619
0.0459819
0.210009
0.353217
0.467069
0.556937
0.613851
0.637972
0.643196
-0.490998
-0.489269
-0.484711
-0.480294
-0.474191
-0.473956
-0.438444
-0.378258
-0.306615
-0.228953
-0.141118
-0.0915428
-0.0136606
0.118654
0.230266
0.315585
0.38161
0.424126
0.440395
0.444611
-0.508483
-0.504726
-0.499997
-0.495961
-0.494108
-0.491668
-0.444609
-0.381812
-0.310806
-0.241017
-0.159801
-0.11406
-0.0619057
0.0433828
0.129611
0.193372
0.242328
0.274181
0.285505
0.28974
-0.551193
-0.55056
-0.553248
-0.56013
-0.559005
-0.534643
-0.461472
-0.386236
-0.311293
-0.247199
-0.173784
-0.130909
-0.0964078
-0.0131963
0.0522766
0.0998033
0.137006
0.161244
0.170657
0.173108
-0.591434
-0.596753
-0.610925
-0.620236
-0.61614
-0.565553
-0.472442
-0.386201
-0.30522
-0.245643
-0.181283
-0.141402
-0.116876
-0.0515989
-0.00327254
0.0315664
0.0593253
0.0762373
0.0836584
0.0856063
-0.547576
-0.551473
-0.567278
-0.579057
-0.5777
-0.529532
-0.447006
-0.366048
-0.289895
-0.233985
-0.18059
-0.145565
-0.124363
-0.0752895
-0.0405872
-0.0153687
0.00355132
0.0142596
0.0184709
0.0190286
-0.398589
-0.406104
-0.417703
-0.427349
-0.427521
-0.402886
-0.359159
-0.310105
-0.25602
-0.21044
-0.170831
-0.14289
-0.123077
-0.0878023
-0.0635565
-0.0469323
-0.0357095
-0.030118
-0.0286735
-0.0292696
-0.229357
-0.233251
-0.23964
-0.247924
-0.253713
-0.251008
-0.24108
-0.225465
-0.200693
-0.175345
-0.151417
-0.132329
-0.115951
-0.0923277
-0.0768567
-0.06718
-0.0616449
-0.0599399
-0.0606012
-0.0617866
-0.0871765
-0.0892276
-0.0937417
-0.1021
-0.113262
-0.124556
-0.134918
-0.141667
-0.139835
-0.134601
-0.124713
-0.115071
-0.104982
-0.0910664
-0.0825347
-0.078319
-0.0769617
-0.0777113
-0.079392
-0.0808012
0.00808562
0.00642843
0.00312414
-0.00529349
-0.0202677
-0.0392356
-0.0585966
-0.0758375
-0.0869142
-0.0953141
-0.0951902
-0.0936863
-0.0910305
-0.0847074
-0.0819402
-0.0817931
-0.0831379
-0.0853418
-0.0873221
-0.0887306
0.0543678
0.0539504
0.0519962
0.0446353
0.0293358
0.00837091
-0.0135065
-0.0338491
-0.0491505
-0.063021
-0.067987
-0.0715149
-0.0753157
-0.0738705
-0.0758947
-0.0791034
-0.0822538
-0.08511
-0.087058
-0.0883453
0.0734705
0.0728985
0.0711721
0.0648577
0.0513247
0.0319494
0.0106779
-0.00994023
-0.026028
-0.040669
-0.0469737
-0.0524889
-0.0591303
-0.061642
-0.0669002
-0.0720007
-0.076151
-0.0793088
-0.0811226
-0.0822357
0.0746824
0.0742641
0.072916
0.0680111
0.0573267
0.0414785
0.0229094
0.0036096
-0.0121529
-0.0265424
-0.0328086
-0.0384822
-0.0453872
-0.0507124
-0.0572424
-0.0627934
-0.0671005
-0.0702136
-0.0717574
-0.0726844
0.0675473
0.0672644
0.06625
0.0626255
0.0546846
0.0426741
0.0279098
0.0113825
-0.00294154
-0.0169767
-0.0233313
-0.0284382
-0.0348515
-0.0409834
-0.0476006
-0.0528531
-0.0568604
-0.0596393
-0.0608201
-0.0615697
0.0572264
0.0570608
0.0563268
0.0537569
0.0480613
0.0392933
0.0282392
0.0152423
0.00357718
-0.00944374
-0.0161246
-0.0209199
-0.0264754
-0.0320533
-0.0381308
-0.0428797
-0.0464704
-0.0488885
-0.0498015
-0.0503934
0.0462126
0.0461348
0.0456241
0.0438963
0.0399436
0.0337056
0.0256772
0.0158701
0.00728444
-0.00370267
-0.00987099
-0.0143114
-0.0192312
-0.0240822
-0.0293954
-0.0334528
-0.0365447
-0.0386039
-0.0392888
-0.0397469
0.0357321
0.0357031
0.0353538
0.0342379
0.0315655
0.027254
0.0215458
0.0142635
0.00829162
-0.000194657
-0.00486242
-0.0084856
-0.0127316
-0.0169787
-0.0215828
-0.024995
-0.027521
-0.0291719
-0.0297231
-0.0301029
0.0262353
0.0262409
0.0259999
0.0253169
0.0235764
0.020727
0.0168294
0.0115375
0.00760279
0.00133882
-0.00174125
-0.00435941
-0.0076795
-0.011148
-0.0149759
-0.0177009
-0.0196597
-0.0209255
-0.0213339
-0.0216333
0.0177327
0.0177435
0.0175966
0.0172347
0.0161654
0.0143897
0.0119585
0.0082545
0.0059067
0.00146738
-0.000255628
-0.00184189
-0.00421011
-0.00672435
-0.00967722
-0.011708
-0.0131054
-0.0139449
-0.0142225
-0.0144831
0.00995292
0.00996422
0.00993348
0.00983458
0.00931594
0.00837029
0.00715402
0.00478793
0.00371945
0.000842355
0.000184572
-0.000634819
-0.00204977
-0.00348415
-0.0056441
-0.00694351
-0.00780225
-0.0082574
-0.0082892
-0.00848141
0.00311413
0.00312367
0.00315937
0.00325003
0.00319921
0.00292653
0.00267557
0.00151016
0.00147011
8.74864e-05
0.000211652
0.000106212
-0.000716728
-0.00106972
-0.00255124
-0.00336374
-0.00416201
-0.00464002
-0.00442736
-0.00442143
-1.07644
-0.241561
0.0282703
0.30252
0.481267
0.633814
0.754955
0.878822
1.01703
1.1024
-0.101441
0.302723
0.316776
0.503445
0.624145
0.732408
0.825115
0.908098
0.934758
0.893624
0.270595
0.482489
0.515192
0.650519
0.734023
0.811848
0.876105
0.924446
0.926129
0.940731
0.496737
0.63755
0.671773
0.77151
0.827752
0.883809
0.927873
0.959817
0.968689
0.992556
0.672026
0.771706
0.801334
0.867247
0.911505
0.951483
0.983157
1.00725
1.0169
1.04862
0.813472
0.881272
0.911365
0.953401
0.989079
1.01875
1.04275
1.06347
1.07745
1.10586
0.931447
0.981449
1.00679
1.03437
1.06168
1.08523
1.10504
1.12428
1.13908
1.16567
1.03449
1.07121
1.09211
1.11256
1.13315
1.15241
1.16976
1.18786
1.20272
1.22641
1.12804
1.157
1.17324
1.18841
1.20442
1.22042
1.23595
1.25285
1.26647
1.28879
1.21606
1.23646
1.25125
1.26438
1.27791
1.29165
1.30515
1.31974
1.33128
1.35092
1.30139
1.31715
1.33095
1.34275
1.35465
1.36629
1.37742
1.38909
1.39677
1.41356
1.38658
1.39912
1.41282
1.42456
1.4352
1.44499
1.45381
1.46207
1.46563
1.47686
1.47531
1.48614
1.49962
1.50913
1.5167
1.52399
1.53117
1.53763
1.53874
1.54609
1.57371
1.57833
1.58651
1.59124
1.59464
1.59911
1.60511
1.61275
1.61666
1.62654
1.68699
1.67388
1.66659
1.66088
1.65816
1.6595
1.66581
1.67817
1.69301
1.72268
1.80896
1.75292
1.7219
1.7047
1.69648
1.69641
1.70528
1.72491
1.75668
1.82596
)
;

boundaryField
{
    wall-4
    {
        type            zeroGradient;
    }
    pressure-outlet-7
    {
        type            fixedValue;
        value           uniform 0;
    }
    velocity-inlet-6
    {
        type            zeroGradient;
    }
    velocity-inlet-5
    {
        type            zeroGradient;
    }
    frontAndBackPlanes
    {
        type            empty;
    }
}


// ************************************************************************* //
