/*--------------------------------*- C++ -*----------------------------------*\
  =========                 |
  \\      /  F ield         | OpenFOAM: The Open Source CFD Toolbox
   \\    /   O peration     | Website:  https://openfoam.org
    \\  /    A nd           | Version:  10
     \\/     M anipulation  |
\*---------------------------------------------------------------------------*/
FoamFile
{
    format      ascii;
    class       surfaceScalarField;
    location    "69";
    object      phi;
}
// * * * * * * * * * * * * * * * * * * * * * * * * * * * * * * * * * * * * * //

dimensions      [0 3 -1 0 0 0 0];

internalField   nonuniform List<scalar> 
4262
(
0.107135
0.470853
0.0955713
0.705149
0.0693867
0.858488
0.0473719
1.02078
0.0309883
1.2149
0.0197725
1.44944
0.0123507
1.73329
0.00714056
2.07625
0.00320941
2.48917
-0.000575912
2.98608
-0.00430247
2.98602
-0.00806769
2.48901
-0.0130475
2.07602
-0.0201871
1.733
-0.0311084
1.44914
-0.0471614
1.21457
-0.0689108
1.02051
-0.0951841
0.858576
-0.107061
0.705463
0.470927
0.112857
0.357996
0.135251
0.682756
0.120347
0.873391
0.097801
1.04332
0.0745504
1.23815
0.0528138
1.47117
0.0344242
1.75167
0.0202184
2.09045
0.00894288
2.50045
-0.000957309
2.99598
-0.011064
2.99613
-0.0223636
2.50031
-0.0364921
2.09014
-0.0547957
1.75131
-0.0766472
1.47099
-0.100388
1.23831
-0.12355
1.04367
-0.137046
0.872072
-0.113578
0.681995
0.357349
0.0920345
0.265962
0.124949
0.649842
0.121061
0.877278
0.104754
1.05963
0.0860886
1.25682
0.0669485
1.49031
0.0479469
1.77068
0.0298223
2.10858
0.0131455
2.51713
-0.00290728
3.01203
-0.0185902
3.01181
-0.0344398
2.51616
-0.0518957
2.1076
-0.0703004
1.76971
-0.0885911
1.48928
-0.105755
1.25547
-0.119845
1.05776
-0.125252
0.877479
-0.0923692
0.649112
0.26498
0.0639658
0.201996
0.104765
0.609043
0.106526
0.875517
0.0951391
1.07102
0.0811955
1.27076
0.0664344
1.50507
0.0503187
1.78679
0.0331927
2.1257
0.0155768
2.53474
-0.00312062
3.03073
-0.0216168
3.0303
-0.0390302
2.53357
-0.0555379
2.12411
-0.0707563
1.78493
-0.0845575
1.50308
-0.0982661
1.26918
-0.110035
1.06953
-0.107032
0.874477
-0.0648994
0.606979
0.200081
0.0374628
0.164533
0.0806647
0.565841
0.0908933
0.865289
0.0836433
1.07827
0.0709861
1.28342
0.0590939
1.51697
0.0460098
1.79988
0.03093
2.14078
0.0138047
2.55187
-0.00538155
3.04991
-0.0240212
3.04894
-0.0398274
2.54938
-0.0536292
2.13791
-0.0657343
1.79703
-0.0769984
1.51435
-0.0889305
1.28112
-0.0952453
1.07585
-0.0833653
0.862597
-0.0384553
0.562069
0.161625
0.0194347
0.145098
0.0571156
0.52816
0.0724727
0.849931
0.0703511
1.08039
0.0615363
1.29223
0.0506479
1.52785
0.0394923
1.81103
0.0269269
2.15335
0.0119761
2.56682
-0.00571575
3.06761
-0.0231835
3.06641
-0.0376653
2.56386
-0.0492479
2.14949
-0.0591114
1.8069
-0.0688946
1.52413
-0.0765045
1.28873
-0.0772971
1.07664
-0.0601223
0.845422
-0.0204228
0.522369
0.141203
0.0105963
0.134502
0.0422609
0.496495
0.0583148
0.833878
0.0585414
1.08016
0.0523323
1.29844
0.0428946
1.53729
0.0324126
1.82151
0.020863
2.1649
0.00733607
2.58035
-0.00865869
3.0836
-0.0238733
3.08163
-0.0355362
2.57552
-0.0452267
2.15918
-0.0541394
1.81581
-0.0620469
1.53204
-0.0665596
1.29324
-0.0645333
1.07461
-0.0460458
0.826934
-0.0117436
0.488067
0.129459
0.00653603
0.127966
0.0328301
0.470201
0.0490106
0.817697
0.0504544
1.07872
0.045336
1.30356
0.0369476
1.54568
0.0273025
1.83116
0.0165014
2.1757
0.00455307
2.59229
-0.00937932
3.09753
-0.0230967
3.09534
-0.0341384
2.58656
-0.0433228
2.16837
-0.050889
1.82338
-0.0573187
1.53847
-0.0604462
1.29637
-0.0567291
1.0709
-0.0374579
0.807663
-0.00794185
0.458551
0.121517
0.00467291
0.123293
0.0264241
0.44845
0.0421469
0.801974
0.0441726
1.07669
0.0394092
1.30832
0.0316043
1.55348
0.0223129
1.84045
0.0115627
2.18645
-0.000298393
2.60416
-0.0134222
3.11066
-0.0251143
3.10704
-0.0344814
2.59593
-0.042618
2.1765
-0.0495345
1.83029
-0.0549528
1.54389
-0.0571325
1.29855
-0.0519934
1.06576
-0.0321905
0.78786
-0.00642035
0.432781
0.115097
0.00369745
0.119596
0.0215148
0.430633
0.0365244
0.786965
0.0391985
1.07402
0.0348147
1.31271
0.0274418
1.56086
0.0186294
1.84926
0.008578
2.1965
-0.00270124
2.61543
-0.0149753
3.12293
-0.0266701
3.11873
-0.0362922
2.60555
-0.0437087
2.18392
-0.0495285
1.83611
-0.0540937
1.54845
-0.0552206
1.29967
-0.0487241
1.05926
-0.0285629
0.767699
-0.00584276
0.410061
0.109254
0.0029923
0.116603
0.0173568
0.416268
0.0311418
0.77318
0.0339568
1.07121
0.0296437
1.31702
0.0223087
1.56819
0.0135072
1.85806
0.00325903
2.20675
-0.00823855
2.62693
-0.0204101
3.1351
-0.0309918
3.12931
-0.0388484
2.61341
-0.0453262
2.1904
-0.0505999
1.84139
-0.0543066
1.55216
-0.0542811
1.29965
-0.0462878
1.05127
-0.0259283
0.74734
-0.00561167
0.389744
0.103642
0.00231288
0.11429
0.0136232
0.404958
0.0260381
0.760765
0.0290244
1.06822
0.0249771
1.32107
0.0178988
1.57527
0.00942867
1.86653
-0.000184173
2.21636
-0.0110538
2.6378
-0.0232972
3.14735
-0.0342962
3.14031
-0.0425397
2.62165
-0.0482277
2.19609
-0.0522649
1.84542
-0.0548096
1.5547
-0.0540667
1.2989
-0.0446245
1.04183
-0.0240784
0.726794
-0.0054907
0.371156
0.0981517
0.0016349
0.112656
0.0103123
0.396281
0.0209415
0.750136
0.0234038
1.06576
0.0191178
1.32535
0.0118402
1.58255
0.002973
1.8754
-0.00734956
2.22668
-0.0188329
2.64929
-0.0304498
3.15896
-0.0399362
3.1498
-0.0464253
2.62814
-0.0511878
2.20085
-0.0548171
1.84905
-0.056469
1.55636
-0.0547076
1.29714
-0.0438876
1.03101
-0.0229615
0.705867
-0.00545641
0.353651
0.0926953
0.000740182
0.111915
0.00680383
0.390217
0.0156674
0.741272
0.0176208
1.0638
0.0130581
1.32992
0.00555656
1.59005
-0.00326842
1.88423
-0.0129094
2.23632
-0.0233775
2.65975
-0.0352283
3.17081
-0.045416
3.15999
-0.051883
2.63461
-0.0555886
2.20455
-0.0581244
1.85159
-0.0587811
1.55701
-0.0559608
1.29432
-0.0437114
1.01876
-0.0223141
0.68447
-0.00543951
0.336777
0.0872558
0.000101903
0.111813
0.00400202
0.386317
0.0106475
0.734627
0.011612
1.06284
0.00657933
1.33495
-0.00135861
1.59799
-0.0109711
1.89384
-0.0219719
2.24733
-0.034095
2.67188
-0.045683
3.1824
-0.0536884
3.16799
-0.0584057
2.63933
-0.0614504
2.2076
-0.0633699
1.85351
-0.0630333
1.55668
-0.0585805
1.28987
-0.0445159
1.00469
-0.0222748
0.662229
-0.0055393
0.320041
0.0817165
-0.000887721
0.112701
0.000313758
0.385115
0.00473673
0.730204
0.00453142
1.06304
-0.00131383
1.34079
-0.0101895
1.60686
-0.0204531
1.9041
-0.0312374
2.25811
-0.0419788
2.68262
-0.0526925
3.19312
-0.0614997
3.1768
-0.0662774
2.6441
-0.0681578
2.20948
-0.0691182
1.85447
-0.0679368
1.55549
-0.0618354
1.28377
-0.0459139
0.98877
-0.0226309
0.638946
-0.00568725
0.303098
0.0760293
-0.00183875
0.11454
-0.00298178
0.386258
-0.00149857
0.72872
-0.00324303
1.06479
-0.00988687
1.34744
-0.0192813
1.61626
-0.0302067
1.91503
-0.042428
2.27033
-0.0555738
2.69576
-0.0676329
3.20517
-0.0745359
3.1837
-0.0774504
2.64702
-0.0788179
2.21085
-0.0782636
1.85392
-0.0752116
1.55244
-0.0670431
1.2756
-0.0486343
0.970362
-0.0236984
0.61401
-0.00601687
0.285416
0.0700124
-0.00314704
0.117687
-0.00666095
0.389772
-0.00863939
0.730699
-0.0123285
1.06848
-0.020224
1.35533
-0.0310929
1.62713
-0.0434743
1.92741
-0.0564961
2.28335
-0.0688952
2.70816
-0.0791217
3.2154
-0.0857595
3.19034
-0.0886257
2.64989
-0.0884545
2.21068
-0.0872807
1.85274
-0.0834546
1.54862
-0.0730301
1.26518
-0.0519381
0.94927
-0.0250988
0.587171
-0.00638292
0.2667
0.0636295
-0.00451828
0.122205
-0.0110014
0.396255
-0.0163511
0.736049
-0.022972
1.0751
-0.0322681
1.36463
-0.0442982
1.63916
-0.0576538
1.94077
-0.0719035
2.2976
-0.0861932
2.72245
-0.0990063
3.22821
-0.105305
3.19664
-0.106157
2.65074
-0.104729
2.20925
-0.101078
1.84909
-0.0946823
1.54222
-0.0815135
1.25201
-0.0568816
0.924638
-0.0272039
0.557493
-0.00689819
0.246394
0.0567313
-0.00588853
0.128094
-0.0158426
0.406209
-0.0251936
0.7454
-0.0346653
1.08457
-0.046258
1.37622
-0.0606032
1.6535
-0.0762418
1.9564
-0.0923797
2.31374
-0.1074
2.73747
-0.117922
3.23874
-0.12173
3.20045
-0.121998
2.651
-0.119323
2.20657
-0.115165
1.84493
-0.107633
1.53469
-0.0909859
1.23536
-0.0622734
0.895925
-0.0294877
0.524707
-0.00739708
0.224304
0.0493342
-0.00826825
0.136362
-0.0229935
0.420935
-0.0380126
0.760419
-0.0508707
1.09743
-0.0641711
1.38952
-0.0803415
1.66967
-0.0977647
1.97383
-0.115343
2.33132
-0.131115
2.75324
-0.143116
3.25074
-0.148157
3.20549
-0.146303
2.64915
-0.141692
2.20196
-0.134727
1.83797
-0.123562
1.52352
-0.102946
1.21474
-0.0692595
0.862239
-0.032202
0.48765
-0.00791618
0.200018
0.041418
-0.0107029
0.147065
-0.0299717
0.440203
-0.0507007
0.781148
-0.0687641
1.11549
-0.0859757
1.40673
-0.105251
1.68895
-0.125551
1.99413
-0.145522
2.35129
-0.162813
2.77054
-0.173874
3.2618
-0.174829
3.20644
-0.170509
2.64483
-0.163995
2.19545
-0.155439
1.82941
-0.142107
1.51019
-0.116262
1.1889
-0.0763372
0.822315
-0.0347179
0.446031
-0.00830398
0.173604
0.033114
-0.0154102
0.162475
-0.0423481
0.467141
-0.0700461
0.808846
-0.0928237
1.13827
-0.113488
1.4274
-0.136578
1.71204
-0.159708
2.01726
-0.181038
2.37262
-0.197532
2.78703
-0.206268
3.27053
-0.206288
3.20646
-0.201108
2.63965
-0.192876
2.18721
-0.181751
1.81829
-0.16336
1.4918
-0.131551
1.15709
-0.0845523
0.775316
-0.0371793
0.398658
-0.00856814
0.144993
0.0245459
-0.0196558
0.182131
-0.0556214
0.503107
-0.0933014
0.846526
-0.124092
1.16906
-0.150884
1.45419
-0.178255
1.73941
-0.203968
2.04297
-0.226084
2.39474
-0.242115
2.80306
-0.249216
3.27763
-0.245555
3.2028
-0.235382
2.62948
-0.223065
2.1749
-0.208734
1.80396
-0.186839
1.46991
-0.147228
1.11748
-0.0911777
0.719266
-0.0383821
0.345862
-0.00832906
0.11494
0.0162168
-0.0329391
0.21507
-0.0823716
0.55254
-0.130521
0.894675
-0.167958
1.2065
-0.200155
1.48639
-0.231753
1.77101
-0.258413
2.06963
-0.279476
2.4158
-0.292257
2.81584
-0.293683
3.27906
-0.284459
3.19358
-0.272307
2.61733
-0.25954
2.16213
-0.242275
1.78669
-0.212666
1.4403
-0.163732
1.06854
-0.0983045
0.653838
-0.0393716
0.286929
-0.00801111
0.0835794
0.00820574
-0.0472854
0.262355
-0.121387
0.626641
-0.185475
0.958763
-0.231331
1.25235
-0.26972
1.52478
-0.30231
1.8036
-0.326977
2.0943
-0.344277
2.4331
-0.352153
2.82372
-0.348124
3.27503
-0.334599
3.18005
-0.317138
2.59987
-0.29758
2.14257
-0.27447
1.76358
-0.238285
1.40411
-0.17755
1.00781
-0.0998806
0.576169
-0.0375111
0.22456
-0.00765404
0.0537223
0.000551706
-0.0343983
0.296754
-0.0986576
0.6909
-0.157603
1.01771
-0.206152
1.3009
-0.250614
1.56924
-0.290478
1.84346
-0.328056
2.13187
-0.362486
2.46753
-0.390112
2.85134
-0.407869
3.29279
-0.410244
3.18243
-0.402562
2.59218
-0.390228
2.13024
-0.364576
1.73793
-0.309321
1.34886
-0.218487
0.916975
-0.113525
0.471207
-0.041384
0.152418
-0.0089574
0.0212957
-0.00840569
-0.0124994
0.309253
-0.047697
0.726097
-0.0903033
1.06032
-0.130553
1.34115
-0.170557
1.60924
-0.206794
1.8797
-0.240916
2.166
-0.271055
2.49767
-0.293851
2.87414
-0.303714
3.30265
-0.298264
3.17698
-0.286644
2.58057
-0.266959
2.11055
-0.23552
1.70649
-0.187782
1.30112
-0.120887
0.85008
-0.0553378
0.405658
-0.0208335
0.117914
-0.00484416
0.00530638
-0.0132499
-0.000240305
0.309493
-0.0243497
0.750207
-0.0542047
1.09017
-0.0854385
1.37239
-0.118277
1.64208
-0.149914
1.91134
-0.179415
2.1955
-0.204625
2.52288
-0.221822
2.89134
-0.227007
3.30784
-0.220468
3.17044
-0.203048
2.56315
-0.179939
2.08744
-0.151768
1.67832
-0.109603
1.25895
-0.0587963
0.799274
-0.0228975
0.369759
-0.00977911
0.104796
-0.00291943
-0.0015533
-0.0161693
0.0010251
0.308468
-0.0135927
0.764825
-0.0348059
1.11138
-0.0590388
1.39662
-0.0851413
1.66818
-0.112026
1.93822
-0.137473
2.22094
-0.158721
2.54413
-0.172474
2.90509
-0.174013
3.30938
-0.161148
3.15757
-0.141185
2.54318
-0.116447
2.06271
-0.0831323
1.64501
-0.0485199
1.22434
-0.0189454
0.769699
-0.00421043
0.355024
-0.0022912
0.102876
-0.00142767
-0.00241683
-0.017597
0.00501752
0.303451
-0.00303611
0.772878
-0.021586
1.12993
-0.0434285
1.41846
-0.0661005
1.69085
-0.0883698
1.96049
-0.109372
2.24195
-0.126881
2.56163
-0.137239
2.91545
-0.135619
3.30776
-0.121013
3.14297
-0.0981432
2.52031
-0.0702057
2.03477
-0.0438761
1.61868
-0.0145875
1.19505
0.00796007
0.747152
0.0106134
0.352371
0.00495807
0.108532
0.000890249
0.00165099
-0.0167067
0.00515339
0.298297
-0.000831368
0.778863
-0.0162881
1.14539
-0.0340363
1.43621
-0.0530034
1.70982
-0.0725408
1.98003
-0.09133
2.26073
-0.106792
2.5771
-0.11519
2.92385
-0.112038
3.3046
-0.095478
3.12641
-0.0719701
2.4968
-0.0470139
2.00981
-0.0173418
1.589
0.00657722
1.17113
0.018233
0.735496
0.0170341
0.35357
0.00865473
0.116911
0.00209243
0.00821329
-0.0146143
0.00510338
0.293194
0.00159598
0.78237
-0.0114517
1.15844
-0.0284328
1.45319
-0.0462385
1.72763
-0.0637378
1.99753
-0.0800917
2.27709
-0.0933339
2.59034
-0.100219
2.93073
-0.0964399
3.30082
-0.0797022
3.10967
-0.0553763
2.47248
-0.0286412
1.98308
-0.00696293
1.56733
0.0125917
1.15158
0.0238513
0.724236
0.0195013
0.35792
0.0101268
0.126286
0.00267033
0.0156697
-0.0119439
0.00274705
0.290447
-0.000455567
0.785573
-0.0116755
1.16966
-0.0259522
1.46747
-0.0416214
1.7433
-0.0576925
2.0136
-0.0730983
2.29249
-0.085792
2.60303
-0.0926133
2.93755
-0.0888289
3.29704
-0.0719562
3.0928
-0.0503867
2.45091
-0.0277271
1.96042
-0.00157993
1.54118
0.0167474
1.13325
0.0231226
0.717861
0.0194228
0.361619
0.0103329
0.135375
0.00287669
0.0231259
-0.00906726
0.00186272
0.288584
-0.00043997
0.787876
-0.0109918
1.18021
-0.0246375
1.48111
-0.0398777
1.75854
-0.0550487
2.02877
-0.0694658
2.30691
-0.0816228
2.61519
-0.0886489
2.94458
-0.0857689
3.29416
-0.0699425
3.07697
-0.0481528
2.42912
-0.02412
1.93638
-0.00536651
1.52242
0.0114673
1.11642
0.0207965
0.708532
0.0170379
0.365378
0.00935127
0.143062
0.00270476
0.0297724
-0.0063625
-0.000491532
0.289076
-0.00436968
0.791754
-0.0133731
1.18921
-0.0251849
1.49292
-0.0389425
1.77229
-0.0533423
2.04317
-0.0676696
2.32124
-0.0802697
2.62779
-0.0878829
2.95219
-0.0856303
3.29191
-0.0710461
3.06239
-0.0523925
2.41047
-0.0329595
1.91695
-0.00926296
1.49873
0.00776589
1.09939
0.0141484
0.702149
0.0131616
0.366365
0.00739641
0.148827
0.00225912
0.0349097
-0.00410338
-0.000854364
0.28993
-0.0049334
0.795833
-0.0138862
1.19817
-0.0255398
1.50458
-0.0391123
1.78587
-0.0531927
2.05725
-0.0672332
2.33528
-0.0797501
2.64031
-0.0880831
2.96052
-0.0880777
3.2919
-0.0760887
3.0504
-0.0563552
2.39073
-0.0339975
1.89459
-0.0171397
1.48187
-0.00137731
1.08363
0.00883966
0.691932
0.00873195
0.366472
0.00539169
0.152168
0.00177221
0.0385292
-0.00233116
-0.00248101
0.292411
-0.00787672
0.801229
-0.0163129
1.2066
-0.0269685
1.51523
-0.0395447
1.79844
-0.0530802
2.07079
-0.0670949
2.34929
-0.0803314
2.65354
-0.0901879
2.97038
-0.0917841
3.2935
-0.080768
3.03938
-0.0638925
2.37386
-0.0457465
1.87645
-0.0233504
1.45947
-0.00678451
1.06706
0.00110946
0.684038
0.0045784
0.363003
0.00327074
0.153475
0.00125026
0.0405497
-0.0010809
-0.00348476
0.295896
-0.00827562
0.806019
-0.0167343
1.21506
-0.0274839
1.52598
-0.0399789
1.81094
-0.0533148
2.08412
-0.0673513
2.36333
-0.0809797
2.66717
-0.0919213
2.98132
-0.0959447
3.29752
-0.088307
3.03174
-0.0714366
2.35699
-0.0484659
1.85348
-0.0312072
1.44222
-0.0150536
1.05091
-0.00270811
0.671693
0.000833066
0.359462
0.00167651
0.152632
0.000786205
0.04144
-0.000294698
-0.00409813
0.299994
-0.010223
0.812144
-0.0185513
1.22339
-0.0286073
1.53604
-0.0404142
1.82274
-0.0533795
2.09709
-0.0674665
2.37742
-0.0818151
2.68152
-0.0943705
2.99388
-0.100764
3.30391
-0.0950909
3.02607
-0.0796432
2.34154
-0.0608523
1.83469
-0.036476
1.41784
-0.0178776
1.03231
-0.00737876
0.661194
-0.00148344
0.353567
0.000294973
0.150853
0.000506524
0.0412284
0.000211825
-0.0040693
0.304063
-0.0100747
0.81815
-0.0184756
1.23179
-0.0286139
1.54618
-0.0403934
1.83452
-0.0532549
2.10995
-0.0674805
2.39164
-0.0822968
2.69634
-0.0960296
3.00761
-0.105063
3.31295
-0.103233
3.02424
-0.0885793
2.32688
-0.0641347
1.81024
-0.0425027
1.39621
-0.0221839
1.01199
-0.00726338
0.646274
-0.00181223
0.348116
-0.000155873
0.149197
-0.00047589
0.0415484
-0.000264067
-0.00425384
0.308317
-0.0111874
0.825083
-0.0194932
1.2401
-0.0290947
1.55578
-0.0403724
1.8458
-0.05298
2.12256
-0.0672117
2.40587
-0.0825606
2.71169
-0.0977426
3.02279
-0.109117
3.32432
-0.109154
3.02428
-0.0964975
2.31423
-0.0766992
1.79044
-0.0464651
1.36597
-0.0207154
0.98624
-0.00537708
0.630935
0.00337183
0.339367
0.00467215
0.147897
0.00251986
0.0437007
0.00225579
-0.00416613
0.312483
-0.0107149
0.831632
-0.0189046
1.24829
-0.0285463
1.56542
-0.0397686
1.85702
-0.0522518
2.13504
-0.0665649
2.42019
-0.0823185
2.72744
-0.0985493
3.03902
-0.112403
3.33818
-0.11692
3.02879
-0.106326
2.30363
-0.0807024
1.76482
-0.0517556
1.33703
-0.0202743
0.954758
0.00350419
0.607157
0.0126303
0.330241
0.00745353
0.153074
-0.00159954
0.0527538
0.000656252
-0.00430974
0.316793
-0.01133
0.838652
-0.0193193
1.25627
-0.0284577
1.57456
-0.0392094
1.86778
-0.0514387
2.14727
-0.0656643
2.43441
-0.0817608
2.74354
-0.0991132
3.05638
-0.114964
3.35403
-0.12158
3.03541
-0.113612
2.29567
-0.0941687
1.74538
-0.0568066
1.29966
-0.0150495
0.913001
0.0185553
0.573552
0.0423457
0.30645
0.047916
0.147503
0.0292651
0.0714046
0.0299213
-0.00416452
0.320958
-0.010672
0.84516
-0.0184195
1.26402
-0.0274916
1.58363
-0.0380845
1.87837
-0.050105
2.15929
-0.0643058
2.44861
-0.0806816
2.75991
-0.0988025
3.0745
-0.116755
3.37198
-0.127645
3.0463
-0.123822
2.29184
-0.100024
1.72158
-0.0645495
1.26419
-0.0151848
0.863637
0.0320872
0.52628
0.0665786
0.271959
0.0552273
0.158855
0.0239647
0.102667
0.0538861
-0.0041305
0.325088
-0.0109267
0.851956
-0.0184336
1.27153
-0.0269692
1.59217
-0.0371022
1.8885
-0.048842
2.17103
-0.062878
2.46265
-0.0793946
2.77643
-0.0982674
3.09337
-0.117832
3.39154
-0.130036
3.0585
-0.12997
2.29178
-0.115503
1.70711
-0.0754759
1.22416
-0.0193671
0.807528
0.0514202
0.455493
0.14637
0.177009
0.208267
0.0969578
0.186735
0.124199
0.240621
-0.00397093
0.329059
-0.0103328
0.858318
-0.0177676
1.27896
-0.0265039
1.6009
-0.0369541
1.89895
-0.0491547
2.18323
-0.0641312
2.47763
-0.0822638
2.79456
-0.103712
3.11482
-0.127725
3.41556
-0.146735
3.07751
-0.153216
2.29826
-0.136163
1.69006
-0.0993485
1.18735
-0.0328648
0.741044
0.0266526
0.395975
-0.04242
0.246082
-0.352389
0.406927
-0.945765
0.717575
0.902468
-1.60761
-0.00387568
0.332935
-0.0104813
0.864924
-0.0177828
1.28627
-0.0261956
1.60932
-0.0364344
1.90919
-0.048759
2.19555
-0.0641583
2.49303
-0.0832306
2.81363
-0.106602
3.13819
-0.134034
3.44299
-0.157139
3.10062
-0.168085
2.3092
-0.169476
1.69145
-0.138656
1.15653
-0.100841
0.703229
-0.204244
0.499378
-0.693959
0.735796
-1.45552
1.16848
-2.05983
1.32189
1.21549
-2.37285
-0.00364138
0.336576
-0.00968439
0.870967
-0.0167316
1.29331
-0.0251483
1.61773
-0.0354125
1.91945
-0.0478403
2.20798
-0.0636802
2.50887
-0.0837299
2.83368
-0.108997
3.16346
-0.140429
3.47442
-0.171151
3.13134
-0.191815
2.32987
-0.193009
1.69264
-0.170786
1.1343
-0.256471
0.788915
-0.752778
0.995685
-1.56089
1.54391
-2.11763
1.72522
-2.35477
1.55903
1.32892
-2.4682
-0.0035412
0.340117
-0.00961029
0.877036
-0.0164542
1.30016
-0.0245087
1.62579
-0.0345095
1.92946
-0.0470063
2.22048
-0.0631766
2.52504
-0.0840437
2.85455
-0.111156
3.19057
-0.146141
3.50941
-0.18202
3.16722
-0.209314
2.35716
-0.230087
1.71342
-0.301611
1.20583
-0.67297
1.16027
-1.44751
1.77022
-2.03239
2.12879
-2.27065
1.96349
-2.38299
1.67136
1.39218
-2.44624
-0.00322684
0.343344
-0.00865581
0.882465
-0.0151423
1.30664
-0.0231143
1.63376
-0.0331277
1.93947
-0.0456443
2.233
-0.0621081
2.5415
-0.0838005
2.87624
-0.112698
3.21947
-0.151824
3.54853
-0.196464
3.21186
-0.237154
2.39785
-0.271989
1.74825
-0.454237
1.38808
-1.09761
1.80365
-1.79491
2.46752
-2.11081
2.44469
-2.25773
2.1104
-2.33945
1.75308
1.45832
-2.40559
-0.00323469
0.346579
-0.00890358
0.888134
-0.0154358
1.31318
-0.0232988
1.64162
-0.0334206
1.94959
-0.0462766
2.24585
-0.0632899
2.55851
-0.0859371
2.89889
-0.116711
3.25024
-0.15935
3.59117
-0.209636
3.26215
-0.252893
2.44111
-0.337817
1.83318
-0.737159
1.78742
-1.49411
2.5606
-1.96318
2.93659
-2.16274
2.64426
-2.26855
2.21621
-2.34579
1.83032
1.52143
-2.4089
-0.00329238
0.349871
-0.00884437
0.893685
-0.0156548
1.31999
-0.0241334
1.6501
-0.0349157
1.96037
-0.048414
2.25935
-0.0663101
2.57641
-0.0903008
2.92288
-0.123213
3.28315
-0.170312
3.63827
-0.22711
3.31894
-0.287227
2.50123
-0.472853
2.0188
-1.04527
2.35984
-1.6807
3.19602
-1.95239
3.20828
-2.09863
2.7905
-2.21246
2.33004
-2.30616
1.92402
1.58296
-2.36769
-0.00343392
0.353305
-0.00976901
0.900021
-0.0170954
1.32731
-0.025826
1.65883
-0.0369458
1.97149
-0.051129
2.27353
-0.0699555
2.59524
-0.0952401
2.94816
-0.130222
3.31813
-0.180876
3.68892
-0.242355
3.38042
-0.325705
2.58458
-0.60882
2.30192
-1.26358
3.0146
-1.75021
3.68264
-1.95728
3.41535
-2.09642
2.92964
-2.22035
2.45397
-2.33048
2.03415
1.64163
-2.38915
-0.00336908
0.356674
-0.00943624
0.906088
-0.0170979
1.33497
-0.0266472
1.66838
-0.0385832
1.98343
-0.0534703
2.28842
-0.0732278
2.61499
-0.0999222
2.97486
-0.13704
3.35525
-0.191578
3.74346
-0.259353
3.4482
-0.383022
2.70825
-0.771269
2.69016
-1.40978
3.65312
-1.75961
4.03248
-1.93202
3.58776
-2.03357
3.03119
-2.12223
2.54263
-2.18884
2.10076
1.63424
-2.18144
-0.00339537
0.36007
-0.01045
0.913142
-0.0187566
1.34328
-0.0285187
1.67814
-0.0407808
1.99569
-0.0564097
2.30405
-0.0771663
2.63575
-0.105175
3.00287
-0.144281
3.39436
-0.200827
3.80001
-0.277936
3.52531
-0.447245
2.87755
-0.902851
3.14577
-1.45976
4.21003
-1.72026
4.29297
-1.87147
3.73898
-1.96509
3.12481
-1.96577
2.5433
-1.8958
2.03079
1.59648
-1.85804
-0.00317346
0.363243
-0.00964357
0.919612
-0.0181815
1.35182
-0.0288528
1.68881
-0.0419588
2.0088
-0.0580876
2.32018
-0.0792918
2.65695
-0.10786
3.03144
-0.147613
3.43411
-0.204433
3.85683
-0.290004
3.61088
-0.493947
3.0815
-0.986334
3.63816
-1.42646
4.65016
-1.59071
4.45722
-1.65728
3.80555
-1.66164
3.12917
-1.51406
2.39572
-1.01482
1.53155
0.581656
-0.00278719
0.36603
-0.0105653
0.927391
-0.0199096
1.36116
-0.0308056
1.69971
-0.0444629
2.02245
-0.0618963
2.33761
-0.0850447
2.6801
-0.116293
3.06268
-0.159994
3.47781
-0.222965
3.9198
-0.325249
3.71316
-0.57942
3.33567
-1.12103
4.17977
-1.47799
5.00712
-1.5769
4.55613
-1.57507
3.80371
-1.4716
3.02571
-1.23288
2.157
-0.630084
0.928755
-0.048428
-0.00249819
0.368528
-0.00891572
0.933808
-0.0183021
1.37055
-0.0305292
1.71194
-0.0457154
2.03764
-0.0645316
2.35643
-0.0895
2.70507
-0.123525
3.09671
-0.171718
3.526
-0.241748
3.98983
-0.364704
3.83612
-0.678982
3.64995
-1.23933
4.74012
-1.49833
5.26612
-1.55716
4.61496
-1.53475
3.78129
-1.33301
2.82397
-0.780804
1.6048
-0.108392
0.256343
-0.15682
-0.00151517
0.370044
-0.00947321
0.941766
-0.0197308
1.38081
-0.0319448
1.72415
-0.0473721
2.05307
-0.0673927
2.37645
-0.0943894
2.73207
-0.131256
3.13358
-0.1831
3.57785
-0.260278
4.06701
-0.408568
3.98441
-0.781028
4.02241
-1.31636
5.27544
-1.49235
5.44211
-1.52311
4.64572
-1.43514
3.69333
-1.09923
2.48806
-0.312449
0.818014
0.0247705
-0.0808767
-0.13205
-0.000988427
0.371032
-0.00635655
0.947134
-0.0161319
1.39058
-0.0298274
1.73785
-0.0469608
2.0702
-0.0683965
2.39788
-0.0971132
2.76078
-0.136487
3.17295
-0.191728
3.63309
-0.27842
4.1537
-0.453603
4.15959
-0.891406
4.46021
-1.36187
5.74591
-1.47692
5.55716
-1.47993
4.64873
-1.25606
3.46946
-0.685115
1.91711
-0.0630054
0.195904
0.0300471
-0.173929
-0.102003
9.73049e-05
0.370935
-0.00602404
0.953256
-0.0164792
1.40104
-0.0298243
1.75119
-0.0465142
2.08689
-0.0688852
2.42025
-0.0994351
2.79133
-0.141227
3.21474
-0.199267
3.69113
-0.294144
4.24858
-0.494889
4.36033
-0.9825
4.94782
-1.35545
6.11887
-1.42101
5.62271
-1.37474
4.60246
-1.0869
3.18162
-0.322945
1.15316
0.0038393
-0.13088
0.0143689
-0.184459
-0.0876338
0.0032443
0.36769
0.000807562
0.955692
-0.00939532
1.41124
-0.0243214
1.76612
-0.0426846
2.10525
-0.0665211
2.44409
-0.0983757
2.82319
-0.141904
3.25827
-0.20322
3.75245
-0.30741
4.35277
-0.534563
4.58749
-1.04613
5.45939
-1.3216
6.39434
-1.36038
5.66149
-1.22136
4.46345
-0.77044
2.7307
-0.0693654
0.452082
0.0438165
-0.244062
0.0238515
-0.164494
-0.0637823
0.00425886
0.363432
0.00218969
0.957762
-0.00777105
1.4212
-0.0212098
1.77956
-0.0380871
2.12213
-0.0622628
2.46827
-0.0952292
2.85615
-0.140513
3.30355
-0.203937
3.81587
-0.31478
4.46361
-0.571645
4.84435
-1.06593
5.95367
-1.25468
6.5831
-1.26594
5.67274
-1.04741
4.24493
-0.459829
2.14311
-0.018261
0.0105141
-0.00662761
-0.255696
0.00476143
-0.175883
-0.0590208
0.00871633
0.354715
0.0105372
0.955941
0.0041959
1.42754
-0.00943715
1.79319
-0.0284589
2.14115
-0.0537107
2.49352
-0.0871409
2.88959
-0.13269
3.3491
-0.198253
3.88143
-0.316702
4.58206
-0.594787
5.12244
-1.04467
6.40355
-1.17033
6.70876
-1.15287
5.65528
-0.8931
3.98516
-0.264466
1.51448
-0.0700803
-0.183872
-0.038772
-0.287004
-0.0143934
-0.200262
-0.0734142
0.0112404
0.343475
0.0156847
0.951496
0.0105236
1.4327
0.000580883
1.80313
-0.0171097
2.15884
-0.0408737
2.51728
-0.0737997
2.92251
-0.119634
3.39494
-0.185371
3.94717
-0.306106
4.70279
-0.592293
5.40863
-0.979501
6.79075
-1.0415
6.77076
-0.975076
5.58885
-0.676307
3.68639
-0.0708977
0.909069
0.0149514
-0.269721
4.86579e-05
-0.272101
-0.00174033
-0.198473
-0.0751545
0.0185176
0.324957
0.0306599
0.939354
0.0304122
1.43295
0.019664
1.81388
0.00181045
2.1767
-0.0211792
2.54027
-0.0533431
2.95467
-0.0976294
3.43922
-0.162163
4.0117
-0.284039
4.82467
-0.562384
5.68697
-0.868489
7.09686
-0.90655
6.80882
-0.801538
5.48384
-0.442233
3.32708
0.0682128
0.398623
0.0793896
-0.280897
0.0592149
-0.251926
0.0221169
-0.161375
-0.0530376
0.0241857
0.300772
0.0421113
0.921428
0.0449653
1.4301
0.0386307
1.82022
0.026982
2.18835
0.00621513
2.56104
-0.0230691
2.98396
-0.0645386
3.48069
-0.125753
4.07292
-0.240211
4.93913
-0.488885
5.93564
-0.710836
7.31881
-0.732433
6.83042
-0.633899
5.38531
-0.301268
2.99445
0.00648656
0.090869
0.02267
-0.297081
0.0339845
-0.263241
0.0161653
-0.143555
-0.0368722
0.035208
0.265564
0.0659274
0.890709
0.0781769
1.41785
0.0753547
1.82304
0.0642914
2.19941
0.0448557
2.58047
0.0175934
3.01122
-0.0207389
3.51902
-0.0758973
4.12808
-0.176108
5.03934
-0.376836
6.13637
-0.530211
7.47218
-0.558347
6.85855
-0.463359
5.29032
-0.192425
2.72352
-0.0761158
-0.02544
-0.0531468
-0.32005
-0.0189187
-0.297469
-0.000429651
-0.162044
-0.0373019
0.0446582
0.220905
0.087136
0.848231
0.10711
1.39787
0.112032
1.81812
0.10868
2.20276
0.0954283
2.59373
0.0749944
3.03166
0.0437536
3.55027
-0.00690718
4.17874
-0.0810918
5.11352
-0.21984
6.27512
-0.309325
7.56167
-0.317821
6.86705
-0.255303
5.2278
-0.0930458
2.56126
-0.107898
-0.0105879
-0.0818511
-0.346097
-0.0465131
-0.332807
-0.0124435
-0.196114
-0.0497454
0.0581141
0.162791
0.121416
0.78493
0.159637
1.35965
0.172939
1.80481
0.172932
2.20277
0.162636
2.60402
0.147197
3.04709
0.123786
3.57368
0.0882639
4.21426
0.0390636
5.16272
-0.0149844
6.32917
-0.046031
7.59272
-0.0453501
6.86637
-0.000580897
5.18303
0.0542479
2.50643
-0.0835168
0.127177
-0.0969809
-0.332632
-0.0614622
-0.368326
-0.00695411
-0.250622
-0.0566995
0.0599519
0.102839
0.15105
0.693832
0.207875
1.30283
0.235521
1.77717
0.247926
2.19036
0.247861
2.60409
0.241922
3.05303
0.230819
3.58478
0.212501
4.23258
0.190606
5.18462
0.231792
6.28798
0.281774
7.54273
0.31517
6.83297
0.257252
5.24095
0.0638901
2.6998
-0.176441
0.367508
-0.242511
-0.266563
-0.175421
-0.435415
-0.0568682
-0.369175
-0.113568
0.0493259
0.0535133
0.184686
0.558471
0.282422
1.20509
0.329937
1.72965
0.350195
2.17011
0.358201
2.59608
0.356915
3.05432
0.357246
3.58445
0.358375
4.23145
0.371286
5.17171
0.519883
6.13938
0.655048
7.40757
0.647018
6.841
0.422302
5.46566
-0.0726963
3.19479
-0.484604
0.779416
-0.541428
-0.209739
-0.421313
-0.55553
-0.207008
-0.583481
-0.320575
0.0342774
0.019236
0.219098
0.373651
0.347549
1.07664
0.426575
1.65063
0.468836
2.12784
0.492156
2.57276
0.501847
3.04463
0.516457
3.56984
0.540187
4.20772
0.59079
5.1211
0.810519
5.91966
1.14093
7.07716
1.28411
6.69782
1.30498
5.4448
0.828918
3.67085
0.0774376
1.5309
-0.372047
0.239745
-0.496183
-0.431393
-0.280223
-0.799441
-0.600798
0.0304999
-0.011264
0.234296
0.169855
0.450954
0.859981
0.569461
1.53212
0.623908
2.0734
0.656222
2.54045
0.675367
3.02548
0.698827
3.54638
0.746271
4.16027
0.849082
5.01829
1.18508
5.58366
1.76948
6.49275
2.11914
6.34817
2.38024
5.1837
2.28226
3.76883
1.52209
2.29107
0.797404
0.964435
0.276407
0.0896035
0.0193314
-0.542365
-0.581467
0.0232458
-0.0345098
0.156135
0.0369658
0.494282
0.521834
0.694455
1.33195
0.798732
1.96912
0.852777
2.4864
0.8905
2.98776
0.915916
3.52096
0.979931
4.09626
1.10892
4.88931
1.49213
5.20045
2.26167
5.72321
2.64655
5.96328
2.82569
5.00455
2.67133
3.9232
2.17174
2.79065
1.52699
1.60919
0.970596
0.646001
0.377701
0.0505289
-0.203766
0.00159095
-0.0361008
0.0761087
-0.0375519
0.408835
0.189107
0.719597
1.02119
0.865631
1.82309
0.902694
2.44934
0.909984
2.98047
0.894603
3.53634
0.894099
4.09676
0.932012
4.85139
1.09404
5.03843
1.53889
5.27835
1.71201
5.79016
1.75267
4.9639
1.66277
4.0131
1.41309
3.04032
1.00644
2.01584
0.582575
1.06986
0.244496
0.388609
0.04073
0.00379069
-0.0398914
0.0426308
-0.0763921
0.207754
0.0239844
0.550539
0.6784
0.731948
1.64168
0.800317
2.38097
0.812934
2.96785
0.805318
3.54396
0.786553
4.11553
0.805851
4.8321
0.887189
4.95709
1.19661
4.96894
1.38095
5.60582
1.39724
4.9476
1.34025
4.07009
1.17754
3.20303
0.889667
2.30372
0.560114
1.39942
0.232926
0.715796
0.273656
0.00112416
-0.0410156
0.0134938
-0.0887617
0.0823147
-0.0448365
0.380475
0.38024
0.58765
1.4345
0.681242
2.28738
0.705514
2.94358
0.705355
3.54412
0.677928
4.14296
0.672368
4.83766
0.701675
4.92778
0.890671
4.77994
1.06726
5.42924
1.06876
4.9461
1.01428
4.12457
0.890504
3.3268
0.682892
2.51133
0.424235
1.65807
0.1721
0.967931
0.445756
-0.00353275
-0.0374828
-0.000890992
-0.0914034
0.033774
-0.0795015
0.242207
0.171807
0.468269
1.20844
0.571237
2.18441
0.592547
2.92227
0.590178
3.54649
0.562572
4.17056
0.540704
4.85952
0.54559
4.9229
0.654053
4.67148
0.79537
5.28792
0.786076
4.95539
0.727988
4.18266
0.63106
3.42373
0.483103
2.65929
0.294785
1.84639
0.112279
1.15044
0.558035
-0.00126541
-0.0362174
0.00845306
-0.101122
0.0409802
-0.112029
0.153568
0.0592193
0.342592
1.01942
0.454979
2.07202
0.487113
2.89014
0.484028
3.54957
0.457743
4.19685
0.430343
4.88692
0.415869
4.93737
0.477094
4.61025
0.573129
5.19189