/*--------------------------------*- C++ -*----------------------------------*\
  =========                 |
  \\      /  F ield         | OpenFOAM: The Open Source CFD Toolbox
   \\    /   O peration     | Website:  https://openfoam.org
    \\  /    A nd           | Version:  10
     \\/     M anipulation  |
\*---------------------------------------------------------------------------*/
FoamFile
{
    format      ascii;
    class       volVectorField;
    location    "69";
    object      U;
}
// * * * * * * * * * * * * * * * * * * * * * * * * * * * * * * * * * * * * * //

dimensions      [0 1 -1 0 0 0 0];

internalField   nonuniform List<vector> 
2200
(
(0.878835 -0.0304122 0)
(1.00578 -0.0512798 0)
(1.00327 -0.0354003 0)
(1.00024 -0.0244382 0)
(0.999865 -0.0166607 0)
(1.00004 -0.010728 0)
(1.00004 -0.00683532 0)
(0.999996 -0.00417892 0)
(0.999902 -0.00219145 0)
(1.00018 -0.000656243 0)
(1.00003 0.00114115 0)
(1.00036 0.00267657 0)
(1.00038 0.00452277 0)
(1.00027 0.00711428 0)
(1.00008 0.0108362 0)
(1 0.0166599 0)
(1.00033 0.0243755 0)
(1.00347 0.0348652 0)
(1.00599 0.051382 0)
(0.879048 0.0302953 0)
(0.712026 -0.0327597 0)
(0.996644 -0.0630033 0)
(1.03332 -0.056134 0)
(1.02493 -0.046405 0)
(1.0159 -0.0360989 0)
(1.00965 -0.0263591 0)
(1.00591 -0.0181168 0)
(1.00379 -0.0114304 0)
(1.00268 -0.00604502 0)
(1.00226 -0.00161161 0)
(1.00208 0.00248192 0)
(1.00212 0.00698021 0)
(1.00323 0.0123885 0)
(1.0055 0.0189443 0)
(1.00943 0.0272489 0)
(1.01554 0.0369922 0)
(1.02462 0.047481 0)
(1.03315 0.0579951 0)
(0.996701 0.0631487 0)
(0.711783 0.0330367 0)
(0.535584 -0.0238907 0)
(0.969934 -0.0569189 0)
(1.05644 -0.0547155 0)
(1.05223 -0.0487196 0)
(1.03624 -0.0403774 0)
(1.02447 -0.0322053 0)
(1.01591 -0.0239274 0)
(1.01035 -0.0160087 0)
(1.00704 -0.0086933 0)
(1.00533 -0.00193986 0)
(1.00549 0.0044122 0)
(1.00731 0.0109085 0)
(1.01049 0.0177817 0)
(1.01573 0.0255105 0)
(1.02404 0.0334648 0)
(1.03606 0.0414269 0)
(1.05215 0.0494208 0)
(1.0563 0.0533181 0)
(0.969188 0.0576527 0)
(0.534342 0.0239445 0)
(0.392408 -0.0136413 0)
(0.911904 -0.0463753 0)
(1.05755 -0.0468465 0)
(1.06964 -0.0442784 0)
(1.05492 -0.038125 0)
(1.03935 -0.0314408 0)
(1.0276 -0.0246335 0)
(1.01919 -0.0174408 0)
(1.01396 -0.00996062 0)
(1.01147 -0.00248294 0)
(1.01116 0.00512374 0)
(1.01301 0.0124913 0)
(1.01806 0.0199047 0)
(1.02656 0.0266878 0)
(1.03849 0.0331233 0)
(1.05398 0.039572 0)
(1.06822 0.0456454 0)
(1.05546 0.0482882 0)
(0.909898 0.0469953 0)
(0.389889 0.0137781 0)
(0.307823 -0.00451034 0)
(0.846832 -0.0323612 0)
(1.04943 -0.0398942 0)
(1.07949 -0.03812 0)
(1.06826 -0.033441 0)
(1.05176 -0.0278115 0)
(1.03833 -0.0224061 0)
(1.02799 -0.0162909 0)
(1.02076 -0.00932387 0)
(1.01672 -0.00158038 0)
(1.01662 0.00616041 0)
(1.02061 0.0135198 0)
(1.02756 0.0197861 0)
(1.03732 0.0255097 0)
(1.05019 0.0304432 0)
(1.06663 0.0357784 0)
(1.07766 0.040132 0)
(1.04719 0.0417954 0)
(0.842865 0.0330063 0)
(0.303648 0.00474364 0)
(0.264465 0.000105506 0)
(0.789254 -0.0200479 0)
(1.03362 -0.0314155 0)
(1.08376 -0.0319773 0)
(1.07742 -0.0286897 0)
(1.06091 -0.0238004 0)
(1.04735 -0.019292 0)
(1.03661 -0.0142256 0)
(1.02895 -0.00821047 0)
(1.02458 -0.00130566 0)
(1.02405 0.0061999 0)
(1.02721 0.012906 0)
(1.03427 0.0187714 0)
(1.04493 0.0232429 0)
(1.0586 0.0271758 0)
(1.07485 0.0315601 0)
(1.08029 0.0342836 0)
(1.02913 0.03338 0)
(0.782474 0.0207635 0)
(0.258606 0.000126122 0)
(0.240543 0.00107115 0)
(0.738612 -0.0122617 0)
(1.01381 -0.0249397 0)
(1.0841 -0.0266873 0)
(1.08311 -0.0243758 0)
(1.06791 -0.0201989 0)
(1.05428 -0.0161993 0)
(1.04323 -0.0115962 0)
(1.03483 -0.00609289 0)
(1.0297 0.000419931 0)
(1.02935 0.00701641 0)
(1.03392 0.0128942 0)
(1.04165 0.0173952 0)
(1.05176 0.0214035 0)
(1.06467 0.0247766 0)
(1.07938 0.0282172 0)
(1.07985 0.0297787 0)
(1.00742 0.0272888 0)
(0.72866 0.0131646 0)
(0.232907 -0.000832152 0)
(0.226311 0.000965175 0)
(0.695964 -0.00800579 0)
(0.993505 -0.0206678 0)
(1.08254 -0.0230045 0)
(1.08705 -0.0211359 0)
(1.07351 -0.0175792 0)
(1.06011 -0.0137319 0)
(1.04966 -0.00947497 0)
(1.0419 -0.00456514 0)
(1.03709 0.00102131 0)
(1.0361 0.00707581 0)
(1.03903 0.012447 0)
(1.04565 0.0169041 0)
(1.05572 0.0202274 0)
(1.06914 0.0232046 0)
(1.08185 0.0259185 0)
(1.07549 0.0268922 0)
(0.983067 0.0235257 0)
(0.681468 0.0091629 0)
(0.216412 -0.000704806 0)
(0.216755 0.000627033 0)
(0.660544 -0.00563739 0)
(0.972864 -0.0175458 0)
(1.07969 -0.0201012 0)
(1.09042 -0.0184836 0)
(1.07841 -0.0152635 0)
(1.06496 -0.0115653 0)
(1.05431 -0.00727596 0)
(1.04607 -0.00237711 0)
(1.04072 0.00310122 0)
(1.04002 0.00846086 0)
(1.04388 0.0129929 0)
(1.05076 0.0165583 0)
(1.06007 0.0198432 0)
(1.07245 0.0225433 0)
(1.0833 0.0247153 0)
(1.07079 0.025121 0)
(0.95898 0.0211058 0)
(0.641271 0.00710638 0)
(0.204252 -0.00032926 0)
(0.209706 0.000304983 0)
(0.63231 -0.00416872 0)
(0.954342 -0.0148946 0)
(1.07688 -0.0177736 0)
(1.09371 -0.0164241 0)
(1.08319 -0.0135013 0)
(1.06973 -0.00986659 0)
(1.05933 -0.00581332 0)
(1.05177 -0.00113864 0)
(1.04693 0.00385894 0)
(1.04527 0.00898422 0)
(1.04728 0.0135575 0)
(1.05304 0.0173656 0)
(1.06241 0.0200607 0)
(1.07546 0.0224127 0)
(1.08426 0.0240784 0)
(1.06358 0.0240283 0)
(0.933974 0.019258 0)
(0.606116 0.00598098 0)
(0.193706 4.97385e-05 0)
(0.203905 9.22481e-05 0)
(0.609037 -0.00310886 0)
(0.93637 -0.0124583 0)
(1.07366 -0.0154219 0)
(1.09698 -0.0142094 0)
(1.0879 -0.0113491 0)
(1.07442 -0.00773287 0)
(1.06361 -0.00355898 0)
(1.05522 0.00121285 0)
(1.0495 0.00635492 0)
(1.04809 0.0111484 0)
(1.05103 0.0150883 0)
(1.05707 0.0180509 0)
(1.06595 0.0207464 0)
(1.07777 0.0227988 0)
(1.08447 0.0240062 0)
(1.05681 0.023246 0)
(0.910038 0.0177512 0)
(0.575657 0.00534127 0)
(0.183983 0.000332204 0)
(0.199492 1.75612e-05 0)
(0.591183 -0.00223515 0)
(0.921321 -0.0101119 0)
(1.07104 -0.0132398 0)
(1.10056 -0.0121544 0)
(1.09291 -0.00944259 0)
(1.07922 -0.00586447 0)
(1.06823 -0.0019594 0)
(1.06001 0.00253768 0)
(1.05467 0.00748723 0)
(1.05216 0.0124774 0)
(1.05328 0.0165565 0)
(1.05846 0.0197393 0)
(1.06746 0.0216541 0)
(1.08002 0.0233242 0)
(1.08414 0.0241249 0)
(1.04742 0.0227837 0)
(0.885109 0.0165912 0)
(0.547694 0.00498079 0)
(0.174382 0.000503436 0)
(0.195969 3.67397e-05 0)
(0.576575 -0.00151277 0)
(0.90686 -0.0079706 0)
(1.06819 -0.0108418 0)
(1.10406 -0.00968238 0)
(1.09789 -0.00684906 0)
(1.08426 -0.00319337 0)
(1.07292 0.000963806 0)
(1.06396 0.00580971 0)
(1.05732 0.010907 0)
(1.05473 0.0152157 0)
(1.05666 0.0187059 0)
(1.06205 0.0210101 0)
(1.07053 0.023009 0)
(1.08131 0.0242666 0)
(1.08328 0.0246536 0)
(1.0382 0.0226945 0)
(0.860839 0.015787 0)
(0.522205 0.00483625 0)
(0.165052 0.000592446 0)
(0.19403 7.32981e-05 0)
(0.566412 -0.000699531 0)
(0.895948 -0.00575139 0)
(1.06628 -0.0084006 0)
(1.10797 -0.00708618 0)
(1.10322 -0.00417395 0)
(1.0894 -0.000382877 0)
(1.07762 0.00354288 0)
(1.06823 0.00791369 0)
(1.06145 0.0126243 0)
(1.05784 0.0175578 0)
(1.05816 0.0210854 0)
(1.06263 0.0234328 0)
(1.07143 0.0245611 0)
(1.08247 0.0255063 0)
(1.08112 0.0254105 0)
(1.02598 0.0228969 0)
(0.835059 0.0153222 0)
(0.497355 0.00478977 0)
(0.155589 0.000626513 0)
(0.193271 0.000106636 0)
(0.55907 -0.000181178 0)
(0.885903 -0.00374959 0)
(1.0647 -0.00589745 0)
(1.11207 -0.00435593 0)
(1.10879 -0.00121172 0)
(1.09503 0.00270904 0)
(1.08286 0.00711474 0)
(1.0729 0.0121592 0)
(1.06526 0.0175898 0)
(1.06097 0.0216101 0)
(1.06128 0.0242886 0)
(1.06589 0.0259169 0)
(1.07389 0.0271473 0)
(1.08228 0.0274768 0)
(1.07847 0.0269078 0)
(1.01368 0.0236374 0)
(0.8094 0.0152504 0)
(0.473545 0.00487566 0)
(0.146222 0.000653136 0)
(0.193947 7.82268e-05 0)
(0.555153 0.000913119 0)
(0.879854 -0.00144681 0)
(1.06436 -0.00297511 0)
(1.11667 -0.00101697 0)
(1.11459 0.00240529 0)
(1.10063 0.00674721 0)
(1.08795 0.0112423 0)
(1.0772 0.0159602 0)
(1.06821 0.020446 0)
(1.06277 0.0247462 0)
(1.06202 0.0278537 0)
(1.06533 0.0292321 0)
(1.07356 0.0296523 0)
(1.08218 0.0298677 0)
(1.07361 0.0287143 0)
(0.997885 0.0246137 0)
(0.781708 0.0154827 0)
(0.449167 0.00503102 0)
(0.136476 0.000666977 0)
(0.19621 0.000305074 0)
(0.555623 0.00158256 0)
(0.875578 0.000907896 0)
(1.06539 0.000236017 0)
(1.122 0.00253958 0)
(1.12118 0.00624976 0)
(1.10719 0.010724 0)
(1.09387 0.0156983 0)
(1.08235 0.0211857 0)
(1.07306 0.02699 0)
(1.06688 0.031058 0)
(1.06494 0.0329272 0)
(1.06797 0.0337876 0)
(1.07505 0.0342468 0)
(1.08018 0.0333102 0)
(1.06806 0.0314465 0)
(0.981634 0.0263607 0)
(0.753295 0.0161523 0)
(0.424586 0.00535157 0)
(0.126478 0.00069869 0)
(0.200577 0.000683225 0)
(0.558588 0.00243175 0)
(0.876296 0.00356185 0)
(1.06812 0.00369344 0)
(1.1281 0.00677344 0)
(1.12818 0.0109518 0)
(1.11378 0.0162101 0)
(1.09996 0.0216964 0)
(1.08767 0.0273346 0)
(1.07621 0.0321336 0)
(1.06774 0.0358186 0)
(1.06481 0.0377991 0)
(1.06654 0.0385255 0)
(1.07305 0.0378887 0)
(1.07856 0.0372843 0)
(1.06008 0.0346289 0)
(0.96111 0.0282846 0)
(0.721933 0.0171397 0)
(0.398285 0.00572941 0)
(0.115723 0.000715723 0)
(0.207326 0.000900666 0)
(0.566082 0.0036112 0)
(0.880633 0.00600973 0)
(1.07331 0.00797732 0)
(1.13526 0.0116206 0)
(1.13631 0.0164448 0)
(1.12153 0.0220634 0)
(1.10658 0.0280787 0)
(1.09265 0.0342539 0)
(1.08016 0.0402273 0)
(1.0714 0.0446856 0)
(1.06694 0.0459254 0)
(1.06779 0.0456283 0)
(1.07348 0.0447637 0)
(1.07408 0.0425952 0)
(1.05057 0.0388785 0)
(0.939373 0.0312911 0)
(0.688689 0.018586 0)
(0.37055 0.0062444 0)
(0.104353 0.00074484 0)
(0.215802 0.00106171 0)
(0.577053 0.00485539 0)
(0.888768 0.00910748 0)
(1.08117 0.0124075 0)
(1.14405 0.0172446 0)
(1.14553 0.0229382 0)
(1.12984 0.0296912 0)
(1.11394 0.0365058 0)
(1.09915 0.0434394 0)
(1.08486 0.0492387 0)
(1.07207 0.0519963 0)
(1.06603 0.0527744 0)
(1.06521 0.0525192 0)
(1.06904 0.0505941 0)
(1.07059 0.0487307 0)
(1.03822 0.0439239 0)
(0.911868 0.0343965 0)
(0.650832 0.0202865 0)
(0.33988 0.00676166 0)
(0.0919322 0.000755801 0)
(0.228603 0.00142895 0)
(0.596392 0.00683791 0)
(0.904693 0.0136881 0)
(1.09263 0.0189742 0)
(1.15456 0.0244645 0)
(1.15625 0.0310927 0)
(1.13951 0.0385452 0)
(1.12186 0.0461957 0)
(1.10431 0.0534472 0)
(1.08701 0.0595549 0)
(1.07373 0.0634658 0)
(1.0667 0.0641365 0)
(1.06515 0.0624462 0)
(1.06847 0.0600061 0)
(1.06271 0.0564023 0)
(1.02294 0.0498324 0)
(0.882144 0.0387316 0)
(0.609967 0.0223559 0)
(0.306933 0.00730699 0)
(0.0788063 0.000757968 0)
(0.244373 0.00200078 0)
(0.619774 0.008614 0)
(0.925773 0.0180549 0)
(1.10826 0.0256509 0)
(1.16742 0.0332299 0)
(1.16869 0.0410784 0)
(1.15017 0.0499609 0)
(1.13058 0.0586083 0)
(1.1113 0.0669531 0)
(1.09222 0.0734018 0)
(1.07523 0.0762027 0)
(1.06472 0.0747833 0)
(1.06084 0.0727047 0)
(1.06104 0.0692215 0)
(1.05609 0.0648698 0)
(1.00407 0.0571823 0)
(0.844471 0.0430146 0)
(0.562037 0.0244621 0)
(0.270033 0.00773342 0)
(0.0646309 0.000739282 0)
(0.266701 0.00282586 0)
(0.65313 0.0124638 0)
(0.954911 0.025013 0)
(1.1285 0.0353937 0)
(1.18316 0.0439798 0)
(1.18318 0.0539071 0)
(1.16234 0.0640564 0)
(1.14002 0.0738116 0)
(1.11705 0.0822824 0)
(1.09361 0.0880313 0)
(1.07365 0.0897033 0)
(1.06281 0.088599 0)
(1.0589 0.0856065 0)
(1.05875 0.0814032 0)
(1.04356 0.07541 0)
(0.980063 0.0649192 0)
(0.802773 0.0485023 0)
(0.510247 0.0267084 0)
(0.230941 0.00802155 0)
(0.0501579 0.000715399 0)
(0.298356 0.0037779 0)
(0.699252 0.0156258 0)
(0.994806 0.0333578 0)
(1.15541 0.0472607 0)
(1.20237 0.0589479 0)
(1.19976 0.0709172 0)
(1.17523 0.0827294 0)
(1.14938 0.0932074 0)
(1.12315 0.101842 0)
(1.09699 0.107103 0)
(1.07467 0.108103 0)
(1.06019 0.104835 0)
(1.05233 0.0997221 0)
(1.04794 0.0935978 0)
(1.03151 0.0863025 0)
(0.951375 0.0740788 0)
(0.75035 0.0532689 0)
(0.44845 0.0282494 0)
(0.187723 0.00789189 0)
(0.0350641 0.000609167 0)
(0.335127 0.00714734 0)
(0.757345 0.0249977 0)
(1.04388 0.0468413 0)
(1.1882 0.0652371 0)
(1.22582 0.0784425 0)
(1.21894 0.0935252 0)
(1.18984 0.106268 0)
(1.1599 0.116857 0)
(1.12919 0.124575 0)
(1.09819 0.128201 0)
(1.07138 0.126605 0)
(1.05499 0.121269 0)
(1.04807 0.115678 0)
(1.04297 0.109137 0)
(1.01253 0.0996092 0)
(0.914076 0.0830785 0)
(0.691345 0.0588542 0)
(0.384114 0.0297551 0)
(0.144776 0.00757467 0)
(0.0215166 0.000569992 0)
(0.415818 0.010848 0)
(0.845667 0.0357739 0)
(1.11151 0.0679359 0)
(1.22931 0.09075 0)
(1.25331 0.107084 6.12353e-34)
(1.23919 0.124229 -2.76882e-34)
(1.20341 0.137137 0)
(1.16816 0.146699 0)
(1.13269 0.15269 0)
(1.09781 0.153704 0)
(1.06863 0.149392 0)
(1.0507 0.142351 0)
(1.03944 0.133907 0)
(1.02758 0.124191 0)
(0.991531 0.112314 0)
(0.87018 0.0926568 0)
(0.618454 0.0622512 0)
(0.305408 0.0288003 0)
(0.0960234 0.00690672 0)
(0.00691553 0.000731792 0)
(0.487481 0.0260425 4.4465e-20)
(0.948108 0.0605792 -3.37172e-20)
(1.18164 0.102555 0)
(1.27091 0.130002 2.63387e-20)
(1.28221 0.146121 -2.13584e-20)
(1.25867 0.16492 2.92139e-34)
(1.2161 0.175737 0)
(1.17596 0.183022 1.56405e-20)
(1.13557 0.186105 -5.14003e-20)
(1.09574 0.1841 1.05141e-20)
(1.06255 0.177297 0)
(1.04037 0.16679 -2.67972e-20)
(1.02937 0.156654 -3.22952e-20)
(1.01586 0.14663 5.6591e-20)
(0.954982 0.130555 -4.46961e-20)
(0.797592 0.102235 0)
(0.513329 0.0642367 -1.60546e-20)
(0.213546 0.0265164 0)
(0.047466 0.00651196 -8.88064e-20)
(-0.00867356 0.000308372 1.04661e-19)
(0.524011 0.0541837 -5.88818e-21)
(1.01499 0.102884 9.88532e-20)
(1.23471 0.153653 -4.95977e-21)
(1.30604 0.178096 -6.35881e-20)
(1.30804 0.195558 -4.50435e-20)
(1.27547 0.212694 7.32772e-20)
(1.22634 0.220891 0)
(1.18034 0.225521 0)
(1.1344 0.226348 8.15595e-20)
(1.08986 0.221527 0)
(1.05223 0.210408 9.63332e-20)
(1.02943 0.197745 2.8754e-20)
(1.01284 0.186541 5.93495e-22)
(0.983983 0.171345 -6.12484e-20)
(0.910486 0.149586 0)
(0.726204 0.114798 0)
(0.427815 0.0656432 -2.60913e-19)
(0.152511 0.0237371 6.5613e-19)
(0.0143981 0.00432008 -3.87819e-19)
(-0.0201375 -0.00152749 -4.56732e-19)
(0.530976 0.0778152 -5.22622e-20)
(1.04864 0.160029 2.05084e-20)
(1.26943 0.213777 1.16281e-20)
(1.33272 0.237343 1.10376e-19)
(1.32773 0.254016 1.46613e-20)
(1.28781 0.266444 -1.90339e-19)
(1.23323 0.2703 6.51417e-20)
(1.18221 0.271445 0)
(1.13091 0.268411 -1.72006e-19)
(1.08074 0.259326 1.53353e-19)
(1.03937 0.245623 -2.5987e-19)
(1.01207 0.231913 1.21852e-19)
(0.993554 0.21652 -7.90345e-20)
(0.966353 0.199895 1.78317e-19)
(0.874069 0.173931 0)
(0.673518 0.126948 -6.48283e-20)
(0.375171 0.0680714 0)
(0.126816 0.0227714 3.57008e-19)
(0.00026456 0.00196979 -8.45669e-19)
(-0.0258016 -0.003554 5.29285e-19)
(0.528588 0.108524 1.33094e-19)
(1.07497 0.219341 -5.95697e-20)
(1.29439 0.280538 -1.31359e-20)
(1.35095 0.302705 0)
(1.34085 0.316148 -8.19018e-20)
(1.2958 0.323409 1.01228e-19)
(1.23639 0.322831 -6.94841e-20)
(1.18026 0.31979 0)
(1.12422 0.312639 1.22114e-19)
(1.07031 0.299762 -1.07666e-19)
(1.02568 0.28229 2.24442e-19)
(0.995832 0.263814 0)
(0.973233 0.246764 -1.67763e-19)
(0.933208 0.225751 9.46023e-20)
(0.840114 0.191413 2.37635e-19)
(0.636653 0.139527 -2.09034e-19)
(0.351125 0.0739532 3.29652e-19)
(0.120464 0.0243845 -7.29524e-19)
(-0.00506408 7.79614e-05 4.6126e-19)
(-0.0294045 -0.0058005 -5.76671e-19)
(0.513426 0.132711 -3.77214e-20)
(1.07608 0.270639 2.65718e-20)
(1.30284 0.344444 -4.39098e-20)
(1.35986 0.368101 9.1383e-20)
(1.34664 0.380479 -8.85164e-20)
(1.29789 0.38254 3.14771e-20)
(1.23511 0.376714 3.81893e-21)
(1.1755 0.369035 -1.36646e-19)
(1.11539 0.357338 -1.27503e-19)
(1.05628 0.339522 -2.30541e-19)
(1.00726 0.317804 -4.82305e-19)
(0.974426 0.296673 -1.48831e-19)
(0.950107 0.275878 2.23297e-21)
(0.915087 0.253096 -3.23183e-19)
(0.814489 0.217171 -4.8948e-21)
(0.613434 0.154195 3.03668e-19)
(0.344663 0.0819637 -9.09028e-20)
(0.122871 0.0281964 -5.27424e-20)
(-0.00171241 -0.00128548 0)
(-0.0293654 -0.00734579 1.22393e-18)
(0.49891 0.154618 0)
(1.07622 0.323476 7.21785e-22)
(1.3073 0.410022 -5.52746e-21)
(1.36252 0.433009 -1.30062e-20)
(1.34687 0.443016 8.4094e-20)
(1.29601 0.440535 -7.41975e-20)
(1.23046 0.430646 7.54569e-20)
(1.16724 0.418781 2.24589e-19)
(1.10347 0.402702 -7.09195e-20)
(1.04199 0.380726 1.13843e-19)
(0.991121 0.355242 2.591e-19)
(0.955751 0.33009 3.24491e-19)
(0.927479 0.307184 -1.95422e-19)
(0.882403 0.280696 3.49847e-19)
(0.786577 0.236807 -2.77212e-19)
(0.593486 0.172606 0)
(0.339989 0.0940595 -6.90313e-19)
(0.130824 0.0342279 9.29909e-19)
(0.00691495 0.000281926 6.93812e-20)
(-0.026088 -0.00797595 -1.29472e-18)
(0.480565 0.173469 -5.18239e-21)
(1.06206 0.368305 -2.64173e-20)
(1.30203 0.468715 3.95224e-20)
(1.35962 0.494469 -6.37643e-20)
(1.3422 0.504471 7.13505e-20)
(1.28932 0.498018 -7.09946e-20)
(1.22173 0.483802 1.48426e-19)
(1.15649 0.467529 -6.6607e-20)
(1.09028 0.44697 -2.85692e-19)
(1.02519 0.420419 -1.3337e-22)
(0.969652 0.390356 -2.81739e-19)
(0.930438 0.361734 -3.49382e-19)
(0.902499 0.335911 2.16118e-19)
(0.864069 0.307888 -1.25751e-19)
(0.76385 0.264973 3.01779e-19)
(0.578307 0.190304 0)
(0.339716 0.108163 -4.29536e-19)
(0.140138 0.0421446 6.34424e-19)
(0.0167829 0.00353022 1.19954e-18)
(-0.0217438 -0.0078367 -1.41083e-18)
(0.468145 0.192253 -1.09165e-19)
(1.05386 0.415964 4.94199e-20)
(1.29627 0.528478 -1.97603e-20)
(1.35302 0.554456 6.5134e-20)
(1.33399 0.562823 1.22469e-20)
(1.28018 0.552701 -1.37966e-19)
(1.21114 0.535139 -8.66275e-20)
(1.14373 0.515229 -8.62066e-20)
(1.07499 0.490813 -1.61857e-19)
(1.00738 0.460392 2.60393e-19)
(0.949513 0.426241 2.84219e-19)
(0.909276 0.394451 5.54329e-19)
(0.878629 0.366886 0)
(0.831355 0.335914 6.39868e-21)
(0.738781 0.283958 -8.30197e-19)
(0.56317 0.210285 1.95205e-19)
(0.338723 0.122276 9.33112e-19)
(0.148906 0.0513198 -2.75372e-19)
(0.0270593 0.00799155 5.70907e-19)
(-0.0167772 -0.00693814 -4.75713e-20)
(0.454464 0.208201 5.88643e-21)
(1.03663 0.455293 6.71688e-20)
(1.28492 0.581368 -1.24964e-21)
(1.34347 0.610349 5.81905e-20)
(1.32325 0.618946 -1.28376e-19)
(1.26816 0.605702 1.35891e-19)
(1.19777 0.584699 8.95527e-20)
(1.12899 0.56109 2.5661e-19)
(1.05801 0.532968 3.23806e-19)
(0.986901 0.498422 -3.02377e-19)
(0.925829 0.46025 0)
(0.883277 0.424758 -2.10351e-19)
(0.851798 0.394076 2.41508e-19)
(0.812526 0.361717 3.05197e-19)
(0.717589 0.312332 -1.76733e-19)
(0.549285 0.228139 -4.28677e-19)
(0.337554 0.137326 -1.27585e-19)
(0.156268 0.0611113 -2.05264e-21)
(0.0362396 0.0132283 0)
(-0.0119867 -0.00558748 0)
(0.446809 0.225476 -9.22998e-20)
(1.02654 0.497763 0)
(1.27445 0.635029 1.44913e-20)
(1.33182 0.664798 -1.89484e-20)
(1.31039 0.671922 1.48703e-19)
(1.25482 0.655642 -3.71778e-20)
(1.1835 0.631932 9.10369e-20)
(1.11299 0.605389 -1.73206e-19)
(1.04002 0.574214 2.45722e-19)
(0.967851 0.536331 -1.00432e-19)
(0.905391 0.494053 1.63302e-19)
(0.86142 0.45608 6.68224e-19)
(0.828142 0.424221 1.42775e-20)
(0.780116 0.387837 -3.18903e-19)
(0.693329 0.329118 5.90004e-19)
(0.533616 0.2481 3.23369e-21)
(0.333755 0.151273 1.36499e-19)
(0.16101 0.0710503 -6.50576e-19)
(0.0433827 0.0184554 6.70304e-19)
(-0.00788867 -0.00411154 -7.89509e-19)
(0.438537 0.240522 2.48384e-23)
(1.01105 0.532877 0)
(1.26055 0.6819 0)
(1.31872 0.714983 4.62038e-21)
(1.29655 0.722261 -4.21491e-20)
(1.23999 0.703488 6.23884e-20)
(1.16758 0.677101 -1.67429e-19)
(1.09624 0.647623 0)
(1.02209 0.61334 -3.62817e-19)
(0.947247 0.571931 4.38722e-19)
(0.881061 0.526188 4.6795e-19)
(0.834661 0.485351 -2.4539e-19)
(0.801164 0.448273 -2.97772e-19)
(0.761659 0.410337 6.98596e-19)
(0.671782 0.355825 -2.10001e-19)
(0.517833 0.263794 -2.49919e-19)
(0.328506 0.164791 -1.49315e-19)
(0.162851 0.0798923 -7.03539e-19)
(0.0482241 0.0231052 1.03128e-19)
(-0.00464894 -0.00272217 8.55422e-19)
(0.433031 0.257626 -4.40668e-20)
(1.00108 0.570813 -5.97387e-20)
(1.24808 0.729477 2.38767e-20)
(1.30456 0.763749 -2.03557e-22)
(1.28146 0.769701 -4.94475e-20)
(1.22461 0.74849 9.67549e-20)
(1.15178 0.719889 0)
(1.07948 0.687994 1.05453e-19)
(1.00375 0.651454 -8.31501e-20)
(0.92713 0.60745 7.33301e-19)
(0.859457 0.558115 -1.05275e-19)
(0.81233 0.513692 1.21677e-19)
(0.777848 0.475959 0)
(0.729349 0.433802 -3.78472e-19)
(0.647152 0.368269 4.58584e-19)
(0.500304 0.28099 0)
(0.320088 0.175626 -3.21402e-19)
(0.161949 0.0875097 9.46226e-19)
(0.0507565 0.0269045 1.12483e-19)
(-0.00230599 -0.00156367 -1.05526e-18)
(0.428684 0.274915 -1.08654e-19)
(0.987889 0.60256 1.37359e-19)
(1.23334 0.770662 0)
(1.28993 0.808194 2.99971e-20)
(1.26641 0.814354 0)
(1.20889 0.791176 -1.29332e-19)
(1.1354 0.760463 0)
(1.06253 0.726383 0)
(0.985563 0.687432 -1.11375e-19)
(0.906487 0.640538 -6.97373e-19)
(0.835986 0.588402 -8.65917e-19)
(0.78566 0.541049 1.42868e-19)
(0.749565 0.497058 5.16521e-19)
(0.710609 0.452131 4.17405e-19)
(0.624934 0.391541 -1.47235e-18)
(0.483206 0.291898 -5.8756e-19)
(0.310906 0.18565 3.44659e-19)
(0.159108 0.0932381 0)
(0.0514531 0.0297795 9.67464e-19)
(-0.000733336 -0.000696199 -1.13852e-18)
(0.426528 0.290505 1.27656e-19)
(0.979405 0.636825 -1.57961e-19)
(1.22034 0.812815 0)
(1.27502 0.851339 -1.14485e-20)
(1.25076 0.856383 -6.45293e-21)
(1.19311 0.83133 0)
(1.11946 0.798876 5.19741e-20)
(1.04581 0.762804 7.40596e-20)
(0.96738 0.722246 -2.08687e-19)
(0.886589 0.673524 9.21541e-20)
(0.813899 0.618483 0)
(0.762634 0.566988 5.92634e-19)
(0.726073 0.522085 6.33933e-21)
(0.677688 0.472503 2.25381e-19)
(0.600229 0.397979 2.67069e-19)
(0.46473 0.304554 0)
(0.300012 0.192213 -5.60902e-19)
(0.154293 0.0976512 1.10023e-18)
(0.050798 0.0314658 -1.17078e-18)
(-2.7175e-05 -0.000165323 2.45362e-18)
(0.424579 0.305281 0)
(0.967885 0.665182 0)
(1.20592 0.848822 -7.83102e-20)
(1.26029 0.890286 0)
(1.23573 0.895654 0)
(1.17757 0.869089 -1.02259e-19)
(1.10341 0.835 5.31545e-20)
(1.02925 0.797377 1.79355e-20)
(0.949675 0.755018 -4.74209e-20)
(0.866543 0.704194 0)
(0.791003 0.647032 -1.3261e-19)
(0.735956 0.593011 -4.83477e-19)
(0.696122 0.540701 -5.83004e-19)
(0.657917 0.485702 -2.34633e-19)
(0.577494 0.416915 2.89286e-19)
(0.44695 0.308833 -6.81204e-19)
(0.290176 0.197293 1.20583e-18)
(0.149191 0.0995292 1.46823e-21)
(0.0493914 0.0330721 -1.11846e-18)
(0.00056316 0.000880872 -1.65535e-19)
(0.423359 0.319215 0)
(0.960288 0.696121 -1.27171e-19)
(1.19345 0.886018 9.45733e-20)
(1.24569 0.928219 0)
(1.22042 0.932632 0)
(1.16214 0.904653 2.02734e-19)
(1.08794 0.869267 0)
(1.01318 0.830035 0)
(0.932379 0.786589 -4.59239e-19)
(0.847579 0.734682 1.28748e-19)
(0.769336 0.675257 -1.17649e-18)
(0.712223 0.616787 0)
(0.672108 0.563539 -6.35678e-19)
(0.623146 0.502819 9.8405e-21)
(0.551584 0.41553 -9.32482e-19)
(0.428987 0.314161 3.662e-19)
(0.281059 0.196427 1.20023e-21)
(0.147816 0.0984783 -1.26529e-18)
(0.0494719 0.0308975 6.00638e-19)
(-0.00122126 -0.00191094 1.77058e-19)
(0.421883 0.332938 0)
(0.950169 0.72172 -1.71164e-19)
(1.17998 0.917388 9.94077e-20)
(1.23156 0.962196 1.41525e-19)
(1.20598 0.967001 -4.56027e-21)
(1.1473 0.937851 2.00395e-20)
(1.07277 0.901222 -2.95616e-20)
(0.997693 0.861003 4.32273e-19)
(0.915893 0.816323 4.91255e-19)
(0.82876 0.763011 9.79664e-19)
(0.74728 0.702527 9.77478e-19)
(0.685626 0.642443 1.7239e-19)
(0.639737 0.580654 9.14084e-19)
(0.600835 0.510854 5.6522e-19)
(0.526343 0.428432 6.69027e-19)
(0.411209 0.307696 -4.00531e-19)
(0.27288 0.189595 -4.59401e-19)
(0.151364 0.0971613 5.4594e-19)
(0.059211 0.0415102 -3.22922e-19)
(0.00734969 0.00915908 5.74362e-19)
(0.420863 0.346157 2.38302e-19)
(0.943553 0.74987 2.68421e-19)
(1.1684 0.950311 5.67375e-20)
(1.21771 0.995503 1.53739e-20)
(1.19146 0.999403 -1.97474e-20)
(1.13272 0.96918 -5.578e-20)
(1.05831 0.931654 2.8151e-20)
(0.982848 0.890199 -1.88839e-20)
(0.899979 0.844842 -5.73061e-19)
(0.811203 0.79112 -1.06375e-18)
(0.726729 0.729247 6.78761e-20)
(0.661782 0.664768 0)
(0.614909 0.602221 0)
(0.561953 0.526462 -2.95269e-19)
(0.495304 0.417516 -1.09836e-18)
(0.391378 0.300426 8.62938e-19)
(0.273157 0.172089 5.04256e-19)
(0.165708 0.0745775 0)
(0.0775632 0.00965694 1.03345e-18)
(0.0011488 -0.0188845 -6.11471e-19)
(0.419584 0.359032 -1.26509e-19)
(0.934692 0.772857 1.11384e-19)
(1.15592 0.977657 -1.35216e-19)
(1.20445 1.02509 -1.14874e-19)
(1.17797 1.02939 -2.27286e-20)
(1.11899 0.998243 -1.77923e-20)
(1.04444 0.95979 0)
(0.968802 0.917814 -5.43978e-19)
(0.885002 0.871678 6.90015e-20)
(0.794036 0.817181 0)
(0.706176 0.75526 0)
(0.635961 0.690956 1.10776e-19)
(0.579922 0.619634 1.48871e-19)
(0.53494 0.531141 -3.19659e-19)
(0.463051 0.426479 7.88009e-19)
(0.365285 0.27847 -9.40909e-19)
(0.2597 0.146436 -1.08341e-18)
(0.191285 0.0654418 9.60182e-19)
(0.149479 0.0657558 -3.6726e-19)
(0.109117 0.0738279 2.13646e-19)
(0.418701 0.371058 1.56356e-19)
(0.928875 0.798231 0)
(1.14524 1.00687 0)
(1.19158 1.05432 -3.24006e-20)
(1.16454 1.05771 2.62291e-20)
(1.10559 1.02573 -1.96506e-20)
(1.03129 0.986709 1.30218e-19)
(0.955347 0.943799 5.56458e-19)
(0.870616 0.89729 1.04102e-18)
(0.778189 0.842883 -8.06562e-20)
(0.687397 0.7806 1.67325e-19)
(0.612723 0.712751 -9.93506e-19)
(0.554901 0.641677 -9.93294e-19)
(0.489827 0.549347 -1.72134e-19)
(0.416871 0.408013 0)
(0.331368 0.265425 -3.99327e-21)
(0.243918 0.0713965 5.98717e-19)
(0.239966 -0.0398498 -1.00416e-18)
(0.207707 -0.113615 7.62827e-19)
(0.0886273 -0.1008 6.31112e-19)
(0.417373 0.382845 -3.44477e-19)
(0.920804 0.818555 -1.54659e-19)
(1.13361 1.03069 6.88681e-21)
(1.17923 1.08021 6.28197e-20)
(1.15204 1.08409 0)
(1.09291 1.05146 -4.24785e-20)
(1.01853 1.01181 -1.89679e-19)
(0.942447 0.968835 -2.22741e-21)
(0.856857 0.922045 -5.45453e-19)
(0.762362 0.867471 -7.92853e-20)
(0.668143 0.806229 7.36446e-20)
(0.587895 0.74103 8.73067e-19)
(0.516557 0.662408 9.68693e-19)
(0.455969 0.554024 1.68342e-19)
(0.375346 0.424466 8.57478e-19)
(0.270173 0.22859 0)
(0.144301 0.0506388 0)
(-0.0142604 0.170332 6.84804e-19)
(-0.078636 0.629385 -2.66833e-20)
(0.010085 1.54611 -8.51783e-19)
(0.416548 0.393844 1.89802e-19)
(0.9156 0.841564 4.37509e-19)
(1.1237 1.05704 -6.0684e-19)
(1.16717 1.10646 3.10694e-19)
(1.13941 1.1096 -1.18693e-20)
(1.08028 1.07652 7.85233e-21)
(1.00608 1.0368 0)
(0.929649 0.993392 -4.63358e-19)
(0.8432 0.946844 0)
(0.747385 0.893177 1.11384e-18)
(0.650092 0.832744 -9.05299e-20)
(0.564107 0.765312 1.01514e-19)
(0.491179 0.689958 1.11835e-18)
(0.400703 0.586536 -3.65791e-19)
(0.28622 0.406546 -4.34972e-19)
(0.180625 0.277098 0)
(0.0725662 0.452809 0)
(0.0240041 1.36587 0)
(0.0710222 2.4753 -3.88487e-19)
(0.0968837 2.91651 -2.40213e-19)
(0.414957 0.40439 0)
(0.908104 0.85943 0)
(1.11279 1.0779 2.20729e-19)
(1.15567 1.12945 -2.53094e-19)
(1.12773 1.13338 1.1913e-19)
(1.0684 1.10004 1.64515e-21)
(0.994106 1.06009 2.50535e-20)
(0.917573 1.01723 -1.95057e-20)
(0.830413 0.971165 7.77366e-20)
(0.732615 0.918254 -1.27841e-18)
(0.63159 0.860098 1.63824e-19)
(0.540378 0.798773 8.80404e-19)
(0.449194 0.719602 -1.11358e-18)
(0.361981 0.593301 -1.23146e-18)
(0.262635 0.462538 4.1329e-19)
(0.17838 0.612461 0)
(0.11165 1.59342 5.5992e-19)
(0.117096 2.70252 6.0209e-19)
(0.12446 3.09099 -6.72503e-19)
(0.117313 3.22364 7.149e-19)
(0.413918 0.414663 0)
(0.90345 0.880155 3.8158e-19)
(1.10368 1.10169 -5.52951e-20)
(1.14451 1.15306 3.48438e-19)
(1.11598 1.15639 -1.25047e-19)
(1.05664 1.12292 0)
(0.982526 1.08334 0)
(0.90569 1.0405 0)
(0.817857 0.995255 4.34389e-19)
(0.719032 0.944077 5.86967e-20)
(0.615464 0.887885 0)
(0.517953 0.825116 -8.74843e-19)
(0.430413 0.751861 0)
(0.305116 0.637709 8.81011e-19)
(0.19846 0.685376 -5.9817e-19)
(0.142855 1.46764 -4.78466e-19)
(0.147597 2.68894 -1.09633e-18)
(0.171336 3.12596 -5.75468e-19)
(0.161944 3.26495 -7.71332e-19)
(0.149201 3.30513 5.56779e-19)
(0.412254 0.423909 -1.32607e-19)
(0.896407 0.895573 1.4693e-20)
(1.09349 1.11975 -6.1225e-20)
(1.13393 1.17337 -2.70376e-19)
(1.1052 1.17777 0)
(1.04568 1.14436 0)
(0.971494 1.10485 0)
(0.894672 1.06302 3.28649e-20)
(0.806348 1.01888 -5.49509e-19)
(0.705843 0.969293 0)
(0.598803 0.916464 0)
(0.498738 0.862545 0)
(0.386203 0.783983 0)
(0.308581 0.730457 6.48557e-19)
(0.264032 1.13466 1.58837e-18)
(0.236509 2.40366 4.65047e-19)
(0.254359 3.08119 9.28678e-19)
(0.248934 3.27782 -7.11071e-19)
(0.2009 3.34314 2.59501e-19)
(0.169404 3.35643 0)
(0.411065 0.433028 1.36156e-19)
(0.892136 0.914759 -8.43583e-19)
(1.08498 1.14195 -2.27841e-19)
(1.12343 1.19524 -5.06448e-20)
(1.09413 1.19912 2.89899e-20)
(1.03462 1.1658 -1.17862e-19)
(0.960666 1.12698 -3.29998e-22)
(0.883628 1.08547 -3.58472e-19)
(0.794834 1.04257 0)
(0.693745 0.995397 -7.55465e-20)
(0.585466 0.945583 6.87263e-20)
(0.479372 0.88937 0)
(0.383308 0.824719 0)
(0.320795 0.924105 -8.12796e-19)
(0.264768 1.85161 1.02662e-19)
(0.261295 2.94507 -3.50103e-19)
(0.28672 3.28067 7.31981e-19)
(0.257915 3.37886 5.22581e-19)
(0.19375 3.40352 -7.05577e-19)
(0.169447 3.41382 3.47623e-19)
(0.408953 0.442402 2.66421e-19)
(0.884456 0.929407 8.20062e-19)
(1.07428 1.15922 2.74263e-19)
(1.11263 1.21511 0)
(1.08323 1.22031 0)
(1.02366 1.18713 9.1297e-20)
(0.949757 1.14839 5.10974e-20)
(0.87297 1.10809 3.19065e-19)
(0.784025 1.06659 2.12155e-20)
(0.681839 1.02153 9.61674e-19)
(0.571085 0.975637 -1.1493e-18)
(0.459656 0.92518 0)
(0.380353 0.904407 0)
(0.332746 1.30301 -5.55144e-19)
(0.327366 2.497 -6.65706e-19)
(0.372703 3.19328 0)
(0.398018 3.36075 -7.39557e-19)
(0.327114 3.42377 5.12847e-20)
(0.259102 3.46957 3.38499e-19)
(0.237097 3.49509 -1.09652e-19)
(0.40713 0.4521 -5.06072e-19)
(0.879615 0.950649 -3.93223e-19)
(1.06472 1.18382 0)
(1.1009 1.23876 0)
(1.071 1.24306 0)
(1.01162 1.2098 0)
(0.938213 1.17175 -6.20939e-20)
(0.861459 1.13166 2.77515e-19)
(0.772444 1.09137 0)
(0.670497 1.04897 -8.75182e-19)
(0.56044 1.00637 2.06346e-18)
(0.449615 0.963091 8.47286e-20)
(0.39588 1.02497 1.14516e-19)
(0.384466 1.73947 9.04501e-19)
(0.394948 2.90135 -4.86371e-19)
(0.435344 3.31215 0)
(0.418304 3.43331 2.08106e-19)
(0.33243 3.52262 9.10602e-20)
(0.25907 3.58708 1.488e-19)
(0.183544 3.56653 -1.629e-20)
(0.40412 0.462344 2.4037e-19)
(0.869919 0.966186 -3.99572e-19)
(1.05195 1.20205 0)
(1.08844 1.26001 -7.41153e-20)
(1.05859 1.26586 2.56167e-19)
(0.999341 1.2326 0)
(0.92624 1.19433 0)
(0.850144 1.15538 -4.81047e-19)
(0.761513 1.1165 -5.57101e-20)
(0.659387 1.07627 8.59153e-19)
(0.545387 1.03704 -9.80351e-19)
(0.451962 1.01462 5.7801e-19)
(0.412444 1.21516 0)
(0.419564 2.18576 -4.79827e-19)
(0.461436 3.14154 3.14447e-19)
(0.52684 3.41361 1.97499e-19)
(0.517758 3.50901 0)
(0.455312 3.59171 -3.68357e-20)
(0.386704 3.63112 -4.0921e-19)
(0.306388 3.60344 -9.65648e-20)
(0.401362 0.472783 -4.76983e-19)