/*--------------------------------*- C++ -*----------------------------------*\
  =========                 |
  \\      /  F ield         | OpenFOAM: The Open Source CFD Toolbox
   \\    /   O peration     | Website:  https://openfoam.org
    \\  /    A nd           | Version:  10
     \\/     M anipulation  |
\*---------------------------------------------------------------------------*/
FoamFile
{
    format      ascii;
    class       volScalarField;
    location    "5";
    object      p;
}
// * * * * * * * * * * * * * * * * * * * * * * * * * * * * * * * * * * * * * //

dimensions      [1 -1 -2 0 0 0 0];

internalField   nonuniform List<scalar> 
16128
(
1
1
1
1
1
1
1
1
1
1
1
1
1
1
1
1
1
1
1
1
1
1
1
1
4.86133
10.2505
10.5309
10.6173
10.7342
10.8404
10.9447
11.0435
11.1373
11.2276
11.3145
11.396
11.4714
11.5435
11.6152
11.6846
11.7479
11.8028
11.8524
11.8991
11.9446
11.9794
12.0003
12.0173
1
1
1
1
1
1
1
1
1
1
1
1
1
1
1
1
1
1
1
1
1
1
1
1
4.78421
10.2127
10.5243
10.6127
10.7296
10.8358
10.9397
11.0383
11.1318
11.2215
11.3075
11.3883
11.4638
11.5363
11.6072
11.6745
11.7357
11.79
11.8405
11.888
11.9324
11.9644
11.9822
11.9992
1
1
1
1
1
1
1
1
1
1
1
1
1
1
1
1
1
1
1
1
1
1
1
1
4.61435
10.168
10.5084
10.5995
10.7171
10.8239
10.9282
11.0271
11.1207
11.2098
11.2949
11.3756
11.4521
11.5251
11.5946
11.6591
11.7183
11.7727
11.8242
11.8709
11.9116
11.9394
11.9527
11.9741
1
1
1
1
1
1
1
1
1
1
1
1
1
1
1
1
1
1
1
1
1
1
1
1
4.36756
10.0961
10.49
10.5832
10.7009
10.8076
10.9113
11.0096
11.1026
11.1907
11.2746
11.3546
11.4314
11.5047
11.5728
11.6351
11.6932
11.748
11.8004
11.8456
11.8812
11.905
11.9118
11.9385
1
1
1
1
1
1
1
1
1
1
1
1
1
1
1
1
1
1
1
1
1
1
1
1
4.04956
9.9885
10.4685
10.5632
10.6807
10.7868
10.8894
10.9867
11.0787
11.1655
11.2477
11.3262
11.4022
11.4747
11.5414
11.6017
11.6583
11.7126
11.7643
11.8072
11.8381
11.8613
11.8707
11.895
1
1
1
1
1
1
1
1
1
1
1
1
1
1
1
1
1
1
1
1
1
1
1
1
3.66162
9.83167
10.445
10.5409
10.6584
10.764
10.8657
10.962
11.0531
11.1387
11.2193
11.2958
11.3699
11.4407
11.5059
11.5643
11.6188
11.6704
11.7184
11.7566
11.7827
11.8046
11.8176
11.8434
1
1
1
1
1
1
1
1
1
1
1
1
1
1
1
1
1
1
1
1
1
1
1
1
3.22207
9.60191
10.4195
10.5143
10.6309
10.7347
10.8347
10.9292
11.0186
11.1024
11.1811
11.2549
11.326
11.3945
11.4582
11.5152
11.5679
11.6171
11.6626
11.6986
11.7217
11.7385
11.7406
11.7811
1
1
1
1
1
1
1
1
1
1
1
1
1
1
1
1
1
1
1
1
1
1
1
1
2.74668
9.27887
10.4029
10.4895
10.603
10.7021
10.7977
10.8881
10.9739
11.0547
11.1309
11.202
11.2702
11.3361
11.3983
11.4543
11.505
11.551
11.5935
11.6281
11.6513
11.6697
11.6458
11.6965
1
1
1
1
1
1
1
1
1
1
1
1
1
1
1
1
1
1
1
1
1
1
1
1
2.25959
8.84309
10.412
10.4675
10.5762
10.67
10.763
10.8503
10.9325
11.0094
11.0821
11.1489
11.2121
11.2728
11.3309
11.3831
11.4297
11.4711
11.5092
11.5407
11.5602
11.5758
11.5398
11.6058
1
1
1
1
1
1
1
1
1
1
1
1
1
1
1
1
1
1
1
1
1
1
1
1
1.76697
8.26753
10.4261
10.4387
10.5452
10.6312
10.7198
10.8038
10.8837
10.9576
11.0269
11.0901
11.1483
11.2026
11.2544
11.3008
11.3419
11.3782
11.4116
11.4393
11.4543
11.4636
11.4159
11.4811
1
1
1
1
1
1
1
1
1
1
1
1
1
1
1
1
1
1
1
1
1
1
1
1
1.31025
7.60351
10.4651
10.3902
10.4873
10.5699
10.6608
10.7457
10.8237
10.8951
10.9616
11.0219
11.0759
11.1241
11.1687
11.2078
11.2411
11.2692
11.2928
11.3119
11.3203
11.3223
11.2666
11.3369
1
1
1
1
1
1
1
1
1
1
1
1
1
1
1
1
1
1
1
1
1
1
1
1
1.01758
6.81061
10.3065
10.3089
10.4116
10.4978
10.5861
10.6705
10.7514
10.8229
10.8863
10.9433
10.9933
11.0356
11.0722
11.1023
11.1252
11.1438
11.1574
11.1688
11.1682
11.1541
11.0827
11.1349
1
1
1
1
1
1
1
1
1
1
1
1
1
1
1
1
1
1
1
1
1
1
1
1
1.00008
5.78123
10.0917
10.2278
10.34
10.4387
10.5267
10.6074
10.674
10.7379
10.7979
10.851
10.8967
10.9335
10.9624
10.983
10.9944
11.0008
10.9977
10.9886
10.9608
10.9243
10.8356
10.8975
1
1
1
1
1
1
1
1
1
1
1
1
1
1
1
1
1
1
1
1
1
1
1
1
1
4.72329
9.80196
10.1415
10.2586
10.3633
10.444
10.5154
10.5816
10.6427
10.6945
10.742
10.783
10.8143
10.8362
10.8472
10.8435
10.8334
10.8088
10.7797
10.7321
10.6719
10.5431
10.5196
1
1
1
1
1
1
1
1
1
1
1
1
1
1
1
1
1
1
1
1
1
1
1
1
1
3.6341
9.36851
10.0976
10.229
10.3195
10.389
10.4455
10.496
10.5414
10.5861
10.6251
10.6569
10.6811
10.695
10.6933
10.6746
10.6456
10.5948
10.5323
10.4266
10.2734
10.0585
9.99806
1
1
1
1
1
1
1
1
1
1
1
1
1
1
1
1
1
1
1
1
1
1
1
1
1
2.5402
8.67725
10.1095
10.1785
10.25
10.3159
10.3698
10.4143
10.4505
10.4802
10.5055
10.5242
10.537
10.5373
10.522
10.4865
10.4327
10.3451
10.234
10.0657
9.86762
9.55361
9.50804
1
1
1
1
1
1
1
1
1
1
1
1
1
1
1
1
1
1
1
1
1
1
1
1
1
1.53249
7.88659
10.198
10.1168
10.1836
10.2447
10.29
10.3261
10.3545
10.3748
10.3889
10.393
10.3915
10.3727
10.3409
10.2836
10.2016
10.0756
9.91864
9.6627
9.29629
8.38338
6.36056
1
1
1
1
1
1
1
1
1
1
1
1
1
1
1
1
1
1
1
1
1
1
1
1
1
1.03687
6.7117
10.0867
10.0143
10.0787
10.1431
10.192
10.2277
10.2516
10.2641
10.2673
10.2586
10.2391
10.202
10.1512
10.0688
9.95709
9.78919
9.56555
9.20987
8.59247
7.62146
5.34979
1
1
1
1
1
1
1
1
1
1
1
1
1
1
1
1
1
1
1
1
1
1
1
1
1
1.00005
5.12191
9.62714
9.86546
9.97602
10.0379
10.0865
10.1235
10.143
10.1494
10.1435
10.1218
10.0863
10.031
9.95993
9.85114
9.70861
9.49998
9.20997
8.78346
8.11144
7.00786
5.0914
1
1
1
1
1
1
1
1
1
1
1
1
1
1
1
1
1
1
1
1
1
1
1
1
1
0.999999
3.5812
9.15617
9.85359
9.92663
9.97335
9.99833
10.0221
10.0311
10.0301
10.0158
9.98195
9.93187
9.85807
9.76502
9.63306
9.46193
9.21873
8.88336
8.4007
7.71811
6.59464
5.06329
1
1
1
1
1
1
1
1
1
1
1
1
1
1
1
1
1
1
1
1
1
1
1
1
1
1
2.12964
8.33581
9.86658
9.85406
9.89246
9.9175
9.93357
9.92947
9.91619
9.88913
9.84253
9.77882
9.68748
9.57343
9.42176
9.22497
8.95624
8.59407
8.09381
7.40988
6.36954
5.17171
1
1
1
1
1
1
1
1
1
1
1
1
1
1
1
1
1
1
1
1
1
1
1
1
1
1
1.13771
7.04525
9.90983
9.81225
9.80494
9.82363
9.82968
9.81715
9.79452
9.75742
9.70157
9.62668
9.52128
9.38953
9.22029
9.00105
8.71648
8.34104
7.84752
7.18363
6.27303
5.29565
1
1
1
1
1
1
1
1
1
1
1
1
1
1
1
1
1
1
1
1
1
1
1
1
1
1
1.00158
5.32367
9.39081
9.63145
9.69015
9.71359
9.71526
9.69968
9.66951
9.62413
9.55926
9.47396
9.35825
9.21309
9.02993
8.79717
8.50361
8.12486
7.64208
7.02534
6.24275
5.4196
1
1
1
1
1
1
1
1
1
1
1
1
1
1
1
1
1
1
1
1
1
1
1
1
1
1
0.99998
3.34905
8.82326
9.57474
9.62109
9.63739
9.62698
9.60156
9.56038
9.50442
9.42832
9.33137
9.2061
9.04991
8.85514
8.61415
8.31737
7.94455
7.47659
6.91399
6.23934
5.5257
1
1
1
1
1
1
1
1
1
1
1
1
1
1
1
1
1
1
1
1
1
1
1
1
1
1
0.999995
1.66718
7.94668
9.6513
9.56166
9.54372
9.52005
9.48737
9.43981
9.3778
9.29462
9.19011
9.05726
8.89356
8.69245
8.44847
8.15405
7.79218
7.34793
6.83242
6.24295
5.62506
1
1
1
1
1
1
1
1
1
1
1
1
1
1
1
1
1
1
1
1
1
1
1
1
1
1
0.999999
1.04494
6.29712
9.35175
9.3779
9.40558
9.38969
9.365
9.31892
9.25479
9.16732
9.05744
8.91943
8.75088
8.54568
8.30154
8.01151
7.6596
7.24727
6.77382
6.24978
5.70554
1
1
1
1
1
1
1
1
1
1
1
1
1
1
1
1
1
1
1
1
1
1
1
1
1
1
1
1.00001
4.02634
8.85213
9.30885
9.33804
9.31495
9.27926
9.22356
9.14929
9.05269
8.93429
8.79078
8.61912
8.41278
8.17325
7.88552
7.54531
7.16279
6.73299
6.2608
5.77645
1
1
1
1
1
1
1
1
1
1
1
1
1
1
1
1
1
1
1
1
1
1
1
1
1
1
1
0.999995
1.95707
8.07487
9.34752
9.26562
9.21604
9.17239
9.11495
9.03724
8.93667
8.81457
8.66693
8.49639
8.28986
8.05773
7.77183
7.44843
7.09117
6.70118
6.2661
5.83351
1
1
1
1
1
1
1
1
1
1
1
1
1
1
1
1
1
1
1
1
1
1
1
1
1
1
1
0.999999
1.08326
6.31178
9.11218
9.13133
9.10084
9.06591
9.01073
8.93174
8.82858
8.70428
8.55583
8.38295
8.18528
7.95021
7.67643
7.37099
7.03797
6.67634
6.27616
5.8859
1
1
1
1
1
1
1
1
1
1
1
1
1
1
1
1
1
1
1
1
1
1
1
1
1
1
1
1
1.00032
3.74447
8.58353
9.05919
9.02799
8.99988
8.94046
8.85034
8.73739
8.60644
8.45495
8.27811
8.08653
7.85209
7.59316
7.30469
6.99392
6.65198
6.28726
5.92492
1
1
1
1
1
1
1
1
1
1
1
1
1
1
1
1
1
1
1
1
1
1
1
1
1
1
1
1
0.999997
1.55156
7.64462
9.18456
9.00392
8.91956
8.84435
8.74698
8.63435
8.50749
8.35931
8.18505
7.9949
7.77
7.52358
7.25067
6.95868
6.63577
6.30181
5.95916
1
1
1
1
1
1
1
1
1
1
1
1
1
1
1
1
1
1
1
1
1
1
1
1
1
1
1
1
0.999999
1.0269
5.6513
8.74622
8.78697
8.80694
8.73767
8.6414
8.53531
8.41492
8.27121
8.10349
7.91209
7.69762
7.46051
7.20152
6.92447
6.62155
6.31032
5.9859
1
1
1
1
1
1
1
1
1
1
1
1
1
1
1
1
1
1
1
1
1
1
1
1
1
1
1
1
1
0.999932
2.88882
8.08497
8.78559
8.75532
8.66693
8.5727
8.46812
8.34658
8.20144
8.03347
7.84342
7.63396
7.40463
7.15859
6.89471
6.61063
6.31693
6.01242
1
1
1
1
1
1
1
1
1
1
1
1
1
1
1
1
1
1
1
1
1
1
1
1
1
1
1
1
1
0.999981
1.25553
6.60505
8.81633
8.67509
8.5821
8.49166
8.38976
8.26949
8.12587
7.96182
7.77857
7.57651
7.35564
7.11969
6.86651
6.59761
6.31882
6.03378
1
1
1
1
1
1
1
1
1
1
1
1
1
1
1
1
1
1
1
1
1
1
1
1
1
1
1
1
1
0.999997
1.00513
3.98976
8.22549
8.511
8.48239
8.42379
8.33111
8.21078
8.06623
7.90383
7.7243
7.52724
7.31285
7.08383
6.84063
6.58563
6.32172
6.0533
1
1
1
1
1
1
1
1
1
1
1
1
1
1
1
1
1
1
1
1
1
1
1
1
1
1
1
1
1
1
0.999984
1.56006
7.0928
8.64008
8.48753
8.39244
8.28393
8.15323
8.00612
7.84561
7.67034
7.47926
7.27233
7.05132
6.81811
6.57484
6.32456
6.06882
1
1
1
1
1
1
1
1
1
1
1
1
1
1
1
1
1
1
1
1
1
1
1
1
1
1
1
1
1
1
0.999996
1.02583
4.74691
8.23031
8.33384
8.29626
8.20679
8.08598
7.94626
7.79092
7.62032
7.43437
7.23414
7.02069
6.7964
6.56408
6.32573
6.08156
1
1
1
1
1
1
1
1
1
1
1
1
1
1
1
1
1
1
1
1
1
1
1
1
1
1
1
1
1
1
0.999999
1.00002
1.86208
7.31917
8.44243
8.29603
8.17801
8.04878
7.90537
7.74817
7.57676
7.39255
7.19711
6.99087
6.77617
6.55542
6.32852
6.09582
1
1
1
1
1
1
1
1
1
1
1
1
1
1
1
1
1
1
1
1
1
1
1
1
1
1
1
1
1
1
1
1
1.05795
5.16664
8.14635
8.18302
8.1053
7.9882
7.85028
7.69653
7.52832
7.34879
7.15954
6.962
6.75772
6.54733
6.3311
6.1099
1
1
1
1
1
1
1
1
1
1
1
1
1
1
1
1
1
1
1
1
1
1
1
1
1
1
1
1
1
1
1
1
1.00021
2.08489
7.30415
8.22659
8.08484
7.95381
7.81145
7.65709
7.49094
7.31618
7.13354
6.9435
6.74706
6.54437
6.33669
6.12538
1
1
1
1
1
1
1
1
1
1
1
1
1
1
1
1
1
1
1
1
1
1
1
1
1
1
1
1
1
1
1
1
1
1.08739
5.2551
8.03405
8.01113
7.89248
7.7575
7.6079
7.44814
7.27984
7.10391
6.92097
6.73231
6.5387
6.3402
6.13732
1
1
1
1
1
1
1
1
1
1
1
1
1
1
1
1
1
1
1
1
1
1
1
1
1
1
1
1
1
1
1
1
1
1.00058
2.16166
7.14713
8.01845
7.85628
7.7218
7.57323
7.41686
7.25314
7.08355
6.90822
6.72726
6.54142
6.35036
6.15392
1
1
1
1
1
1
1
1
1
1
1
1
1
1
1
1
1
1
1
1
1
1
1
1
1
1
1
1
1
1
1
1
1
1
1.09776
5.06107
7.8345
7.79909
7.67217
7.53139
7.37954
7.22323
7.06197
6.89499
6.7216
6.5418
6.35636
6.16735
1
1
1
1
1
1
1
1
1
1
1
1
1
1
1
1
1
1
1
1
1
1
1
1
1
1
1
1
1
1
1
1
1
1
1.00084
2.07403
6.81985
7.79652
7.63712
7.50263
7.35463
7.20588
7.05148
6.88997
6.72131
6.54613
6.3656
6.18291
1
1
1
1
1
1
1
1
1
1
1
1
1
1
1
1
1
1
1
1
1
1
1
1
1
1
1
1
1
1
1
1
1
1
1
1.08324
4.52813
7.56274
7.59268
7.46399
7.32774
7.18815
7.03987
6.88258
6.71752
6.54706
6.37297
6.19649
1
1
1
1
1
1
1
1
1
1
1
1
1
1
1
1
1
1
1
1
1
1
1
1
1
1
1
1
1
1
1
1
1
1
1
1.00077
1.81788
6.30753
7.58792
7.44742
7.32827
7.18672
7.03477
6.87708
6.7153
6.5504
6.38329
6.21439
1
1
1
1
1
1
1
1
1
1
1
1
1
1
1
1
1
1
1
1
1
1
1
1
1
1
1
1
1
1
1
1
1
1
1
1
1.04973
3.61854
7.19528
7.43747
7.30986
7.16654
7.01757
6.86539
6.71272
6.55689
6.39547
6.23238
1
1
1
1
1
1
1
1
1
1
1
1
1
1
1
1
1
1
1
1
1
1
1
1
1
1
1
1
1
1
1
1
1
1
1
1
1.00044
1.46321
5.61717
7.48091
7.30032
7.15281
7.01098
6.86774
6.72279
6.57337
6.4144
6.25209
1
1
1
1
1
1
1
1
1
1
1
1
1
1
1
1
1
1
1
1
1
1
1
1
1
1
1
1
1
1
1
1
1
1
1
1
1
1.01739
2.6925
6.67452
7.25405
7.13281
7.00895
6.87231
6.72723
6.57872
6.42656
6.26371
1
1
1
1
1
1
1
1
1
1
1
1
1
1
1
1
1
1
1
1
1
1
1
1
1
1
1
1
1
1
1
1
1
1
1
1
1
1.00012
1.1978
4.5576
7.19398
7.16524
7.03897
6.89602
6.74604
6.59248
6.44207
6.28287
1
1
1
1
1
1
1
1
1
1
1
1
1
1
1
1
1
1
1
1
1
1
1
1
1
1
1
1
1
1
1
1
1
1
1
1
1
1
1.00396
1.89866
5.95771
7.15245
7.01165
6.87276
6.7306
6.58541
6.43767
6.29364
1
1
1
1
1
1
1
1
1
1
1
1
1
1
1
1
1
1
1
1
1
1
1
1
1
1
1
1
1
1
1
1
1
1
1
1
1
1
1.00002
1.05994
3.24249
6.65672
7.00305
6.88591
6.74992
6.60861
6.46644
6.31847
1
1
1
1
1
1
1
1
1
1
1
1
1
1
1
1
1
1
1
1
1
1
1
1
1
1
1
1
1
1
1
1
1
1
1
1
1
1
1
1.00072
1.34306
4.81185
6.95265
6.91273
6.7743
6.63735
6.48649
6.34619
1
1
1
1
1
1
1
1
1
1
1
1
1
1
1
1
1
1
1
1
1
1
1
1
1
1
1
1
1
1
1
1
1
1
1
1
1
1
1
1
1.01066
2.09565
5.88643
6.87584
6.76871
6.63171
6.47813
6.34142
1
1
1
1
1
1
1
1
1
1
1
1
1
1
1
1
1
1
1
1
1
1
1
1
1
1
1
1
1
1
1
1
1
1
1
1
1
1
1
1
1.00008
1.08755
3.29645
6.43221
6.78201
6.64478
6.49776
6.38703
1
1
1
1
1
1
1
1
1
1
1
1
1
1
1
1
1
1
1
1
1
1
1
1
1
1
1
1
1
1
1
1
1
1
1
1
1
1
1
1
1
1.00133
1.36518
4.57444
6.72097
6.60152
6.59989
7.09576
1
1
1
1
1
1
1
1
1
1
1
1
1
1
1
1
1
1
1
1
1
1
1
1
1
1
1
1
1
1
1
1
1
1
1
1
1
1
1
1
1
1.00001
1.0122
1.98366
5.63791
6.4157
7.5224
9.20397
1
1
1
1
1
1
1
1
1
1
1
1
1
1
1
1
1
1
1
1
1
1
1
1
1
1
1
1
1
1
1
1
1
1
1
1
1
1
1
1
1
1
1.0001
1.07374
2.87691
6.56952
10.1128
10.7689
1
1
1
1
1
1
1
1
1
1
1
1
1
1
1
1
1
1
1
1
1
1
1
1
1
1
1
1
1
1
1
1
1
1
1
1
1
1
1
1
1
1
1
1.00106
1.26619
7.50502
11.8767
11.1585
1
1
1
1
1
1
1
1
1
1
1
1
1
1
1
1
1
1
1
1
1
1
1
1
1
1
1
1
1
1
1
1
1
1
1
1
1
1
1
1
1
1
1
1.00001
1.16094
7.69092
11.4148
10.6915
1
1
1
1
1
1
1
1
1
1
1
1
1
1
1
1
1
1
1
1
1
1
1
1
1
1
1
1
1
1
1
1
1
1
1
1
1
1
1
1
1
1
1
1
1.23133
7.48313
10.8919
10.5126
1
1
1
1
1
1
1
1
1
1
1
1
1
1
1
1
1
1
1
1
1
1
1
1
1
1
1
1
1
1
1
1
1
1
1
1
1
1
1
1
1
1
1
1
1.13868
7.05297
10.5591
10.4065
1
1
1
1
1
1
1
1
1
1
1
1
1
1
1
1
1
1
1
1
1
1
1
1
1
1
1
1
1
1
1
1
1
1
1
1
1
1
1
1
1
1
1
1
1.00918
6.48845
10.3711
10.3539
1
1
1
1
1
1
1
1
1
1
1
1
1
1
1
1
1
1
1
1
1
1
1
1
1
1
1
1
1
1
1
1
1
1
1
1
1
1
1
1
1
1
1
1
1.0001
5.80968
10.2357
10.3686
1
1
1
1
1
1
1
1
1
1
1
1
1
1
1
1
1
1
1
1
1
1
1
1
1
1
1
1
1
1
1
1
1
1
1
1
1
1
1
1
1
1
1
1
1
5.14627
10.0997
10.3696
1
1
1
1
1
1
1
1
1
1
1
1
1
1
1
1
1
1
1
1
1
1
1
1
1
1
1
1
1
1
1
1
1
1
1
1
1
1
1
1
1
1
1
1
1
4.51142
9.97537
10.3844
1
1
1
1
1
1
1
1
1
1
1
1
1
1
1
1
1
1
1
1
1
1
1
1
1
1
1
1
1
1
1
1
1
1
1
1
1
1
1
1
1
1
1
1
1
3.92966
9.8249
10.4142
1
1
1
1
1
1
1
1
1
1
1
1
1
1
1
1
1
1
1
1
1
1
1
1
1
1
1
1
1
1
1
1
1
1
1
1
1
1
1
1
1
1
1
1
1
3.41642
9.64817
10.4485
1
1
1
1
1
1
1
1
1
1
1
1
1
1
1
1
1
1
1
1
1
1
1
1
1
1
1
1
1
1
1
1
1
1
1
1
1
1
1
1
1
1
1
1
1
2.97263
9.45398
10.4811
1
1
1
1
1
1
1
1
1
1
1
1
1
1
1
1
1
1
1
1
1
1
1
1
1
1
1
1
1
1
1
1
1
1
1
1
1
1
1
1
1
1
1
1
1
2.58918
9.26238
10.5117
1
1
1
1
1
1
1
1
1
1
1
1
1
1
1
1
1
1
1
1
1
1
1
1
1
1
1
1
1
1
1
1
1
1
1
1
1
1
1
1
1
1
1
1
1
2.30146
9.048
10.5265
1
1
1
1
1
1
1
1
1
1
1
1
1
1
1
1
1
1
1
1
1
1
1
1
1
1
1
1
1
1
1
1
1
1
1
1
1
1
1
1
1
1
1
1
1
2.08192
8.83299
10.5245
1
1
1
1
1
1
1
1
1
1
1
1
1
1
1
1
1
1
1
1
1
1
1
1
1
1
1
1
1
1
1
1
1
1
1
1
1
1
1
1
1
1
1
1
1
1.91136
8.63858
10.5137
1
1
1
1
1
1
1
1
1
1
1
1
1
1
1
1
1
1
1
1
1
1
1
1
1
1
1
1
1
1
1
1
1
1
1
1
1
1
1
1
1
1
1
1
1
1.78525
8.47182
10.4985
1
1
1
1
1
1
1
1
1
1
1
1
1
1
1
1
1
1
1
1
1
1
1
1
1
1
1
1
1
1
1
1
1
1
1
1
1
1
1
1
1
1
1
1
1
1.69452
8.33611
10.4865
1
1
1
1
1
1
1
1
1
1
1
1
1
1
1
1
1
1
1
1
1
1
1
1
1
1
1
1
1
1
1
1
1
1
1
1
1
1
1
1
1
1
1
1
1
1.63111
8.23302
10.4823
1
1
1
1
1
1
1
1
1
1
1
1
1
1
1
1
1
1
1
1
1
1
1
1
1
1
1
1
1
1
1
1
1
1
1
1
1
1
1
1
1
1
1
1
1
1.59062
8.16479
10.4882
1
1
1
1
1
1
1
1
1
1
1
1
1
1
1
1
1
1
1
1
1
1
1
1
1
1
1
1
1
1
1
1
1
1
1
1
1
1
1
1
1
1
1
1
1
1.56779
8.13003
10.5045
1
1
1
1
1
1
1
1
1
1
1
1
1
1
1
1
1
1
1
1
1
1
1
1
1
1
1
1
1
1
1
1
1
1
1
1
1
1
1
1
1
1
1
1
1
1.55908
8.11757
10.5195
1
1
1
1
1
1
1
1
1
1
1
1
1
1
1
1
1
1
1
1
1
1
1
1
1
1
1
1
1
1
1
1
1
1
1
1
1
1
1
1
1
1
1
1
1
1.56268
8.12139
10.5367
1.26041
0.199829
0.0136263
0.0188261
0.0401226
0.0812763
0.115058
0.161027
0.225353
0.277962
0.334683
0.401304
0.448163
0.511654
0.611338
0.691188
0.748218
0.804841
0.858
0.90622
0.956829
0.993794
1.05313
1.08386
1.08239
1.08378
1.07326
1.07011
1.07052
1.10444
1.18098
1.23965
1.27065
1.28028
1.25716
1.20219
1.17854
1.17796
1.23111
1.31369
1.35683
1.37843
1.34558
1.26178
1.23888
1.7093
4.36611
5.40576
5.47774
5.55349
5.62534
5.63428
5.66247
5.69457
5.7137
5.71368
5.70344
5.69722
5.70184
5.7107
5.70691
5.68685
5.66244
5.64445
5.63729
5.6369
5.63529
5.62851
5.61711
5.60037
5.57562
5.54469
5.51544
5.49541
5.48313
5.47232
5.45662
5.42973
5.39293
5.35581
5.326
5.30517
5.28928
5.27125
5.2449
5.21102
5.17651
5.14741
5.12362
5.09699
5.05872
5.01086
4.96324
4.9241
4.89641
4.87514
4.85146
4.81848
4.77613
4.73109
4.69025
4.65776
4.63214
4.60762
4.57777
4.54007
4.49722
4.45449
4.41677
4.38703
4.36467
4.3459
4.32597
4.30142
4.2715
4.23772
4.2029
4.17026
4.1418
4.11696
4.09284
4.06696
4.03854
4.00743
3.97409
3.94063
3.90981
3.88371
3.86262
3.8453
3.82846
3.80731
3.77703
3.73984
3.69928
3.65651
3.61941
3.59366
3.5765
3.55391
3.52333
3.48944
3.45299
3.41837
3.38974
3.3729
3.36056
3.34399
3.32255
3.29657
3.26708
3.2309
3.19077
3.15664
3.129
3.10966
3.09617
3.08286
3.069
3.05339
3.03255
3.00632
2.97043
2.93003
2.89192
2.85895
2.83228
2.8113
2.79902
2.7904
2.78093
2.77012
2.75886
2.7478
2.73268
2.71043
2.67353
2.62382
2.57443
2.53295
2.50421
2.48651
2.47972
2.47394
2.46736
2.46177
2.45466
2.44487
2.42821
2.39361
2.35009
2.29649
2.07554
0.956961
0.426831
0.271094
0.201332
0.14541
0.139592
0.152941
0.184614
0.204958
0.218196
0.261925
0.349469
0.410929
0.445442
0.491854
0.559787
0.643127
0.701361
0.748161
0.814734
0.893402
0.968724
1.01108
1.02212
1.03985
1.06869
1.1076
1.12451
1.1407
1.15051
1.15273
1.15767
1.17435
1.19381
1.22407
1.25806
1.27992
1.28128
1.26746
1.25127
1.23616
1.2476
1.30603
1.32917
1.45691
3.88613
5.47167
5.52984
5.60574
5.66027
5.66566
5.66663
5.6928
5.70677
5.70752
5.70216
5.70379
5.71265
5.71877
5.70822
5.68442
5.66083
5.64614
5.64239
5.64174
5.63396
5.61689
5.59788
5.58445
5.57757
5.56981
5.54819
5.51194
5.47213
5.43914
5.4168
5.40275
5.38993
5.37228
5.34908
5.32243
5.29382
5.26388
5.23328
5.20303
5.17341
5.14376
5.11264
5.07986
5.04693
5.0122
4.97558
4.9413
4.90993
4.87724
4.84063
4.80301
4.76677
4.73191
4.69878
4.66785
4.63718
4.60358
4.5668
4.52835
4.49003
4.45314
4.41883
4.39054
4.36906
4.34887
4.32502
4.29719
4.26676
4.23554
4.20447
4.17401
4.14427
4.115
4.08618
4.05728
4.02765
3.99792
3.96901
3.94157
3.91559
3.89084
3.86693
3.84297
3.81665
3.78654
3.75386
3.72032
3.68786
3.65765
3.62717
3.5966
3.56831
3.53972
3.51062
3.48065
3.45165
3.42496
3.40123
3.37935
3.35695
3.33313
3.30805
3.28042
3.25029
3.2195
3.19083
3.16446
3.14056
3.12062
3.1028
3.08413
3.06413
3.04029
3.01015
2.97718
2.94574
2.91766
2.89255
2.8692
2.84665
2.82598
2.80863
2.79409
2.78182
2.77164
2.75899
2.74216
2.71286
2.67118
2.63202
2.60042
2.57471
2.55149
2.5268
2.50537
2.49236
2.48484
2.47821
2.46946
2.45589
2.42866
2.39352
2.36037
2.33265
2.30854
2.81939
1.70142
1.08381
0.789411
0.630379
0.469789
0.311076
0.282918
0.30637
0.309167
0.29222
0.295614
0.341064
0.354053
0.348413
0.355069
0.380589
0.437666
0.520728
0.60373
0.677308
0.764271
0.84011
0.908557
0.951897
0.994669
1.04776
1.11597
1.16058
1.16297
1.14707
1.13378
1.13942
1.17279
1.23255
1.26796
1.27861
1.27774
1.2448
1.21547
1.21048
1.22562
1.29511
1.34824
1.34876
1.33421
2.89934
5.52306
5.85198
5.81823
5.78475
5.7099
5.68959
5.71457
5.72608
5.71703
5.70423
5.69993
5.71319
5.72698
5.72082
5.69253
5.66138
5.63975
5.63143
5.62927
5.62274
5.60447
5.57841
5.55713
5.55237
5.55982
5.56089
5.53112
5.48171
5.43155
5.39043
5.36988
5.3692
5.36946
5.35813
5.33381
5.30144
5.26573
5.23137
5.20027
5.17031
5.13627
5.09671
5.05793
5.02663
5.0042
4.98405
4.95712
4.92086
4.87785
4.8337
4.79312
4.76063
4.73597
4.70985
4.6755
4.63552
4.59355
4.55014
4.51088
4.4769
4.44568
4.41926
4.39806
4.37887
4.35489
4.32501
4.29474
4.26583
4.23758
4.21001
4.18109
4.14936
4.11498
4.08022
4.04791
4.01819
3.99107
3.96722
3.94688
3.9256
3.90041
3.87214
3.84134
3.80835
3.77312
3.73855
3.70936
3.68557
3.66313
3.63645
3.60114
3.56178
3.52992
3.50341
3.47942
3.45832
3.43929
3.41578
3.38676
3.35419
3.32356
3.29478
3.26589
3.23829
3.2158
3.19751
3.17839
3.15648
3.13142
3.10541
3.07993
3.0526
3.02033
2.98531
2.9549
2.93234
2.91543
2.90071
2.88502
2.86734
2.84616
2.82127
2.7956
2.77466
2.75868
2.74085
2.71522
2.67645
2.63697
2.61334
2.5999
2.58947
2.57643
2.55822
2.53366
2.50732
2.48785
2.47287
2.4554
2.42857
2.39276
2.36262
2.34408
2.3364
2.32543
3.43681
2.47945
1.79031
1.27414
1.0521
0.891484
0.736952
0.565085
0.480418
0.474711
0.445729
0.415028
0.416243
0.422053
0.414536
0.397994
0.398704
0.409463
0.43037
0.456065
0.486028
0.536578
0.60406
0.695879
0.80531
0.885921
0.949495
1.02357
1.09048
1.11132
1.10231
1.10748
1.13566
1.1805
1.22488
1.2421
1.24423
1.2359
1.20943
1.20204
1.21856
1.27426
1.32689
1.33282
1.31898
1.27435
1.99882
5.50118
6.39363
6.13374
5.94722
5.74623
5.6958
5.75312
5.78929
5.78313
5.73516
5.69589
5.69419
5.71019
5.72694
5.7237
5.69361
5.65728
5.62789
5.6112
5.60565
5.60588
5.60112
5.58524
5.56748
5.55325
5.54031
5.5199
5.48541
5.44329
5.4076
5.38838
5.37995
5.36917
5.34942
5.32274
5.29246
5.26068
5.22976
5.19832
5.16295
5.12371
5.08363
5.04653
5.01871
5.00424
4.99156
4.96232
4.92091
4.87639
4.83218
4.79313
4.76337
4.73966
4.70779
4.67016
4.62976
4.5837
4.54019
4.50673
4.47827
4.45398
4.4356
4.4147
4.38782
4.35769
4.3231
4.29019
4.26353
4.23805
4.21148
4.18261
4.15035
4.11388
4.07494
4.04099
4.01459
3.99241
3.97373
3.95423
3.93098
3.9041
3.87205
3.83618
3.80009
3.76635
3.73715
3.71303
3.69091
3.66738
3.63837
3.59885
3.555
3.52408
3.50235
3.48316
3.4673
3.44811
3.42352
3.39393
3.35547
3.31417
3.28155
3.25732
3.23825
3.22242
3.20745
3.18995
3.16926
3.14219
3.10707
3.06926
3.0329
2.99873
2.96946
2.94888
2.93424
2.92226
2.91081
2.8972
2.88152
2.86236
2.838
2.80917
2.77774
2.74446
2.70982
2.67434
2.64353
2.62554
2.61571
2.60904
2.60363
2.5946
2.58213
2.56492
2.53894
2.50149
2.45939
2.42291
2.39319
2.37233
2.36138
2.35547
2.35949
2.34526
3.95784
3.06127
2.37456
1.90355
1.52031
1.22825
1.08634
0.933403
0.744363
0.662737
0.646656
0.613244
0.574085
0.568965
0.554822
0.51562
0.469037
0.452412
0.45702
0.47641
0.495018
0.49391
0.500261
0.518928
0.562347
0.623637
0.688673
0.774719
0.883053
0.995997
1.04587
1.08475
1.12247
1.16271
1.19643
1.20501
1.2061
1.19809
1.20454
1.21862
1.24554
1.28023
1.30078
1.30083
1.28648
1.28792
1.52945
5.2285
6.83028
6.35816
6.0034
5.79854
5.73625
5.78386
5.84848
5.85666
5.79434
5.72975
5.71002
5.69617
5.69329
5.71671
5.71294
5.67279
5.63109
5.60379
5.5869
5.58665
5.60077
5.60149
5.5699
5.52679
5.48586
5.45591
5.43921
5.43162
5.42701
5.42012
5.39528
5.35518
5.31239
5.27547
5.24764
5.22929
5.21608
5.19498
5.16155
5.12259
5.08524
5.05174
5.02378
5.00414
4.97934
4.94064
4.8978
4.85651
4.82105
4.79266
4.77332
4.74906
4.71452
4.67353
4.62523
4.57372
4.53076
4.49907
4.47286
4.45286
4.43484
4.41026
4.38308
4.35228
4.31636
4.28136
4.25332
4.22743
4.20015
4.17094
4.14001
4.10713
4.07235
4.04055
4.01526
3.9928
3.97002
3.94649
3.92072
3.89098
3.85775
3.82397
3.79269
3.76482
3.73917
3.71391
3.688
3.66028
3.62783
3.58882
3.55002
3.52114
3.49995
3.48114
3.46326
3.44257
3.4192
3.39148
3.35416
3.31132
3.27662
3.25323
3.23524
3.21971
3.20334
3.18562
3.16518
3.13624
3.09699
3.05592
3.02042
2.99163
2.96876
2.95018
2.93452
2.92047
2.90735
2.89359
2.87855
2.8622
2.8417
2.81501
2.78097
2.73687
2.68424
2.64375
2.62765
2.61933
2.61168
2.60628
2.60231
2.59601
2.58584
2.57212
2.55064
2.50968
2.45296
2.40566
2.37931
2.36685
2.35923
2.35475
2.35732
2.34006
4.33183
3.52337
2.8625
2.39286
1.97656
1.61835
1.40791
1.26276
1.07781
0.878656
0.825602
0.810722
0.775165
0.736564
0.707334
0.665451
0.604472
0.554468
0.537353
0.535563
0.546727
0.545836
0.546327
0.553107
0.556716
0.544772
0.541218
0.559296
0.608901
0.70363
0.834587
0.951931
1.0541
1.10533
1.12314
1.12855
1.13461
1.15474
1.19157
1.24194
1.2672
1.27218
1.27249
1.26741
1.29768
1.44381
1.75412
4.12901
6.75061
6.51384
6.06153
5.8716
5.81028
5.82834
5.86471
5.89881
5.85572
5.79907
5.7784
5.73001
5.67782
5.69142
5.71862
5.69781
5.66096
5.62584
5.59997
5.57911
5.58098
5.58868
5.56514
5.52962
5.48927
5.46317
5.45053
5.45232
5.4517
5.42666
5.3872
5.33307
5.28751
5.26019
5.24791
5.25187
5.24727
5.21882
5.18041
5.13261
5.08347
5.04439
5.00834
4.97461
4.94277
4.90887
4.87856
4.8567
4.8429
4.82704
4.79774
4.75867
4.7089
4.65098
4.59513
4.55021
4.51862
4.49434
4.47722
4.46408
4.44638
4.42359
4.39693
4.36279
4.31983
4.27608
4.24006
4.21053
4.1845
4.16048
4.13753
4.11437
4.08905
4.05974
4.02782
3.99649
3.96571
3.93485
3.90374
3.87316
3.84441
3.81828
3.79424
3.77058
3.74578
3.71873
3.68841
3.65436
3.6178
3.58309
3.55548
3.53302
3.51058
3.4869
3.46285
3.43892
3.41379
3.38526
3.3531
3.32103
3.29201
3.26583
3.24263
3.22144
3.20016
3.17646
3.14733
3.1124
3.07661
3.04589
3.02191
3.00295
2.9856
2.96732
2.94739
2.92662
2.90711
2.88939
2.8719
2.85315
2.83203
2.8074
2.77636
2.73319
2.6787
2.64205
2.62967
2.62093
2.61277
2.60693
2.60236
2.59373
2.58145
2.56546
2.53922
2.49798
2.45191
2.41771
2.39772
2.38476
2.37541
2.36624
2.35685
2.3323
4.62188
3.88642
3.26272
2.80989
2.40204
2.00165
1.70526
1.53645
1.38934
1.24098
1.08399
0.970489
0.930302
0.898897
0.866944
0.82978
0.778211
0.714795
0.661853
0.640216
0.639262
0.63995
0.628138
0.611982
0.598458
0.583524
0.561003
0.553886
0.553887
0.565127
0.601923
0.669044
0.754881
0.843805
0.928165
0.995254
1.03935
1.0865
1.15687
1.2267
1.24825
1.25045
1.25167
1.295
1.45814
1.86688
2.17641
2.8539
5.5882
6.51625
6.23654
6.00781
5.88508
5.84289
5.86971
5.93911
5.92462
5.8631
5.84058
5.74506
5.65695
5.65392
5.68973
5.69115
5.65976
5.62315
5.58178
5.55659
5.55042
5.56919
5.56813
5.54479
5.50045
5.45551
5.43073
5.41516
5.41211
5.39627
5.37066
5.33852
5.31113
5.29318
5.2793
5.26314
5.23314
5.19281
5.14234
5.08684
5.04218
5.00972
4.98395
4.965
4.94824
4.93243
4.91689
4.89542
4.86364
4.82227
4.77023
4.71064
4.65715
4.6148
4.58239
4.55713
4.53913
4.52541
4.51053
4.48897
4.46218
4.43071
4.39233
4.34556
4.29531
4.25138
4.21768
4.19188
4.17086
4.15426
4.14036
4.12185
4.09637
4.06161
4.02307
3.98817
3.95588
3.92362
3.89079
3.85919
3.83109
3.80631
3.78388
3.76232
3.73937
3.71369
3.68343
3.64663
3.60721
3.57628
3.55456
3.53459
3.51277
3.48727
3.45831
3.4285
3.39895
3.3704
3.34548
3.32369
3.30121
3.27575
3.24756
3.21927
3.19118
3.15926
3.12211
3.08568
3.05707
3.03718
3.02213
3.00828
2.99409
2.97761
2.95746
2.932
2.90322
2.87682
2.85406
2.8329
2.81192
2.79013
2.76486
2.73129
2.69084
2.65481
2.63002
2.61626
2.60649
2.59846
2.59114
2.58109
2.56866
2.54948
2.517
2.48041
2.453
2.43287
2.41452
2.39781
2.38281
2.3673
2.35287
2.31711
4.8337
4.18283
3.61018
3.13896
2.72715
2.37434
2.09421
1.82352
1.60046
1.49277
1.38543
1.27561
1.15951
1.04222
0.979628
0.947224
0.913136
0.873152
0.824652
0.768325
0.730741
0.726508
0.717294
0.701724
0.686591
0.659312
0.632931
0.615266
0.597125
0.587713
0.595474
0.607686
0.618311
0.631778
0.664442
0.727607
0.825468
0.927721
1.02339
1.13514
1.19069
1.20372
1.24825
1.49624
1.83275
2.27659
2.49154
2.55582
3.50346
5.66941
6.34873
6.18827
6.01862
5.86118
5.87711
5.97722
5.98518
5.93516
5.90812
5.77651
5.66264
5.65794
5.68237
5.68575
5.66125
5.63525
5.60041
5.5802
5.57353
5.58344
5.5731
5.54331
5.49233
5.43908
5.41497
5.40627
5.41408
5.41147
5.39188
5.36346
5.32116
5.27469
5.24015
5.20961
5.17917
5.14853
5.11281
5.07195
5.04125
5.02063
5.00971
5.0031
4.98739
4.95886
4.922
4.87394
4.82097
4.76517
4.71284
4.67513
4.64727
4.63028
4.62259
4.60768
4.58153
4.54722
4.50824
4.47147
4.43463
4.3947
4.3546
4.31477
4.27659
4.24602
4.22318
4.20502
4.18867
4.16938
4.14595
4.11552
4.07618
4.03826
4.00868
3.98365
3.95886
3.93256
3.90332
3.86984
3.83462
3.80205
3.77377
3.74991
3.7274
3.7035
3.67535
3.6413
3.60637
3.57952
3.5586
3.53859
3.51709
3.49143
3.45913
3.42321
3.39158
3.36731
3.34716
3.3273
3.30614
3.28117
3.24958
3.21132
3.17222
3.13612
3.1032
3.07607
3.05614
3.04143
3.0294
3.01766
3.00386
2.98742
2.965
2.93354
2.89603
2.86131
2.8348
2.81456
2.79654
2.77813
2.75743
2.73208
2.70383
2.67511
2.64567
2.61917
2.60246
2.59197
2.58212
2.57126
2.55637
2.53272
2.50406
2.48299
2.46922
2.45504
2.43842
2.41873
2.39638
2.36783
2.33545
2.28724
5.02449
4.42807
3.90363
3.46347
3.02351
2.65974
2.41838
2.18071
1.93593
1.69271
1.56264
1.50477
1.41761
1.30498
1.1625
1.03569
1.00365
0.994311
0.972169
0.936662
0.8876
0.829857
0.795926
0.783437
0.769137
0.741145
0.70454
0.689118
0.68093
0.66482
0.650604
0.648919
0.644893
0.630379
0.620494
0.624483
0.644217
0.69108
0.768185
0.872397
0.983041
1.12851
1.37595
1.77705
2.13555
2.40641
2.53109
2.57111
2.69347
3.84347
5.71643
6.18822
6.11372
5.96079
5.9432
6.01799
6.01792
5.98038
5.9345
5.78305
5.67444
5.66996
5.67463
5.6769
5.6718
5.6583
5.62113
5.57983
5.5593
5.55027
5.53669
5.51409
5.4858
5.44951
5.42392
5.41277
5.40704
5.39163
5.36763
5.33499
5.28602
5.23798
5.20897
5.18457
5.16286
5.14463
5.12166
5.09264
5.06407
5.04172
5.02183
4.99814
4.96856
4.93478
4.8942
4.84039
4.77876
4.7298
4.69698
4.67767
4.67463
4.6715
4.65024
4.61945
4.57727
4.52752
4.48134
4.44125
4.4064
4.37254
4.33832
4.30993
4.28777
4.26922
4.24996
4.22711
4.19991
4.16635
4.12518
4.08271
4.04744
4.02351
4.00422
3.9879
3.968
3.94405
3.91483
3.87869
3.837
3.79613
3.75833
3.72626
3.704
3.68409
3.65962
3.63111
3.60651
3.58543
3.56371
3.54085
3.51671
3.48894
3.4545
3.41565
3.38318
3.35953
3.33936
3.31911
3.29833
3.27456
3.24352
3.2023
3.15676
3.12022
3.09597
3.07746
3.0603
3.04501
3.03254
3.02281
3.01009
2.9889
2.95935
2.9251
2.89036
2.85355
2.81972
2.79573
2.77963
2.76332
2.74154
2.71886
2.70006
2.68322
2.66274
2.63512
2.60506
2.58156
2.56447
2.54754
2.52709
2.50707
2.49404
2.48498
2.47682
2.46588
2.45091
2.42868
2.39602
2.35381
2.30893
2.26247
5.17233
4.63318
4.14444
3.72766
3.33036
2.97911
2.67648
2.43077
2.22444
2.02322
1.82907
1.63422
1.55035
1.49354
1.39034
1.25557
1.13531
1.08471
1.08021
1.07091
1.03412
0.978735
0.910727
0.855835
0.834299
0.81534
0.782076
0.762936
0.762791
0.753764
0.726133
0.713215
0.704869
0.683101
0.651332
0.640662
0.643294
0.64896
0.662531
0.691316
0.759764
0.969305
1.44819
1.75463
2.02372
2.21277
2.3341
2.47339
2.53436
2.75087
4.00156
5.71
6.08736
6.09535
6.09167
6.08588
6.03913
6.01156
5.95608
5.79993
5.71388
5.70724
5.6865
5.66672
5.66144
5.64753
5.60784
5.56489
5.54456
5.53051
5.52314
5.51697
5.49993
5.47062
5.4315
5.40322
5.38441
5.3675
5.34545
5.31634
5.27311
5.22845
5.20018
5.18225
5.17588
5.16118
5.13548
5.10282
5.06579
5.03428
5.00589
4.9764
4.945
4.91072
4.86736
4.8121
4.76043
4.7272
4.70851
4.70585
4.69839
4.67358
4.64397
4.60708
4.55873
4.50589
4.4622
4.42628
4.39451
4.36829
4.34739
4.33067
4.31208
4.28705
4.25792
4.22493
4.18825
4.14699
4.10371
4.06422
4.04003
4.02471
4.01165
3.99056
3.96607
3.93606
3.90238
3.86787
3.83238
3.79697
3.76095
3.72392
3.68837
3.66348