/*--------------------------------*- C++ -*----------------------------------*\
  =========                 |
  \\      /  F ield         | OpenFOAM: The Open Source CFD Toolbox
   \\    /   O peration     | Website:  https://openfoam.org
    \\  /    A nd           | Version:  10
     \\/     M anipulation  |
\*---------------------------------------------------------------------------*/
FoamFile
{
    format      ascii;
    class       volScalarField;
    location    "5";
    object      T;
}
// * * * * * * * * * * * * * * * * * * * * * * * * * * * * * * * * * * * * * //

dimensions      [0 0 0 1 0 0 0];

internalField   nonuniform List<scalar> 
16128
(
1
1
1
1
1
1
1
1
1
1
1
1
1
1
1
1
1
1
1
1
1
1
1
1
2.05535
2.68023
2.70459
2.71167
2.72052
2.72822
2.73555
2.74237
2.74882
2.75509
2.76119
2.76691
2.77217
2.77717
2.78215
2.78701
2.7914
2.79512
2.79838
2.80146
2.8046
2.8072
2.80888
2.81013
1
1
1
1
1
1
1
1
1
1
1
1
1
1
1
1
1
1
1
1
1
1
1
1
2.04479
2.67786
2.70427
2.71141
2.72022
2.72791
2.7352
2.742
2.74844
2.75467
2.76071
2.76637
2.77164
2.77667
2.7816
2.78631
2.79057
2.79424
2.79757
2.8007
2.80376
2.80618
2.80767
2.80894
1
1
1
1
1
1
1
1
1
1
1
1
1
1
1
1
1
1
1
1
1
1
1
1
2.01828
2.67423
2.70312
2.71041
2.71923
2.72695
2.73429
2.74115
2.74763
2.75385
2.75982
2.76547
2.77079
2.77586
2.78071
2.78524
2.78937
2.79306
2.79645
2.79951
2.80232
2.80449
2.80574
2.80732
1
1
1
1
1
1
1
1
1
1
1
1
1
1
1
1
1
1
1
1
1
1
1
1
1.97808
2.66771
2.7012
2.70863
2.71748
2.72527
2.73269
2.73965
2.7462
2.75242
2.75833
2.76394
2.76928
2.77436
2.77914
2.78356
2.78764
2.79137
2.79481
2.79777
2.80021
2.80214
2.80308
2.80507
1
1
1
1
1
1
1
1
1
1
1
1
1
1
1
1
1
1
1
1
1
1
1
1
1.92363
2.65762
2.69817
2.70574
2.71466
2.72259
2.73019
2.73736
2.7441
2.7504
2.75628
2.76179
2.76706
2.77211
2.77683
2.78116
2.78519
2.78892
2.79234
2.79515
2.7973
2.79922
2.80039
2.80225
1
1
1
1
1
1
1
1
1
1
1
1
1
1
1
1
1
1
1
1
1
1
1
1
1.85099
2.64162
2.69405
2.70186
2.71091
2.71903
2.72691
2.73443
2.74151
2.74802
2.75394
2.75935
2.7645
2.76945
2.77412
2.77841
2.78238
2.78598
2.7892
2.79177
2.79366
2.79549
2.79685
2.7988
1
1
1
1
1
1
1
1
1
1
1
1
1
1
1
1
1
1
1
1
1
1
1
1
1.75896
2.61727
2.68926
2.69717
2.7062
2.71436
2.72248
2.73038
2.73784
2.74462
2.75064
2.75596
2.76093
2.76576
2.77042
2.77475
2.77871
2.78223
2.78536
2.78791
2.78975
2.79121
2.79166
2.79452
1
1
1
1
1
1
1
1
1
1
1
1
1
1
1
1
1
1
1
1
1
1
1
1
1.64842
2.58497
2.68538
2.69226
2.70095
2.70888
2.71697
2.72501
2.73275
2.7398
2.74599
2.75131
2.75619
2.76095
2.76566
2.77009
2.77409
2.77754
2.78056
2.78315
2.78516
2.78675
2.78527
2.78873
1
1
1
1
1
1
1
1
1
1
1
1
1
1
1
1
1
1
1
1
1
1
1
1
1.51518
2.53912
2.68216
2.68677
2.69524
2.70285
2.71089
2.71903
2.72701
2.73432
2.74073
2.74609
2.75085
2.75544
2.76008
2.7645
2.76846
2.77177
2.77464
2.77714
2.77901
2.78045
2.77811
2.78259
1
1
1
1
1
1
1
1
1
1
1
1
1
1
1
1
1
1
1
1
1
1
1
1
1.34668
2.46799
2.67689
2.67956
2.68854
2.69562
2.70344
2.71159
2.71982
2.72748
2.73422
2.73981
2.74458
2.74903
2.75352
2.75786
2.76175
2.76497
2.76768
2.77007
2.77174
2.7728
2.76965
2.7741
1
1
1
1
1
1
1
1
1
1
1
1
1
1
1
1
1
1
1
1
1
1
1
1
1.15232
2.38542
2.67634
2.67221
2.68007
2.68696
2.69488
2.70306
2.7113
2.71916
2.72623
2.73217
2.73714
2.74156
2.74592
2.75012
2.75385
2.75683
2.75911
2.76104
2.76235
2.76304
2.75941
2.76425
1
1
1
1
1
1
1
1
1
1
1
1
1
1
1
1
1
1
1
1
1
1
1
1
1.00771
2.30691
2.67075
2.66943
2.67574
2.68139
2.68788
2.69494
2.70259
2.71013
2.71713
2.72326
2.72843
2.73288
2.73709
2.74111
2.7446
2.74734
2.74923
2.75077
2.75137
2.75117
2.74678
2.75033
1
1
1
1
1
1
1
1
1
1
1
1
1
1
1
1
1
1
1
1
1
1
1
1
1.00003
2.19196
2.66945
2.67102
2.67582
2.68094
2.68563
2.69054
2.69551
2.70131
2.7075
2.7133
2.71842
2.72283
2.72689
2.73072
2.73394
2.73629
2.73723
2.73747
2.73637
2.73487
2.72932
2.73353
1
1
1
1
1
1
1
1
1
1
1
1
1
1
1
1
1
1
1
1
1
1
1
1
1
2.03911
2.6519
2.66984
2.67488
2.67968
2.68297
2.68611
2.68969
2.69384
2.69823
2.7029
2.70738
2.71144
2.7153
2.71877
2.72128
2.72291
2.72267
2.72187
2.7197
2.71685
2.70776
2.70469
1
1
1
1
1
1
1
1
1
1
1
1
1
1
1
1
1
1
1
1
1
1
1
1
1
1.83979
2.59944
2.66183
2.67187
2.67829
2.68212
2.68436
2.68616
2.68803
2.69058
2.69345
2.69639
2.69951
2.70269
2.7051
2.70661
2.7073
2.70591
2.70312
2.69703
2.68741
2.67138
2.6647
1
1
1
1
1
1
1
1
1
1
1
1
1
1
1
1
1
1
1
1
1
1
1
1
1
1.57511
2.49531
2.64068
2.65802
2.66899
2.67603
2.68003
2.68229
2.68362
2.68451
2.6854
2.68639
2.6878
2.68925
2.69012
2.69008
2.68928
2.68583
2.67991
2.66923
2.65635
2.63705
2.64133
1
1
1
1
1
1
1
1
1
1
1
1
1
1
1
1
1
1
1
1
1
1
1
1
1
1.22969
2.37028
2.62423
2.63437
2.64929
2.66149
2.66959
2.6746
2.67733
2.67828
2.6782
2.67772
2.67726
2.67605
2.67484
2.67265
2.66947
2.66332
2.65434
2.63716
2.61095
2.54513
2.3999
1
1
1
1
1
1
1
1
1
1
1
1
1
1
1
1
1
1
1
1
1
1
1
1
1
1.01515
2.26844
2.62203
2.61894
2.62772
2.64011
2.65172
2.66071
2.66665
2.66951
2.66987
2.66886
2.6668
2.6635
2.65983
2.65474
2.64854
2.6388
2.62469
2.59962
2.55237
2.47686
2.26994
1
1
1
1
1
1
1
1
1
1
1
1
1
1
1
1
1
1
1
1
1
1
1
1
1
1.00003
2.08976
2.60519
2.60912
2.61494
2.62266
2.63253
2.64273
2.65092
2.65661
2.65901
2.65837
2.65597
2.65144
2.64558
2.63738
2.62762
2.61371
2.59377
2.56244
2.50931
2.41384
2.21186
1
1
1
1
1
1
1
1
1
1
1
1
1
1
1
1
1
1
1
1
1
1
1
1
1
1
1.81985
2.55825
2.61034
2.61217
2.61506
2.61934
2.62606
2.63304
2.63988
2.64444
2.64505
2.64335
2.63861
2.63132
2.62072
2.60749
2.58941
2.56453
2.52734
2.47137
2.36745
2.19659
1
1
1
1
1
1
1
1
1
1
1
1
1
1
1
1
1
1
1
1
1
1
1
1
1
1
1.43836
2.43467
2.60356
2.60505
2.60819
2.61063
2.61417
2.61775
2.62261
2.6272
2.62903
2.62813
2.62403
2.61646
2.60467
2.58875
2.56719
2.53836
2.49784
2.43941
2.33986
2.20708
1
1
1
1
1
1
1
1
1
1
1
1
1
1
1
1
1
1
1
1
1
1
1
1
1
1
1.05511
2.286
2.60067
2.59755
2.59937
2.60205
2.60388
2.60468
2.60653
2.60918
2.61093
2.61049
2.60719
2.60018
2.58835
2.57098
2.54738
2.51582
2.47375
2.41462
2.32577
2.21835
1
1
1
1
1
1
1
1
1
1
1
1
1
1
1
1
1
1
1
1
1
1
1
1
1
1
1.00064
2.09924
2.56221
2.57911
2.58736
2.59178
2.59344
2.59317
2.59273
2.59275
2.59264
2.59164
2.58837
2.5819
2.57075
2.55359
2.52959
2.49696
2.45406
2.39697
2.31902
2.22922
1
1
1
1
1
1
1
1
1
1
1
1
1
1
1
1
1
1
1
1
1
1
1
1
1
1
0.999995
1.75191
2.49038
2.56137
2.57509
2.58125
2.58337
2.58312
2.58171
2.57962
2.57698
2.57389
2.56942
2.5626
2.55187
2.53568
2.51266
2.48091
2.4386
2.38506
2.31651
2.23862
1
1
1
1
1
1
1
1
1
1
1
1
1
1
1
1
1
1
1
1
1
1
1
1
1
1
0.999999
1.26743
2.35428
2.55457
2.55737
2.5642
2.5687
2.57027
2.56932
2.56682
2.56275
2.55767
2.55128
2.54319
2.53218
2.5168
2.49542
2.46581
2.42609
2.3767
2.31652
2.24879
1
1
1
1
1
1
1
1
1
1
1
1
1
1
1
1
1
1
1
1
1
1
1
1
1
1
1
1.01815
2.20466
2.5312
2.53572
2.5439
2.54938
2.5539
2.55472
2.55326
2.54931
2.54329
2.53532
2.52556
2.51338
2.49797
2.47777
2.45028
2.41463
2.37002
2.3168
2.25756
1
1
1
1
1
1
1
1
1
1
1
1
1
1
1
1
1
1
1
1
1
1
1
1
1
1
1
1.00003
1.87917
2.48375
2.52223
2.53159
2.53478
2.53831
2.53982
2.53892
2.53557
2.52954
2.5209
2.50994
2.49647
2.48054
2.4603
2.43438
2.4026
2.36347
2.31656
2.26486
1
1
1
1
1
1
1
1
1
1
1
1
1
1
1
1
1
1
1
1
1
1
1
1
1
1
1
0.999999
1.36365
2.36343
2.51729
2.51635
2.51824
2.521
2.5229
2.52243
2.51994
2.51478
2.50651
2.49557
2.48133
2.46497
2.44395
2.41916
2.39009
2.35589
2.31426
2.26944
1
1
1
1
1
1
1
1
1
1
1
1
1
1
1
1
1
1
1
1
1
1
1
1
1
1
1
1
1.03312
2.19485
2.49758
2.50017
2.50138
2.50402
2.5059
2.50551
2.50341
2.49906
2.49178
2.48138
2.46797
2.45082
2.42996
2.40594
2.3787
2.34744
2.31041
2.27148
1
1
1
1
1
1
1
1
1
1
1
1
1
1
1
1
1
1
1
1
1
1
1
1
1
1
1
1
1.00015
1.81154
2.43795
2.48529
2.48761
2.49082
2.49168
2.49042
2.48756
2.48306
2.47632
2.46655
2.45436
2.43749
2.41763
2.39448
2.36865
2.33888
2.30561
2.27053
1
1
1
1
1
1
1
1
1
1
1
1
1
1
1
1
1
1
1
1
1
1
1
1
1
1
1
1
0.999999
1.21513
2.29639
2.48609
2.47658
2.47689
2.47631
2.47406
2.47079
2.46648
2.46025
2.4513
2.44005
2.42469
2.40629
2.38447
2.36003
2.33174
2.30124
2.26849
1
1
1
1
1
1
1
1
1
1
1
1
1
1
1
1
1
1
1
1
1
1
1
1
1
1
1
1
1
1.01066
2.10587
2.4521
2.45494
2.46168
2.45985
2.45735
2.45442
2.45039
2.44441
2.43615
2.42529
2.41152
2.39462
2.37454
2.35165
2.32514
2.29669
2.26571
1
1
1
1
1
1
1
1
1
1
1
1
1
1
1
1
1
1
1
1
1
1
1
1
1
1
1
1
1
0.999998
1.614
2.35981
2.44599
2.44929
2.44693
2.44433
2.44109
2.43659
2.43016
2.42169
2.41099
2.39803
2.38243
2.3642
2.34307
2.31871
2.29213
2.26319
1
1
1
1
1
1
1
1
1
1
1
1
1
1
1
1
1
1
1
1
1
1
1
1
1
1
1
1
1
0.999996
1.1
2.19372
2.44164
2.43305
2.43175
2.43011
2.4272
2.42256
2.41588
2.40735
2.39698
2.38462
2.37
2.35318
2.33361
2.31133
2.28674
2.26013
1
1
1
1
1
1
1
1
1
1
1
1
1
1
1
1
1
1
1
1
1
1
1
1
1
1
1
1
1
0.999999
1.00203
1.83639
2.3786
2.40888
2.41333
2.41532
2.41389
2.40977
2.40311
2.39454
2.38419
2.37199
2.35783
2.34176
2.32357
2.30318
2.28067
2.25635
1
1
1
1
1
1
1
1
1
1
1
1
1
1
1
1
1
1
1
1
1
1
1
1
1
1
1
1
1
1
0.999997
1.21303
2.2199
2.40984
2.40174
2.40204
2.40033
2.39613
2.38982
2.38171
2.37175
2.35989
2.34615
2.33064
2.31342
2.29443
2.27374
2.25133
1
1
1
1
1
1
1
1
1
1
1
1
1
1
1
1
1
1
1
1
1
1
1
1
1
1
1
1
1
1
0.999999
1.01004
1.9526
2.37034
2.38109
2.38333
2.38252
2.37989
2.37518
2.36832
2.35929
2.34809
2.33494
2.31996
2.3034
2.28545
2.26613
2.24528
1
1
1
1
1
1
1
1
1
1
1
1
1
1
1
1
1
1
1
1
1
1
1
1
1
1
1
1
1
1
1
1.00001
1.31337
2.22699
2.37893
2.37222
2.36956
2.36598
2.36107
2.35455
2.34612
2.33572
2.32342
2.3093
2.29366
2.27677
2.25858
2.23904
1
1
1
1
1
1
1
1
1
1
1
1
1
1
1
1
1
1
1
1
1
1
1
1
1
1
1
1
1
1
1
1
1.02247
2.00474
2.34682
2.35825
2.35498
2.35076
2.34574
2.33948
2.33164
2.32217
2.311
2.2982
2.28388
2.26815
2.25107
2.23275
1
1
1
1
1
1
1
1
1
1
1
1
1
1
1
1
1
1
1
1
1
1
1
1
1
1
1
1
1
1
1
1
1.00009
1.38003
2.21276
2.34947
2.34251
2.33792
2.33238
2.32574
2.31798
2.30917
2.29907
2.28747
2.27435
2.25973
2.24375
2.22658
1
1
1
1
1
1
1
1
1
1
1
1
1
1
1
1
1
1
1
1
1
1
1
1
1
1
1
1
1
1
1
1
1
1.03394
2.00501
2.32597
2.32818
2.32336
2.31792
2.31141
2.30395
2.29557
2.28617
2.27556
2.26365
2.2504
2.23576
2.21981
1
1
1
1
1
1
1
1
1
1
1
1
1
1
1
1
1
1
1
1
1
1
1
1
1
1
1
1
1
1
1
1
1
1.00023
1.39923
2.19249
2.31816
2.30917
2.3044
2.29832
2.29118
2.28307
2.27412
2.26427
2.25334
2.24124
2.22781
2.21297
1
1
1
1
1
1
1
1
1
1
1
1
1
1
1
1
1
1
1
1
1
1
1
1
1
1
1
1
1
1
1
1
1
1
1.03792
1.97106
2.29664
2.29626
2.29053
2.28447
2.27764
2.2702
2.26198
2.25286
2.24271
2.2314
2.21887
2.2052
1
1
1
1
1
1
1
1
1
1
1
1
1
1
1
1
1
1
1
1
1
1
1
1
1
1
1
1
1
1
1
1
1
1
1.00031
1.37182
2.15452
2.28641
2.27714
2.2717
2.26523
2.25847
2.25089
2.24228
2.23257
2.22177
2.20989
2.19715
1
1
1
1
1
1
1
1
1
1
1
1
1
1
1
1
1
1
1
1
1
1
1
1
1
1
1
1
1
1
1
1
1
1
1
1.03217
1.88374
2.25394
2.26773
2.26027
2.25347
2.24697
2.23976
2.2315
2.22214
2.21182
2.20064
2.18867
1
1
1
1
1
1
1
1
1
1
1
1
1
1
1
1
1
1
1
1
1
1
1
1
1
1
1
1
1
1
1
1
1
1
1
1.00027
1.29241
2.08864
2.25553
2.24824
2.24403
2.23752
2.22975
2.22123
2.21204
2.2022
2.19171
2.18058
1
1
1
1
1
1
1
1
1
1
1
1
1
1
1
1
1
1
1
1
1
1
1
1
1
1
1
1
1
1
1
1
1
1
1
1
1.01904
1.71336
2.18781
2.24035
2.23288
2.22602
2.21869
2.21069
2.20226
2.19318
2.18319
2.17261
1
1
1
1
1
1
1
1
1
1
1
1
1
1
1
1
1
1
1
1
1
1
1
1
1
1
1
1
1
1
1
1
1
1
1
1
1.00015
1.17241
1.99538
2.22836
2.21847
2.21311
2.20755
2.20106
2.19369
2.18535
2.17563
2.16509
1
1
1
1
1
1
1
1
1
1
1
1
1
1
1
1
1
1
1
1
1
1
1
1
1
1
1
1
1
1
1
1
1
1
1
1
1
1.00649
1.51228
2.10691
2.20384
2.19817
2.19471
2.18992
2.18352
2.17595
2.16727
2.15692
1
1
1
1
1
1
1
1
1
1
1
1
1
1
1
1
1
1
1
1
1
1
1
1
1
1
1
1
1
1
1
1
1
1
1
1
1
1.00004
1.07526
1.84929
2.18195
2.18915
2.18483
2.17946
2.17325
2.16603
2.15827
2.14895
1
1
1
1
1
1
1
1
1
1
1
1
1
1
1
1
1
1
1
1
1
1
1
1
1
1
1
1
1
1
1
1
1
1
1
1
1
1
1.00141
1.30751
2.01729
2.17509
2.16829
2.16386
2.15894
2.15313
2.14636
2.13921
1
1
1
1
1
1
1
1
1
1
1
1
1
1
1
1
1
1
1
1
1
1
1
1
1
1
1
1
1
1
1
1
1
1
1
1
1
1
1.00001
1.02262
1.62129
2.09453
2.15943
2.15321
2.14789
2.14254
2.13679
2.1299
1
1
1
1
1
1
1
1
1
1
1
1
1
1
1
1
1
1
1
1
1
1
1
1
1
1
1
1
1
1
1
1
1
1
1
1
1
1
1
1.00023
1.1282
1.86855
2.14122
2.14354
2.13775
2.13242
2.12591
2.11978
1
1
1
1
1
1
1
1
1
1
1
1
1
1
1
1
1
1
1
1
1
1
1
1
1
1
1
1
1
1
1
1
1
1
1
1
1
1
1
1
1.00385
1.35794
1.99439
2.12948
2.12447
2.11886
2.11204
2.10576
1
1
1
1
1
1
1
1
1
1
1
1
1
1
1
1
1
1
1
1
1
1
1
1
1
1
1
1
1
1
1
1
1
1
1
1
1
1
1
1
1.00002
1.03294
1.62296
2.05744
2.1177
2.10919
2.10003
2.10074
1
1
1
1
1
1
1
1
1
1
1
1
1
1
1
1
1
1
1
1
1
1
1
1
1
1
1
1
1
1
1
1
1
1
1
1
1
1
1
1
1
1.00044
1.13518
1.82288
2.10068
2.09519
2.10099
2.1541
1
1
1
1
1
1
1
1
1
1
1
1
1
1
1
1
1
1
1
1
1
1
1
1
1
1
1
1
1
1
1
1
1
1
1
1
1
1
1
1
1
1
1.00439
1.3239
1.95933
2.05763
2.16775
2.30493
1
1
1
1
1
1
1
1
1
1
1
1
1
1
1
1
1
1
1
1
1
1
1
1
1
1
1
1
1
1
1
1
1
1
1
1
1
1
1
1
1
1
1.00003
1.0273
1.53435
2.04471
2.35025
2.4031
1
1
1
1
1
1
1
1
1
1
1
1
1
1
1
1
1
1
1
1
1
1
1
1
1
1
1
1
1
1
1
1
1
1
1
1
1
1
1
1
1
1
1
1.00034
1.09979
2.19573
2.52748
2.47818
1
1
1
1
1
1
1
1
1
1
1
1
1
1
1
1
1
1
1
1
1
1
1
1
1
1
1
1
1
1
1
1
1
1
1
1
1
1
1
1
1
1
1
1
1.09191
2.36689
2.62056
2.54541
1
1
1
1
1
1
1
1
1
1
1
1
1
1
1
1
1
1
1
1
1
1
1
1
1
1
1
1
1
1
1
1
1
1
1
1
1
1
1
1
1
1
1
1
1.12991
2.40639
2.69078
2.64329
1
1
1
1
1
1
1
1
1
1
1
1
1
1
1
1
1
1
1
1
1
1
1
1
1
1
1
1
1
1
1
1
1
1
1
1
1
1
1
1
1
1
1
1
1.0794
2.36819
2.71537
2.6963
1
1
1
1
1
1
1
1
1
1
1
1
1
1
1
1
1
1
1
1
1
1
1
1
1
1
1
1
1
1
1
1
1
1
1
1
1
1
1
1
1
1
1
1
1.00439
2.29042
2.71044
2.70672
1
1
1
1
1
1
1
1
1
1
1
1
1
1
1
1
1
1
1
1
1
1
1
1
1
1
1
1
1
1
1
1
1
1
1
1
1
1
1
1
1
1
1
1
1.00003
2.19546
2.69293
2.70664
1
1
1
1
1
1
1
1
1
1
1
1
1
1
1
1
1
1
1
1
1
1
1
1
1
1
1
1
1
1
1
1
1
1
1
1
1
1
1
1
1
1
1
1
1
2.0975
2.66936
2.70286
1
1
1
1
1
1
1
1
1
1
1
1
1
1
1
1
1
1
1
1
1
1
1
1
1
1
1
1
1
1
1
1
1
1
1
1
1
1
1
1
1
1
1
1
1
1.998
2.65102
2.69722
1
1
1
1
1
1
1
1
1
1
1
1
1
1
1
1
1
1
1
1
1
1
1
1
1
1
1
1
1
1
1
1
1
1
1
1
1
1
1
1
1
1
1
1
1
1.89961
2.63746
2.69346
1
1
1
1
1
1
1
1
1
1
1
1
1
1
1
1
1
1
1
1
1
1
1
1
1
1
1
1
1
1
1
1
1
1
1
1
1
1
1
1
1
1
1
1
1
1.80325
2.62489
2.69283
1
1
1
1
1
1
1
1
1
1
1
1
1
1
1
1
1
1
1
1
1
1
1
1
1
1
1
1
1
1
1
1
1
1
1
1
1
1
1
1
1
1
1
1
1
1.70811
2.60876
2.69428
1
1
1
1
1
1
1
1
1
1
1
1
1
1
1
1
1
1
1
1
1
1
1
1
1
1
1
1
1
1
1
1
1
1
1
1
1
1
1
1
1
1
1
1
1
1.61284
2.58943
2.69781
1
1
1
1
1
1
1
1
1
1
1
1
1
1
1
1
1
1
1
1
1
1
1
1
1
1
1
1
1
1
1
1
1
1
1
1
1
1
1
1
1
1
1
1
1
1.53399
2.56914
2.70127
1
1
1
1
1
1
1
1
1
1
1
1
1
1
1
1
1
1
1
1
1
1
1
1
1
1
1
1
1
1
1
1
1
1
1
1
1
1
1
1
1
1
1
1
1
1.46743
2.54858
2.70292
1
1
1
1
1
1
1
1
1
1
1
1
1
1
1
1
1
1
1
1
1
1
1
1
1
1
1
1
1
1
1
1
1
1
1
1
1
1
1
1
1
1
1
1
1
1.41037
2.52836
2.7032
1
1
1
1
1
1
1
1
1
1
1
1
1
1
1
1
1
1
1
1
1
1
1
1
1
1
1
1
1
1
1
1
1
1
1
1
1
1
1
1
1
1
1
1
1
1.36522
2.51058
2.70249
1
1
1
1
1
1
1
1
1
1
1
1
1
1
1
1
1
1
1
1
1
1
1
1
1
1
1
1
1
1
1
1
1
1
1
1
1
1
1
1
1
1
1
1
1
1.33115
2.49635
2.70127
1
1
1
1
1
1
1
1
1
1
1
1
1
1
1
1
1
1
1
1
1
1
1
1
1
1
1
1
1
1
1
1
1
1
1
1
1
1
1
1
1
1
1
1
1
1.30652
2.48561
2.70038
1
1
1
1
1
1
1
1
1
1
1
1
1
1
1
1
1
1
1
1
1
1
1
1
1
1
1
1
1
1
1
1
1
1
1
1
1
1
1
1
1
1
1
1
1
1.29056
2.47813
2.70011
1
1
1
1
1
1
1
1
1
1
1
1
1
1
1
1
1
1
1
1
1
1
1
1
1
1
1
1
1
1
1
1
1
1
1
1
1
1
1
1
1
1
1
1
1
1.28157
2.47384
2.70041
1
1
1
1
1
1
1
1
1
1
1
1
1
1
1
1
1
1
1
1
1
1
1
1
1
1
1
1
1
1
1
1
1
1
1
1
1
1
1
1
1
1
1
1
1
1.27851
2.47277
2.70121
1
1
1
1
1
1
1
1
1
1
1
1
1
1
1
1
1
1
1
1
1
1
1
1
1
1
1
1
1
1
1
1
1
1
1
1
1
1
1
1
1
1
1
1
1
1.28077
2.47436
2.70277
1.47892
0.742842
0.32829
0.533038
0.669418
0.843009
0.94207
1.07251
1.13314
1.14069
1.16986
1.22502
1.28298
1.36394
1.43986
1.461
1.46444
1.46893
1.48102
1.51128
1.54725
1.55627
1.56637
1.56668
1.56481
1.56655
1.56225
1.55503
1.54985
1.55738
1.58369
1.60853
1.62171
1.62372
1.61149
1.58601
1.5751
1.57581
1.60026
1.631
1.64137
1.6432
1.62575
1.59298
1.58474
1.80337
2.46811
2.64529
2.66962
2.68597
2.69891
2.70312
2.70895
2.7137
2.71569
2.7141
2.70997
2.70602
2.70327
2.70102
2.6969
2.69014
2.68267
2.67592
2.67053
2.66593
2.66127
2.65605
2.65033
2.64398
2.6366
2.62841
2.62055
2.61393
2.60838
2.60298
2.59675
2.58914
2.58057
2.5722
2.5651
2.55945
2.55469
2.54985
2.54415
2.53753
2.53083
2.52496
2.51993
2.51463
2.50769
2.49932
2.491
2.48398
2.47865
2.47424
2.46946
2.46328
2.45566
2.44758
2.44012
2.43395
2.42884
2.42389
2.41816
2.41117
2.40341
2.3957
2.38876
2.38313
2.37872
2.37492
2.37094
2.36621
2.36059
2.35432
2.34783
2.34172
2.33635
2.33164
2.32709
2.32225
2.31694
2.31113
2.30492
2.29862
2.29277
2.28776
2.28364
2.28018
2.27674
2.27231
2.26602
2.25838
2.25016
2.24173
2.23441
2.22918
2.22541
2.22038
2.21378
2.20666
2.19923
2.19226
2.18648
2.18302
2.18042
2.17692
2.17236
2.16686
2.1606
2.15304
2.14488
2.13797
2.13237
2.12837
2.12551
2.12267
2.11969
2.11626
2.11171
2.10592
2.09799
2.08911
2.08092
2.07387
2.06817
2.06374
2.06121
2.05944
2.05734
2.05481
2.05215
2.04955
2.04606
2.04084
2.03218
2.02054
2.0093
1.99994
1.9937
1.99031
1.98933
1.98847
1.9875
1.98697
1.98604
1.9841
1.98029
1.97183
1.96108
1.94797
1.74478
1.36755
1.15718
1.02319
0.906776
0.820973
0.819071
0.862165
0.921929
0.943642
0.958657
1.00451
1.09771
1.17378
1.21357
1.24656
1.28739
1.33348
1.3603
1.38451
1.42103
1.46003
1.49073
1.50453
1.51059
1.52171
1.53726
1.54986
1.54989
1.55144
1.55356
1.55574
1.55974
1.56763
1.57389
1.58375
1.59546
1.60327
1.60376
1.59834
1.59097
1.58295
1.58397
1.60435
1.61403
1.6669
2.3594
2.64243
2.67099
2.6857
2.69558
2.69828
2.69983
2.7046
2.70662
2.7059
2.70343
2.70091
2.69865
2.69589
2.69088
2.68385
2.67691
2.67094
2.66626
2.66169
2.6561
2.6492
2.6423
2.63647
2.63179
2.62697
2.62019
2.61161
2.60249
2.59411
2.58718
2.58158
2.57625
2.57028
2.56372
2.55695
2.55017
2.54347
2.53695
2.53069
2.52467
2.51878
2.51282
2.50676
2.50077
2.49453
2.48802
2.48186
2.47607
2.47005
2.46344
2.4567
2.45015
2.4438
2.43769
2.43192
2.42617
2.41996
2.41329
2.40638
2.39952
2.3929
2.38671
2.38151
2.37739
2.37346
2.36891
2.36364
2.35789
2.35195
2.346
2.34016
2.33447
2.32889
2.32342
2.31794
2.31237
2.30681
2.30141
2.29626
2.29136
2.28667
2.28211
2.27749
2.27236
2.26644
2.26001
2.25339
2.24692
2.24085
2.23477
2.22865
2.22278
2.2167
2.21047
2.20408
2.19791
2.19226
2.18728
2.18267
2.17793
2.17286
2.16751
2.16168
2.15544
2.14912
2.14325
2.1379
2.13309
2.12904
2.12533
2.12136
2.11706
2.1119
2.10528
2.09799
2.0911
2.085
2.07957
2.07461
2.06997
2.06585
2.0624
2.05941
2.05683
2.05458
2.05154
2.04748
2.04065
2.03085
2.02148
2.01405
2.00815
2.00311
1.9979
1.99353
1.99112
1.98991
1.98886
1.98726
1.9844
1.97808
1.96953
1.9615
1.95505
1.94921
1.88277
1.64004
1.4551
1.32851
1.23893
1.1441
1.01755
0.986651
1.01607
1.02328
1.00905
1.00814
1.04116
1.05343
1.05267
1.0635
1.09195
1.13879
1.19685
1.24534
1.28386
1.33125
1.37012
1.40327
1.42713
1.45016
1.47561
1.50323
1.52003
1.52059
1.51446
1.5105
1.51485
1.532
1.55632
1.56758
1.57028
1.56952
1.55652
1.54553
1.54399
1.55049
1.57665
1.59466
1.5948
1.58731
2.12778
2.61953
2.68647
2.68411
2.6821
2.6729
2.67026
2.67464
2.67745
2.67654
2.6744
2.67205
2.67102
2.66931
2.66503
2.6576
2.65035
2.64436
2.63987
2.63571
2.63053
2.62339
2.6153
2.60818
2.60392
2.60148
2.59852
2.59146
2.58219
2.57256
2.56391
2.55779
2.5541
2.55005
2.54438
2.53713
2.52937
2.52154
2.51419
2.50763
2.50159
2.49529
2.48853
2.4821
2.47686
2.47298
2.4694
2.46473
2.45856
2.45134
2.44395
2.43711
2.4315
2.42708
2.42248
2.41666
2.41005
2.40318
2.39613
2.3898
2.38426
2.37912
2.37474
2.37118
2.36788
2.36371
2.35848
2.35301
2.34755
2.34203
2.33651
2.33069
2.32438
2.31767
2.31093
2.30467
2.29899
2.29388
2.2894
2.28562
2.28174
2.27722
2.27216
2.2666
2.2606
2.25433
2.24833
2.24329
2.23907
2.23485
2.22966
2.22275
2.21496
2.20856
2.20309
2.19791
2.19304
2.18843
2.18299
2.17651
2.16938
2.16271
2.1566
2.15066
2.14514
2.14072
2.13705
2.1332
2.12883
2.12385
2.11856
2.11321
2.10739
2.10059
2.0932
2.08675
2.08204
2.07855
2.07542
2.07213
2.06862
2.06456
2.05971
2.05451
2.05013
2.04668
2.04275
2.0368
2.02768
2.01859
2.01314
2.01012
2.00762
2.00455
2.00049
1.99512
1.98949
1.98526
1.98187
1.97779
1.97131
1.96291
1.95597
1.95188
1.95068
1.94874
1.97384
1.81191
1.66226
1.51129
1.4259
1.35272
1.28488
1.20141
1.14924
1.14322
1.12066
1.09095
1.09024
1.09493
1.0908
1.07863
1.07844
1.08584
1.10053
1.11962
1.14279
1.17709
1.21897
1.27035
1.32839
1.36595
1.3924
1.42239
1.44958
1.46296
1.46221
1.46625
1.4788
1.49638
1.51416
1.52124
1.52174
1.5184
1.50909
1.50738
1.51505
1.53621
1.55385
1.5549
1.5483
1.53244
1.81917
2.55168
2.69286
2.66538
2.64445
2.61891
2.61156
2.61902
2.62394
2.62341
2.61741
2.61147
2.60956
2.60847
2.60739
2.60366
2.59657
2.58964
2.5836
2.57855
2.5745
2.57044
2.56541
2.55877
2.5523
2.54714
2.54295
2.5386
2.53321
2.52682
2.52053
2.5153
2.5107
2.50509
2.49792
2.49021
2.48243
2.47491
2.46802
2.46157
2.45509
2.44851
2.44219
2.43662
2.43257
2.43046
2.42859
2.42428
2.41808
2.4113
2.40446
2.3983
2.39346
2.38958
2.38462
2.37901
2.37324
2.36683
2.36088
2.35642
2.35267
2.34951
2.34722
2.34451
2.34082
2.33651
2.3313
2.32604
2.32139
2.31658
2.31128
2.30537
2.29882
2.2916
2.28407
2.27744
2.27218
2.26776
2.26411
2.26055
2.2566
2.25225
2.2472
2.24166
2.2362
2.23123
2.227
2.22349
2.22018
2.21645
2.21156
2.20467
2.19688
2.19115
2.18672
2.18237
2.17829
2.17336
2.16729
2.16034
2.15196
2.14327
2.1364
2.1313
2.12731
2.1241
2.12119
2.11792
2.11414
2.10921
2.10273
2.0956
2.08858
2.08186
2.07605
2.07188
2.06873
2.06605
2.06358
2.06083
2.05784
2.05428
2.04976
2.04435
2.03823
2.03153
2.02446
2.01716
2.01078
2.00719
2.00518
2.00351
2.00197
1.99948
1.99627
1.99206
1.98585
1.97704
1.96707
1.95852
1.95196
1.94789
1.94636
1.94581
1.94726
1.94493
2.04759
1.90907
1.78151
1.67812
1.5765
1.4823
1.43415
1.37693
1.29356
1.2467
1.23541
1.21578
1.19505
1.19167
1.18132
1.15462
1.12278
1.11157
1.11481
1.12834
1.13893
1.13815
1.14237
1.15545
1.18471
1.22253
1.25676
1.2987
1.34725
1.39478
1.41769
1.43439
1.44719
1.45931
1.47194
1.47891
1.48152
1.48056
1.4832
1.4873
1.49662
1.50985
1.51632
1.51534
1.51142
1.51336
1.59599
2.4175
2.66253
2.60905
2.56846
2.548
2.54058
2.5455
2.55176
2.55205
2.54401
2.53608
2.53254
2.52859
2.52546
2.52494
2.52155
2.51393
2.50712
2.5018
2.49725
2.49446
2.49265
2.48898
2.48063
2.47184
2.4645
2.45977
2.45754
2.45672
2.4561
2.45448
2.44918
2.44065
2.43133
2.42291
2.41601
2.41068
2.40644
2.40167
2.39597
2.39001
2.38455
2.37993
2.37635
2.37399
2.37091
2.36586
2.36017
2.35458
2.34955
2.34529
2.3422
2.33846
2.33355
2.32804
2.32179
2.31534
2.31028
2.30691
2.30434
2.30264
2.30116
2.29863
2.29567
2.29213
2.28766
2.283
2.27897
2.27479
2.26992
2.26434
2.25825
2.25177
2.24502
2.23879
2.2337
2.22921
2.22488
2.22071
2.21653
2.21208
2.20739
2.20289
2.19898
2.1957
2.19276
2.18981
2.18662
2.183
2.17844
2.17258
2.16649
2.16171
2.15783
2.15389
2.14966
2.14454
2.13874
2.13215
2.12394
2.1149
2.10752
2.10243
2.09861
2.09554
2.09259
2.08969
2.08653
2.08194
2.07543
2.06846
2.06233
2.05718
2.05284
2.04907
2.04566
2.04251
2.03963
2.03681
2.03407
2.03141
2.02823
2.02401
2.01835
2.01048
2.00043
1.993
1.99063
1.98942
1.98804
1.98687
1.98582
1.98407
1.9813
1.97756
1.97198
1.96228
1.94927
1.93852
1.93307
1.93104
1.9302
1.93019
1.93169
1.92899
2.09636
1.97795
1.86688
1.77848
1.68763
1.59602
1.53682
1.49276
1.42926
1.34535
1.31702
1.31031
1.2964
1.28045
1.26504
1.24047
1.20535
1.17605
1.16496
1.16356
1.16962
1.16891
1.16842
1.17201
1.17386
1.16659
1.16502
1.1763
1.20637
1.25852
1.32383
1.37477
1.41321
1.42887
1.43372
1.43733
1.44223
1.45206
1.46547
1.48126
1.48894
1.4913
1.49119
1.49019
1.50134
1.5492
1.64216
2.17026
2.55761
2.53664
2.49036
2.47808
2.47329
2.4738
2.47598
2.4789
2.47361
2.46704
2.46401
2.45695
2.44819
2.44783
2.44793
2.44314
2.43641
2.43051
2.42572
2.42114
2.41934
2.41779
2.41175
2.40449
2.39769
2.39388
2.39252
2.39309
2.39343
2.39075
2.38532
2.37699
2.36898
2.36305
2.35927
2.35794
2.35561
2.35044
2.34462
2.33785
2.33109
2.32587
2.32132
2.31733
2.3137
2.30972
2.30603
2.3033
2.30154
2.2994
2.29531
2.28975
2.28278
2.27501
2.2679
2.26264
2.25941
2.25723
2.25609
2.25551
2.25431
2.25238
2.24993
2.24637
2.24138
2.23604
2.23152
2.22755
2.22363
2.21956
2.2153
2.21079
2.20585
2.2003
2.19436
2.1886
2.18309
2.17783
2.17287
2.16835
2.16449
2.16136
2.15878
2.1564
2.1539
2.15103
2.14755
2.14337
2.13864
2.13406
2.13044
2.12738
2.12392
2.11974
2.11498
2.10981
2.10412
2.09766
2.09054
2.08354
2.07725
2.07172
2.06702
2.06301
2.05936
2.05564
2.0512
2.04587
2.04045
2.0359
2.03239
2.0295
2.02656
2.0231
2.019
2.01457
2.01041
2.00681
2.00364
2.0007
1.99775
1.99449
1.9902
1.98349
1.97419
1.96814
1.96673
1.96578
1.96471
1.96383
1.96297
1.96097
1.95789
1.95384
1.94748
1.93795
1.92762
1.92006
1.91576
1.91332
1.91197
1.91083
1.9096
1.90621
2.13167
2.02964
1.93239
1.85473
1.77647
1.68866
1.6145
1.56801
1.52454
1.47773
1.42242
1.37703
1.36055
1.34788
1.33389
1.31639
1.29215
1.2616
1.23356
1.22053
1.21962
1.21966
1.21276
1.20343
1.19559
1.18683
1.17262
1.1682
1.16835
1.17566
1.19798
1.23614
1.28144
1.32413
1.35931
1.38528
1.40269
1.42155
1.44847
1.47211
1.47802
1.47854
1.47911
1.49483
1.5482
1.66475
1.74439
1.89643
2.34153
2.47497
2.44995
2.43179
2.42177
2.41447
2.41682
2.42433
2.42252
2.4153
2.41245
2.4007
2.38881
2.38737
2.3892
2.3878
2.38174
2.37581
2.36982
2.36555
2.36365
2.3644
2.36294
2.35835
2.35185
2.34614
2.34352
2.34215
2.34224
2.34079
2.338
2.33399
2.3301
2.32699
2.32417
2.32097
2.31601
2.30996
2.30294
2.29554
2.28969
2.28552
2.28228
2.28007
2.27841
2.27706
2.27564
2.27318
2.26902
2.2633
2.25612
2.24789
2.24053
2.23508
2.23118
2.22829
2.22651
2.22541
2.22423
2.22211
2.21931
2.2159
2.21153
2.20595
2.19982
2.19456
2.19066
2.18765
2.18498
2.18254
2.18015
2.17689
2.17245
2.16638
2.15967
2.1536
2.14807
2.14273
2.1375
2.13268
2.12868
2.12551
2.12293
2.1206
2.11811
2.1152
2.11156
2.10683
2.10158
2.09764
2.09509
2.09266
2.08968
2.08572
2.08073
2.07517
2.06931
2.06337
2.05794
2.05304
2.04812
2.04288
2.03742
2.03225
2.02743
2.02226
2.01639
2.01083
2.00677
2.00426
2.00247
2.00068
1.99853
1.9956
1.99166
1.9865
1.98059
1.97527
1.97099
1.96748
1.96451
1.96183
1.95882
1.95434
1.94833
1.94281
1.93926
1.93768
1.93659
1.9355
1.93423
1.93209
1.92927
1.92491
1.91752
1.9092
1.903
1.89853
1.89463
1.89138
1.8888
1.8864
1.88434
1.87903
2.156
2.06994
1.98632
1.91049
1.8366
1.76653
1.70581
1.64064
1.58032
1.55019
1.51911
1.48534
1.44599
1.40103
1.37498
1.36159
1.34788
1.33162
1.31073
1.284
1.26424
1.26153
1.25665
1.2489
1.24133
1.22694
1.21175
1.20134
1.19117
1.18562
1.19011
1.19659
1.20239
1.21008
1.22896
1.26322
1.31125
1.35722
1.39708
1.43985
1.45781
1.46161
1.47729
1.56204
1.65935
1.76834
1.81863
1.83214
2.02008
2.33999
2.4317
2.41695
2.3991
2.38046
2.38159
2.39169
2.39235
2.38663
2.38391
2.36897
2.35488
2.35372
2.35535
2.35486
2.35059
2.34665
2.34222
2.3395
2.33828
2.33889
2.33688
2.33248
2.3261
2.31972
2.31724
2.31689
2.31872
2.31903
2.31739
2.31427
2.30915
2.30332
2.29865
2.29422
2.28982
2.2854
2.28044
2.27504
2.27116
2.26876
2.26766
2.26704
2.26518
2.26172
2.25726
2.25119
2.24422
2.23657
2.22939
2.22441
2.22079
2.21866
2.21789
2.21614
2.2128
2.20832
2.20319
2.19843
2.1937
2.18854
2.18342
2.17852
2.17391
2.17028
2.16765
2.16562
2.16376
2.1613
2.15789
2.15312
2.14681
2.14055
2.13554
2.13124
2.12701
2.12265
2.11798
2.1128
2.10747
2.10272
2.09881
2.09572
2.0928
2.08956
2.08563
2.08076
2.07581
2.07218
2.06944
2.06678
2.06373
2.05984
2.05465
2.04857
2.04295
2.03839
2.03437
2.03028
2.0259
2.02089
2.0149
2.008
2.00113
1.99507
1.9899
1.9859
1.98322
1.98145
1.98004
1.97841
1.97628
1.97338
1.96907
1.96285
1.9553
1.9483
1.94319
1.93978
1.93714
1.93478
1.93231
1.92917
1.92555
1.92171
1.91741
1.91325
1.91072
1.90916
1.90743
1.90524
1.90205
1.89698
1.89075
1.88601
1.88286
1.87975
1.87631
1.87241
1.86822
1.863
1.85703
1.84836
2.17804
2.10177
2.02881
1.96195
1.88789
1.82042
1.77265
1.72217
1.66573
1.60345
1.56738
1.55124
1.52539
1.49011
1.44201
1.39431
1.38171
1.37833
1.36971
1.35539
1.33462
1.30838
1.29207
1.28609
1.27925
1.26557
1.24697
1.23866
1.23423
1.22574
1.21856
1.21754
1.21491
1.20665
1.20149
1.20396
1.21537
1.24199
1.2823
1.33207
1.3788
1.43584
1.52416
1.64713
1.73796
1.799
1.82775
1.83544
1.85838
2.07222
2.33922
2.3968
2.38931
2.37253
2.36985
2.37718
2.3772
2.37352
2.36941
2.35303
2.34076
2.33996
2.33975
2.33964
2.33872
2.33708
2.33277
2.32803
2.32575
2.32472
2.32307
2.32013
2.3165
2.31231
2.30953
2.30853
2.30852
2.30763
2.30562
2.30231
2.29663
2.29078
2.28718
2.28398
2.28099
2.2784
2.27512
2.27109
2.26723
2.26435
2.26199
2.25924
2.25552
2.25105
2.24561
2.23853
2.23051
2.22418
2.21976
2.21714
2.21694
2.21659
2.21371
2.20956
2.20377
2.19681
2.1903
2.18469
2.17991
2.1754
2.17085
2.16717
2.16445
2.16217
2.15969
2.15666
2.15298
2.1483
2.14231
2.13584
2.13035
2.1265
2.12338
2.12071
2.11749
2.11362
2.10894
2.10323
2.09669
2.09027
2.08435
2.07941
2.07618
2.07333
2.06959
2.06506
2.0612
2.05792
2.05454
2.05097
2.04713
2.04259
2.03693
2.03058
2.02519
2.02116
2.0176
2.01394
2.01012
2.00568
1.99994
1.99251
1.98449
1.97819
1.97427
1.97147
1.96898
1.96676
1.96503
1.96369
1.96151
1.95757
1.95183
1.94488
1.93781
1.93045
1.9238
1.91938
1.91682
1.91445
1.91117
1.90792
1.90565
1.90384
1.9013
1.89696
1.89154
1.88716
1.88398
1.88063
1.87633
1.87203
1.86923
1.86721
1.86534
1.86289
1.85979
1.85549
1.84901
1.84044
1.8315
1.82236
2.19535
2.12778
2.06185
2.00104
1.93798
1.87795
1.82236
1.77351
1.72979
1.68446
1.6371
1.5848
1.5611
1.54512
1.51458
1.4719
1.42964
1.41042
1.40877
1.40532
1.39153
1.36997
1.34169
1.31725
1.30753
1.29905
1.28381
1.27437
1.27399
1.26934
1.25573
1.24941
1.24516
1.23404
1.21744
1.21157
1.21299
1.21606
1.22342
1.23914
1.2755
1.37615
1.55397
1.64102
1.70832
1.75204
1.77866
1.80867
1.81955
1.86171
2.09049
2.32387
2.37542
2.37549
2.37561
2.37742
2.37329
2.37181
2.36671
2.34912
2.33982
2.33964
2.33755
2.33532
2.33481
2.3335
2.32919
2.32437
2.32223
2.32086
2.32022
2.31958
2.31746
2.31403
2.30955
2.3064
2.30462
2.30328
2.3013
2.29835
2.2934
2.28813
2.28491
2.28279
2.28178
2.27959
2.27595
2.27145
2.26655
2.26244
2.25873
2.25479
2.25063
2.24615
2.24048
2.23315
2.22617
2.22161
2.21898
2.21851
2.21747
2.21436
2.21046
2.20541
2.19872
2.19135
2.18507
2.17976
2.17509
2.17143
2.16859
2.16629
2.16363
2.16013
2.15607
2.1514
2.1461
2.14004
2.13363
2.12765
2.12381
2.12123
2.11903
2.11577
2.1121
2.1076
2.10243
2.09703
2.09144
2.08569
2.0797
2.07358
2.06782
2.0639
2.0615
2.0596
2.05714
2.05369
2.04939
2.04408
2.03825
2.03246
2.02663
2.02093
2.01596
2.01171
2.00804
2.00489
2.001
1.99598
1.98972
1.9831
1.97701
1.97282
1.9698
1.96724
1.96473
1.9619
1.95821
1.95285
1.94701
1.94221
1.93761
1.93278
1.92723
1.92156
1.91585
1.90965