/*--------------------------------*- C++ -*----------------------------------*\
  =========                 |
  \\      /  F ield         | OpenFOAM: The Open Source CFD Toolbox
   \\    /   O peration     | Website:  https://openfoam.org
    \\  /    A nd           | Version:  10
     \\/     M anipulation  |
\*---------------------------------------------------------------------------*/
FoamFile
{
    format      ascii;
    class       volVectorField;
    location    "5";
    object      U;
}
// * * * * * * * * * * * * * * * * * * * * * * * * * * * * * * * * * * * * * //

dimensions      [0 1 -1 0 0 0 0];

internalField   nonuniform List<vector> 
16128
(
(3 -5.7663e-15 0)
(3 1.82759e-14 0)
(3 1.96721e-14 0)
(3 2.10059e-14 0)
(3 2.84526e-14 0)
(3 1.9362e-14 0)
(3 1.57193e-14 0)
(3 3.52821e-14 0)
(3 1.05734e-14 0)
(3 -1.59296e-14 0)
(3 3.75339e-15 0)
(3 3.5247e-14 0)
(3 5.23068e-15 0)
(3 -4.05496e-14 0)
(3 -4.4182e-14 0)
(3 -2.22388e-15 0)
(3 -4.1755e-15 0)
(3 -1.15421e-14 0)
(3 -6.17875e-14 0)
(3 -7.2464e-14 0)
(3 -4.22829e-15 0)
(3 1.4565e-14 0)
(3 3.38129e-14 0)
(3 1.00725e-14 0)
(1.46929 0.00828307 0)
(0.770655 0.00888872 0)
(0.72346 0.0111261 0)
(0.697014 0.0120518 0)
(0.667149 0.0125557 0)
(0.637708 0.0130713 0)
(0.607507 0.0135289 0)
(0.577064 0.0138048 0)
(0.546709 0.0138601 0)
(0.516647 0.013781 0)
(0.486876 0.013784 0)
(0.457122 0.014118 0)
(0.426884 0.0146778 0)
(0.395826 0.0151282 0)
(0.363932 0.0154023 0)
(0.331317 0.0157325 0)
(0.298121 0.0162155 0)
(0.264209 0.0168728 0)
(0.229048 0.017641 0)
(0.191981 0.0185059 0)
(0.153095 0.0192065 0)
(0.112242 0.0205773 0)
(0.068363 0.0219586 0)
(0.0236865 0.0225601 0)
(3 -2.97373e-14 0)
(3 -1.05144e-14 0)
(3 7.63607e-15 0)
(3 1.26756e-14 0)
(3 9.06447e-15 0)
(3 -1.35445e-14 0)
(3 -3.34821e-14 0)
(3 -9.82803e-16 0)
(3 4.19195e-14 0)
(3 2.66559e-14 0)
(3 2.92729e-14 0)
(3 6.97068e-14 0)
(3 4.84748e-14 0)
(3 7.17656e-15 0)
(3 -7.13281e-15 0)
(3 1.42961e-14 0)
(3 -3.0663e-14 0)
(3 -7.54691e-14 0)
(3 -1.01053e-13 0)
(3 -8.47083e-14 0)
(3 -4.66073e-14 0)
(3 -4.77515e-14 0)
(3 -4.28944e-14 0)
(3 3.35101e-15 0)
(1.48442 0.038442 0)
(0.766543 0.0359708 0)
(0.71586 0.0329121 0)
(0.689109 0.0347003 0)
(0.659257 0.0361356 0)
(0.629876 0.0377664 0)
(0.599745 0.039291 0)
(0.569305 0.0402537 0)
(0.53888 0.0404896 0)
(0.508742 0.0402569 0)
(0.478944 0.0402953 0)
(0.449201 0.0414073 0)
(0.418961 0.043201 0)
(0.387898 0.0446017 0)
(0.356138 0.0454989 0)
(0.323891 0.0466926 0)
(0.291254 0.0484184 0)
(0.258028 0.0505938 0)
(0.223755 0.0528826 0)
(0.187932 0.0554603 0)
(0.150492 0.0577826 0)
(0.111012 0.0625523 0)
(0.0679286 0.0672503 0)
(0.0245219 0.0691738 0)
(3 -9.89913e-15 0)
(3 -3.3902e-14 0)
(3 -1.01477e-14 0)
(3 -1.86637e-14 0)
(3 -2.81475e-14 0)
(3 -4.13621e-14 0)
(3 -4.05776e-14 0)
(3 -4.10477e-14 0)
(3 -5.65624e-15 0)
(3 -4.53829e-14 0)
(3 -6.8152e-14 0)
(3 -6.20016e-14 0)
(3 -5.6284e-14 0)
(3 -3.05516e-14 0)
(3 -2.13648e-14 0)
(3 -2.43904e-14 0)
(3 -5.18584e-14 0)
(3 -5.15429e-14 0)
(3 -1.7961e-14 0)
(3 -7.86574e-14 0)
(3 -1.52468e-13 0)
(3 -1.77165e-13 0)
(3 -1.54271e-13 0)
(3 8.87002e-15 0)
(1.53301 0.0678922 0)
(0.773188 0.0628264 0)
(0.717872 0.0570542 0)
(0.689526 0.0593237 0)
(0.658668 0.0614245 0)
(0.628607 0.0639061 0)
(0.59802 0.0663206 0)
(0.567156 0.0679076 0)
(0.536248 0.0683602 0)
(0.505582 0.0680033 0)
(0.475224 0.0679726 0)
(0.444878 0.0696321 0)
(0.413994 0.0724412 0)
(0.382274 0.0746822 0)
(0.349967 0.0761063 0)
(0.317289 0.0778925 0)
(0.284227 0.0803412 0)
(0.250612 0.0834036 0)
(0.216267 0.086619 0)
(0.181076 0.0906392 0)
(0.144816 0.094617 0)
(0.107133 0.10316 0)
(0.0655918 0.111082 0)
(0.0258887 0.113948 0)
(3 8.43135e-15 0)
(3 -1.85811e-14 0)
(3 -1.52587e-14 0)
(3 -9.7008e-15 0)
(3 5.93342e-15 0)
(3 2.24925e-14 0)
(3 6.30814e-14 0)
(3 6.34854e-14 0)
(3 -5.16307e-14 0)
(3 -9.13149e-14 0)
(3 -1.20746e-13 0)
(3 -1.37044e-13 0)
(3 -1.45092e-13 0)
(3 -1.3935e-13 0)
(3 -7.5016e-14 0)
(3 -5.18884e-14 0)
(3 -4.67989e-14 0)
(3 2.35436e-14 0)
(3 1.62583e-14 0)
(3 -5.73335e-15 0)
(3 -4.10826e-14 0)
(3 -2.63624e-14 0)
(3 -3.22383e-14 0)
(3 -9.76308e-14 0)
(1.60673 0.0944073 0)
(0.781586 0.0896011 0)
(0.720955 0.0821072 0)
(0.691937 0.0841144 0)
(0.661006 0.0865754 0)
(0.631168 0.0897199 0)
(0.600984 0.0929885 0)
(0.570453 0.0953325 0)
(0.539671 0.0962664 0)
(0.50891 0.0960578 0)
(0.478267 0.0961193 0)
(0.447495 0.0984295 0)
(0.416077 0.102433 0)
(0.383676 0.105813 0)
(0.350609 0.108048 0)
(0.317076 0.110563 0)
(0.282948 0.113694 0)
(0.24807 0.11745 0)
(0.212523 0.121139 0)
(0.176653 0.126148 0)
(0.14005 0.131171 0)
(0.103367 0.143222 0)
(0.0627346 0.153264 0)
(0.0276254 0.156587 0)
(3 3.04484e-14 0)
(3 2.26565e-14 0)
(3 1.53734e-14 0)
(3 4.15008e-14 0)
(3 5.11374e-14 0)
(3 5.70057e-14 0)
(3 5.66587e-14 0)
(3 7.45409e-16 0)
(3 -4.38329e-14 0)
(3 5.45488e-15 0)
(3 -2.88969e-14 0)
(3 -6.88113e-14 0)
(3 -7.85652e-14 0)
(3 -8.26897e-14 0)
(3 -1.15392e-13 0)
(3 -9.70394e-14 0)
(3 -4.0806e-14 0)
(3 -3.62634e-14 0)
(3 -6.73157e-14 0)
(3 -8.30979e-14 0)
(3 -6.80695e-14 0)
(3 -5.2945e-16 0)
(3 8.5747e-14 0)
(3 -1.38305e-13 0)
(1.70788 0.120866 0)
(0.792233 0.116912 0)
(0.723236 0.108697 0)
(0.693142 0.109472 0)
(0.661929 0.111842 0)
(0.632205 0.11532 0)
(0.60244 0.119297 0)
(0.572378 0.122448 0)
(0.541941 0.124047 0)
(0.51136 0.124182 0)
(0.480804 0.124367 0)
(0.450155 0.127232 0)
(0.418966 0.132384 0)
(0.38677 0.137 0)
(0.35385 0.140214 0)
(0.320381 0.143631 0)
(0.286073 0.14762 0)
(0.250677 0.152305 0)
(0.214328 0.156619 0)
(0.177773 0.162787 0)
(0.140245 0.168532 0)
(0.103472 0.183443 0)
(0.0622085 0.195103 0)
(0.0253315 0.197384 0)
(3 3.47132e-15 0)
(3 3.97207e-14 0)
(3 2.02779e-14 0)
(3 1.23379e-14 0)
(3 1.3912e-14 0)
(3 1.54734e-15 0)
(3 -4.81755e-14 0)
(3 -1.4681e-13 0)
(3 -1.20411e-13 0)
(3 -8.32782e-14 0)
(3 -8.4411e-14 0)
(3 -9.62985e-14 0)
(3 -3.31436e-14 0)
(3 -4.4939e-14 0)
(3 -9.80382e-14 0)
(3 -9.9782e-14 0)
(3 -4.19473e-14 0)
(3 -6.52352e-14 0)
(3 -5.79852e-14 0)
(3 -2.31913e-14 0)
(3 -8.04472e-15 0)
(3 1.43679e-14 0)
(3 9.61755e-14 0)
(3 -2.04114e-14 0)
(1.8453 0.145099 0)
(0.808963 0.14462 0)
(0.727986 0.136874 0)
(0.696752 0.135431 0)
(0.6651 0.137354 0)
(0.635251 0.140936 0)
(0.605601 0.145505 0)
(0.575727 0.14951 0)
(0.545393 0.151978 0)
(0.514744 0.152723 0)
(0.484013 0.153128 0)
(0.453252 0.15645 0)
(0.422129 0.162657 0)
(0.389971 0.16855 0)
(0.35693 0.172866 0)
(0.323219 0.177334 0)
(0.288512 0.182339 0)
(0.252582 0.188146 0)
(0.21555 0.193104 0)
(0.178495 0.200409 0)
(0.140126 0.206406 0)
(0.103092 0.223696 0)
(0.061902 0.237909 0)
(0.021625 0.238396 0)
(3 -6.11394e-15 0)
(3 6.87807e-15 0)
(3 -1.13603e-14 0)
(3 -4.80168e-14 0)
(3 -3.07423e-14 0)
(3 -2.79672e-14 0)
(3 -5.82067e-14 0)
(3 -9.96217e-14 0)
(3 -5.31395e-14 0)
(3 -6.96864e-14 0)
(3 -4.76393e-14 0)
(3 -4.55074e-14 0)
(3 -2.43846e-14 0)
(3 -3.73411e-14 0)
(3 1.41692e-14 0)
(3 3.72446e-14 0)
(3 -3.84661e-15 0)
(3 -3.13883e-14 0)
(3 -1.64701e-14 0)
(3 5.66133e-14 0)
(3 5.08973e-14 0)
(3 -1.4206e-15 0)
(3 6.18685e-14 0)
(3 7.18328e-14 0)
(2.01705 0.163205 0)
(0.831567 0.172581 0)
(0.733627 0.165836 0)
(0.702151 0.1614 0)
(0.670713 0.16255 0)
(0.641482 0.165994 0)
(0.612731 0.170934 0)
(0.583901 0.175677 0)
(0.55452 0.17904 0)
(0.524532 0.180595 0)
(0.494147 0.181336 0)
(0.463612 0.185051 0)
(0.432757 0.192271 0)
(0.400673 0.199616 0)
(0.367307 0.205347 0)
(0.332996 0.211232 0)
(0.297471 0.217635 0)
(0.260528 0.225014 0)
(0.22199 0.230963 0)
(0.183142 0.23969 0)
(0.142317 0.245655 0)
(0.103958 0.264481 0)
(0.0631896 0.279879 0)
(0.0283462 0.281113 0)
(3 2.56349e-15 0)
(3 -6.60091e-15 0)
(3 8.39835e-15 0)
(3 2.29948e-14 0)
(3 9.75434e-15 0)
(3 -2.46102e-14 0)
(3 -7.89642e-14 0)
(3 -7.43929e-14 0)
(3 -8.50353e-14 0)
(3 -5.56696e-14 0)
(3 2.42776e-14 0)
(3 3.46029e-14 0)
(3 8.51009e-15 0)
(3 3.96933e-14 0)
(3 6.57638e-14 0)
(3 8.19692e-14 0)
(3 5.61915e-14 0)
(3 8.58547e-15 0)
(3 -2.16558e-14 0)
(3 -4.09745e-14 0)
(3 -2.50147e-14 0)
(3 -4.29756e-14 0)
(3 1.52106e-14 0)
(3 -4.57393e-14 0)
(2.21902 0.176623 0)
(0.85561 0.205387 0)
(0.732364 0.196224 0)
(0.701124 0.188174 0)
(0.669579 0.188373 0)
(0.640582 0.191415 0)
(0.612251 0.196444 0)
(0.584119 0.201808 0)
(0.555643 0.206132 0)
(0.526621 0.208743 0)
(0.497166 0.210006 0)
(0.467699 0.214064 0)
(0.438263 0.222241 0)
(0.407589 0.231144 0)
(0.375164 0.238498 0)
(0.341362 0.246084 0)
(0.305926 0.254204 0)
(0.268773 0.263585 0)
(0.229355 0.270937 0)
(0.189264 0.281654 0)
(0.145954 0.28799 0)
(0.105244 0.308229 0)
(0.0621388 0.321014 0)
(0.0405329 0.324294 0)
(3 -9.44008e-15 0)
(3 -2.10777e-14 0)
(3 6.25868e-15 0)
(3 -3.68302e-15 0)
(3 -2.16537e-14 0)
(3 -1.51409e-14 0)
(3 -1.82857e-14 0)
(3 2.17919e-14 0)
(3 -1.11593e-14 0)
(3 -1.59789e-14 0)
(3 1.42556e-14 0)
(3 -2.70151e-14 0)
(3 -3.81231e-14 0)
(3 1.58312e-14 0)
(3 1.30074e-14 0)
(3 2.64013e-14 0)
(3 1.15814e-13 0)
(3 1.12948e-13 0)
(3 1.33636e-13 0)
(3 1.06575e-13 0)
(3 -5.98744e-15 0)
(3 -5.18423e-14 0)
(3 -4.36156e-14 0)
(3 -1.88563e-13 0)
(2.45756 0.187535 0)
(0.896436 0.245465 0)
(0.744334 0.225769 0)
(0.715956 0.216839 0)
(0.683142 0.216172 0)
(0.652635 0.218657 0)
(0.622571 0.223466 0)
(0.593049 0.228937 0)
(0.563583 0.233607 0)
(0.53385 0.236855 0)
(0.503826 0.238352 0)
(0.474112 0.242266 0)
(0.445165 0.250975 0)
(0.415599 0.261392 0)
(0.384264 0.27061 0)
(0.351472 0.28032 0)
(0.316796 0.290634 0)
(0.280228 0.302537 0)
(0.240583 0.311689 0)
(0.200135 0.324865 0)
(0.155386 0.332447 0)
(0.113509 0.35465 0)
(0.0673087 0.364445 0)
(0.0450138 0.370015 0)
(3 4.51203e-16 0)
(3 -9.85527e-16 0)
(3 -2.41753e-14 0)
(3 -6.50415e-14 0)
(3 -6.09983e-14 0)
(3 -2.14494e-14 0)
(3 2.85639e-14 0)
(3 4.43902e-14 0)
(3 2.83981e-14 0)
(3 3.96975e-14 0)
(3 2.50125e-14 0)
(3 -3.4128e-14 0)
(3 -2.74335e-14 0)
(3 2.67999e-14 0)
(3 5.60568e-14 0)
(3 4.99429e-14 0)
(3 7.81153e-14 0)
(3 7.4317e-14 0)
(3 1.05483e-13 0)
(3 1.08829e-13 0)
(3 2.27497e-14 0)
(3 -2.18615e-14 0)
(3 -3.67141e-14 0)
(3 -1.65998e-13 0)
(2.72637 0.181683 0)
(0.971874 0.279886 0)
(0.779409 0.240958 0)
(0.75316 0.239284 0)
(0.716864 0.241758 0)
(0.683175 0.245381 0)
(0.649444 0.2507 0)
(0.616365 0.25678 0)
(0.583589 0.262277 0)
(0.550941 0.266534 0)
(0.518278 0.268448 0)
(0.486295 0.27183 0)
(0.455886 0.280342 0)
(0.426025 0.291711 0)
(0.394972 0.302467 0)
(0.362888 0.314251 0)
(0.328935 0.326964 0)
(0.293072 0.341988 0)
(0.253036 0.353758 0)
(0.212004 0.370063 0)
(0.165504 0.379811 0)
(0.121534 0.404312 0)
(0.0718682 0.412903 0)
(0.047377 0.420074 0)
(3 -7.09207e-15 0)
(3 3.65958e-15 0)
(3 -3.29339e-15 0)
(3 5.0916e-15 0)
(3 1.0404e-15 0)
(3 -3.61275e-14 0)
(3 -2.21012e-14 0)
(3 -1.42291e-14 0)
(3 -2.19221e-14 0)
(3 -5.03359e-14 0)
(3 -7.23785e-14 0)
(3 -5.16554e-14 0)
(3 -2.33037e-14 0)
(3 -2.56288e-15 0)
(3 9.04941e-15 0)
(3 -4.02852e-14 0)
(3 -6.31094e-14 0)
(3 -4.25513e-14 0)
(3 -6.37615e-15 0)
(3 1.03785e-14 0)
(3 -1.84391e-14 0)
(3 -3.11088e-14 0)
(3 -5.05849e-14 0)
(3 -1.31847e-13 0)
(2.96561 0.0672912 0)
(1.06984 0.290354 0)
(0.807641 0.256235 0)
(0.790983 0.263387 0)
(0.755357 0.268887 0)
(0.720353 0.274245 0)
(0.684078 0.280814 0)
(0.648246 0.287802 0)
(0.612792 0.293782 0)
(0.577402 0.298765 0)
(0.541743 0.301198 0)
(0.506623 0.303848 0)
(0.473375 0.311458 0)
(0.441778 0.323075 0)
(0.40982 0.334739 0)
(0.377565 0.34822 0)
(0.343816 0.363221 0)
(0.30891 0.38168 0)
(0.269262 0.396594 0)
(0.228699 0.416239 0)
(0.181187 0.429313 0)
(0.134682 0.457418 0)
(0.0803873 0.466689 0)
(0.0532417 0.47516 0)
(3 6.18779e-15 0)
(3 3.7864e-14 0)
(3 2.25191e-14 0)
(3 4.88339e-14 0)
(3 2.79562e-14 0)
(3 2.28559e-15 0)
(3 -2.73926e-14 0)
(3 -3.52637e-14 0)
(3 -1.65163e-14 0)
(3 -4.19232e-14 0)
(3 -7.54354e-14 0)
(3 -9.47338e-15 0)
(3 -1.72241e-14 0)
(3 -3.92322e-14 0)
(3 -2.10389e-14 0)
(3 -1.26007e-14 0)
(3 -2.65429e-14 0)
(3 -1.2279e-14 0)
(3 -5.63459e-15 0)
(3 -1.48629e-15 0)
(3 -1.01006e-14 0)
(3 -4.48806e-14 0)
(3 -9.23062e-14 0)
(3 -1.26979e-13 0)
(3.01505 0.00584827 0)
(1.15731 0.286241 0)
(0.806852 0.269632 0)
(0.79722 0.293104 0)
(0.76861 0.301174 0)
(0.740323 0.305973 0)
(0.710017 0.311446 0)
(0.677999 0.318521 0)
(0.64416 0.326183 0)
(0.608957 0.332994 0)
(0.57222 0.336738 0)
(0.53478 0.339158 0)
(0.498456 0.345527 0)
(0.464205 0.356809 0)
(0.430307 0.368695 0)
(0.397025 0.383228 0)
(0.362837 0.399818 0)
(0.328607 0.421498 0)
(0.288787 0.440408 0)
(0.247179 0.464922 0)
(0.196442 0.483824 0)
(0.146944 0.517706 0)
(0.086312 0.528819 0)
(0.0557096 0.538373 0)
(3 2.2562e-14 0)
(3 2.00252e-15 0)
(3 1.41526e-14 0)
(3 6.24953e-14 0)
(3 6.86768e-14 0)
(3 5.05135e-14 0)
(3 2.82903e-14 0)
(3 6.48021e-15 0)
(3 1.05148e-14 0)
(3 -2.11008e-15 0)
(3 5.1206e-15 0)
(3 1.36748e-14 0)
(3 2.37501e-15 0)
(3 -2.01171e-14 0)
(3 -1.69175e-14 0)
(3 4.07155e-14 0)
(3 3.27655e-14 0)
(3 -5.06743e-14 0)
(3 -1.08277e-13 0)
(3 -7.79074e-14 0)
(3 -9.10566e-14 0)
(3 -9.17306e-14 0)
(3 -2.31599e-14 0)
(3 1.69963e-14 0)
(3.00044 1.23556e-05 0)
(1.29223 0.30689 0)
(0.7969 0.277038 0)
(0.778877 0.307575 0)
(0.756548 0.324616 0)
(0.734227 0.332318 0)
(0.712802 0.339046 0)
(0.691349 0.346938 0)
(0.667253 0.355548 0)
(0.638453 0.364796 0)
(0.60501 0.371816 0)
(0.568327 0.376043 0)
(0.530626 0.382099 0)
(0.494089 0.393208 0)
(0.457887 0.404936 0)
(0.422856 0.419916 0)
(0.387216 0.437546 0)
(0.352882 0.462394 0)
(0.313236 0.486292 0)
(0.272165 0.51643 0)
(0.221946 0.54129 0)
(0.172357 0.582153 0)
(0.104191 0.598208 0)
(0.0700606 0.611705 0)
(3 -8.0007e-15 0)
(3 -2.11622e-14 0)
(3 2.69599e-14 0)
(3 4.60709e-14 0)
(3 6.67165e-14 0)
(3 5.30456e-14 0)
(3 3.26702e-14 0)
(3 5.17091e-14 0)
(3 6.32153e-14 0)
(3 7.03098e-14 0)
(3 5.94703e-14 0)
(3 6.44e-15 0)
(3 4.12059e-14 0)
(3 4.37964e-14 0)
(3 3.10544e-14 0)
(3 -3.77387e-15 0)
(3 -2.34073e-14 0)
(3 -2.14972e-14 0)
(3 -3.20566e-14 0)
(3 -3.08593e-14 0)
(3 -6.77299e-14 0)
(3 -7.27228e-14 0)
(3 -4.31879e-14 0)
(3 -1.68901e-14 0)
(3 -4.11643e-08 0)
(1.51659 0.33743 0)
(0.80847 0.310686 0)
(0.750366 0.318409 0)
(0.73358 0.331875 0)
(0.716579 0.341274 0)
(0.701657 0.351777 0)
(0.686091 0.363953 0)
(0.670559 0.378218 0)
(0.652408 0.392213 0)
(0.628378 0.40386 0)
(0.598145 0.412176 0)
(0.563713 0.419931 0)
(0.528113 0.431943 0)
(0.491183 0.443794 0)
(0.454683 0.459371 0)
(0.41791 0.47723 0)
(0.383815 0.504246 0)
(0.345124 0.532427 0)
(0.305197 0.568825 0)
(0.251991 0.604275 0)
(0.196792 0.659788 0)
(0.116897 0.68749 0)
(0.0717499 0.708582 0)
(3 -5.96372e-15 0)
(3 1.27984e-15 0)
(3 1.91615e-14 0)
(3 1.49307e-14 0)
(3 2.53721e-14 0)
(3 1.32176e-15 0)
(3 1.69413e-14 0)
(3 3.67008e-14 0)
(3 5.97465e-14 0)
(3 6.80287e-14 0)
(3 5.2706e-14 0)
(3 1.09997e-14 0)
(3 2.14775e-14 0)
(3 1.69802e-14 0)
(3 -2.1867e-14 0)
(3 -9.05655e-14 0)
(3 -6.20903e-14 0)
(3 -3.75313e-14 0)
(3 -1.3494e-14 0)
(3 -2.51036e-15 0)
(3 1.47252e-14 0)
(3 -9.68492e-15 0)
(3 -7.93336e-14 0)
(3 -6.85536e-14 0)
(3 -5.247e-08 0)
(1.85759 0.376286 0)
(0.838224 0.372116 0)
(0.74493 0.350127 0)
(0.725228 0.348996 0)
(0.710372 0.356235 0)
(0.695579 0.365119 0)
(0.681287 0.376677 0)
(0.667414 0.391501 0)
(0.654326 0.409484 0)
(0.639588 0.427548 0)
(0.61864 0.442272 0)
(0.591681 0.454459 0)
(0.561568 0.469583 0)
(0.527026 0.483722 0)
(0.491883 0.500784 0)
(0.454953 0.518693 0)
(0.420895 0.547268 0)
(0.383291 0.580331 0)
(0.345609 0.625727 0)
(0.296261 0.673975 0)
(0.250345 0.743365 0)
(0.167874 0.788447 0)
(0.111171 0.822245 0)
(3 -5.44979e-15 0)
(3 -1.99416e-14 0)
(3 -1.20985e-15 0)
(3 -3.17746e-14 0)
(3 -4.20653e-14 0)
(3 -1.82319e-14 0)
(3 5.90738e-14 0)
(3 7.0156e-14 0)
(3 5.62241e-14 0)
(3 5.1356e-14 0)
(3 7.50589e-14 0)
(3 7.53483e-14 0)
(3 9.95553e-15 0)
(3 -1.88875e-14 0)
(3 -5.54255e-14 0)
(3 -1.14386e-13 0)
(3 -9.84969e-14 0)
(3 -4.8905e-15 0)
(3 1.08328e-14 0)
(3 5.1083e-15 0)
(3 -3.16786e-14 0)
(3 -7.63397e-16 0)
(3 4.46583e-14 0)
(3 3.34085e-14 0)
(3 -1.1184e-08 0)
(2.35616 0.372291 0)
(0.915563 0.438814 0)
(0.791634 0.375877 0)
(0.758664 0.372429 0)
(0.72979 0.376418 0)
(0.706191 0.383746 0)
(0.687081 0.394287 0)
(0.670696 0.407522 0)
(0.657095 0.424495 0)
(0.644888 0.444348 0)
(0.631478 0.464548 0)
(0.612403 0.482599 0)
(0.590107 0.502333 0)
(0.562251 0.52126 0)
(0.53176 0.541803 0)
(0.49696 0.561162 0)
(0.464737 0.591518 0)
(0.43026 0.62818 0)
(0.400568 0.67952 0)
(0.357343 0.736403 0)
(0.316627 0.834895 0)
(0.206675 0.944619 0)
(0.160899 1.03816 0)
(3 -8.18787e-15 0)
(3 -2.51181e-14 0)
(3 -6.13682e-14 0)
(3 -8.84061e-14 0)
(3 -6.47301e-14 0)
(3 2.43073e-14 0)
(3 1.04718e-13 0)
(3 8.26285e-14 0)
(3 5.23573e-14 0)
(3 7.36193e-14 0)
(3 2.65957e-14 0)
(3 6.65484e-15 0)
(3 4.3671e-14 0)
(3 8.82391e-14 0)
(3 6.95703e-14 0)
(3 3.64337e-14 0)
(3 -2.1099e-14 0)
(3 -3.853e-14 0)
(3 1.50022e-14 0)
(3 4.6041e-14 0)
(3 5.75819e-14 0)
(3 6.37912e-14 0)
(3 1.11419e-13 0)
(3 1.02488e-13 0)
(3 -1.15492e-09 0)
(2.94027 0.167981 0)
(1.09121 0.458245 0)
(0.866162 0.398641 0)
(0.830591 0.396946 0)
(0.783429 0.402284 0)
(0.743264 0.407024 0)
(0.712283 0.414439 0)
(0.687965 0.425561 0)
(0.669291 0.441078 0)
(0.65489 0.460428 0)
(0.64306 0.482266 0)
(0.629388 0.50459 0)
(0.613387 0.528965 0)
(0.594061 0.553702 0)
(0.571022 0.579801 0)
(0.541834 0.602847 0)
(0.514602 0.635534 0)
(0.484486 0.673558 0)
(0.463366 0.730912 0)
(0.427694 0.809271 0)
(0.410891 0.944043 0)
(0.395288 1.09442 0)
(0.539431 1.34672 0)
(3 -1.57504e-14 0)
(3 1.28717e-15 0)
(3 -3.66323e-14 0)
(3 -4.5808e-14 0)
(3 -2.63478e-14 0)
(3 6.51641e-15 0)
(3 2.2305e-14 0)
(3 1.23378e-14 0)
(3 -2.0391e-15 0)
(3 -1.10146e-14 0)
(3 -1.20301e-14 0)
(3 2.10293e-14 0)
(3 7.28007e-14 0)
(3 1.08241e-13 0)
(3 1.23079e-13 0)
(3 1.40411e-13 0)
(3 3.72327e-14 0)
(3 -1.97163e-14 0)
(3 -1.01621e-13 0)
(3 -1.18953e-13 0)
(3 -8.05099e-14 0)
(3 2.33362e-15 0)
(3 4.61743e-14 0)
(3 3.81385e-14 0)
(3 -4.70894e-11 0)
(3.04136 0.00909222 0)
(1.27043 0.421655 0)
(0.880047 0.431054 0)
(0.857272 0.449956 0)
(0.822324 0.447995 0)
(0.78492 0.444539 0)
(0.748974 0.44566 0)
(0.71756 0.450738 0)
(0.692171 0.461341 0)
(0.673181 0.477692 0)
(0.659258 0.498843 0)
(0.647172 0.522636 0)
(0.636087 0.549851 0)
(0.623222 0.579124 0)
(0.609322 0.611079 0)
(0.588237 0.639834 0)
(0.569002 0.676058 0)
(0.545845 0.71607 0)
(0.534084 0.777909 0)
(0.524463 0.869076 0)
(0.53826 1.00861 0)
(0.625035 1.1601 0)
(0.933084 1.34855 0)
(3 1.53575e-15 0)
(3 5.20333e-14 0)
(3 9.18212e-14 0)
(3 5.61347e-14 0)
(3 1.34368e-14 0)
(3 7.02605e-15 0)
(3 -2.62922e-14 0)
(3 -4.27624e-15 0)
(3 5.18364e-14 0)
(3 7.43769e-15 0)
(3 5.14295e-14 0)
(3 6.63187e-14 0)
(3 1.79943e-14 0)
(3 4.545e-15 0)
(3 2.69204e-14 0)
(3 8.98448e-14 0)
(3 8.04168e-14 0)
(3 6.64178e-14 0)
(3 8.35662e-15 0)
(3 -5.06413e-14 0)
(3 -2.8811e-14 0)
(3 -1.38906e-14 0)
(3 -1.8293e-14 0)
(3 1.36528e-14 0)
(3 -9.65066e-13 0)
(3.00124 -9.44289e-06 0)
(1.50319 0.423426 0)
(0.863513 0.459868 0)
(0.842359 0.469754 0)
(0.822077 0.474025 0)
(0.801479 0.475804 0)
(0.776537 0.478346 0)
(0.748427 0.481729 0)
(0.721526 0.488175 0)
(0.698283 0.499695 0)
(0.681398 0.517846 0)
(0.667869 0.540398 0)
(0.659358 0.568207 0)
(0.650358 0.599915 0)
(0.644932 0.636097 0)
(0.633411 0.671176 0)
(0.624491 0.711653 0)
(0.612027 0.754573 0)
(0.611374 0.816274 0)
(0.626292 0.906042 0)
(0.673504 1.02843 0)
(0.823105 1.16452 0)
(1.15947 1.2788 0)
(3 4.70783e-14 0)
(3 4.67955e-14 0)
(3 2.12159e-14 0)
(3 2.0093e-14 0)
(3 -2.15827e-14 0)
(3 -4.2155e-14 0)
(3 -9.03438e-14 0)
(3 -7.10169e-14 0)
(3 -1.18549e-14 0)
(3 3.78203e-16 0)
(3 8.00829e-15 0)
(3 -4.76234e-15 0)
(3 -3.16195e-14 0)
(3 -7.89414e-15 0)
(3 4.52607e-14 0)
(3 5.30194e-14 0)
(3 2.91187e-14 0)
(3 1.01106e-14 0)
(3 1.75967e-14 0)
(3 7.62535e-15 0)
(3 -2.64997e-14 0)
(3 -2.50139e-14 0)
(3 1.10363e-14 0)
(3 4.25835e-14 0)
(3 7.89852e-14 0)
(3 -1.17998e-07 0)
(1.95361 0.452949 0)
(0.895442 0.490775 0)
(0.829748 0.476234 0)
(0.824221 0.486624 0)
(0.811248 0.494933 0)
(0.795327 0.502475 0)
(0.774792 0.508935 0)
(0.752538 0.515814 0)
(0.729492 0.52409 0)
(0.710804 0.538929 0)
(0.694797 0.55828 0)
(0.686369 0.58445 0)
(0.67937 0.615945 0)
(0.679415 0.653835 0)
(0.676807 0.694056 0)
(0.679004 0.738425 0)
(0.679384 0.784644 0)
(0.69147 0.843161 0)
(0.722547 0.923855 0)
(0.798685 1.02879 0)
(0.970053 1.13787 0)
(1.24932 1.20915 0)
(3 4.82848e-15 0)
(3 -4.02771e-14 0)
(3 -9.6062e-14 0)
(3 -7.99417e-14 0)
(3 -5.99418e-14 0)
(3 -7.60937e-14 0)
(3 -1.12471e-13 0)
(3 -1.23098e-13 0)
(3 -1.33053e-13 0)
(3 -2.6671e-14 0)
(3 -5.46685e-14 0)
(3 -9.64137e-14 0)
(3 -1.02765e-13 0)
(3 2.61909e-14 0)
(3 5.87226e-14 0)
(3 1.89302e-15 0)
(3 4.42553e-14 0)
(3 4.74687e-14 0)
(3 -3.28286e-15 0)
(3 -5.63193e-14 0)
(3 -5.35337e-14 0)
(3 3.94511e-14 0)
(3 3.6456e-14 0)
(3 -1.51574e-14 0)
(3 -1.58453e-14 0)
(3 -1.4846e-07 0)
(2.63652 0.348256 0)
(1.02146 0.546774 0)
(0.874354 0.484725 0)
(0.853753 0.495003 0)
(0.834693 0.509011 0)
(0.817955 0.521064 0)
(0.800143 0.531597 0)
(0.782417 0.541919 0)
(0.762344 0.550662 0)
(0.744189 0.5641 0)
(0.727357 0.579871 0)
(0.717217 0.602985 0)
(0.711074 0.632016 0)
(0.71377 0.668405 0)
(0.717923 0.710312 0)
(0.729787 0.757159 0)
(0.743394 0.806493 0)
(0.768259 0.862053 0)
(0.811831 0.932067 0)
(0.90432 1.01709 0)
(1.06922 1.0969 0)
(1.30269 1.14513 0)
(3 -2.34156e-14 0)
(3 -1.30304e-14 0)
(3 -8.35486e-15 0)
(3 -7.31606e-15 0)
(3 -2.81368e-15 0)
(3 -2.32167e-14 0)
(3 -2.55045e-14 0)
(3 -5.63188e-14 0)
(3 -3.9186e-14 0)
(3 -3.23226e-14 0)
(3 -4.16547e-14 0)
(3 -3.06485e-14 0)
(3 -2.79565e-14 0)
(3 5.22437e-15 0)
(3 1.56908e-14 0)
(3 -1.92013e-14 0)
(3 3.56527e-14 0)
(3 7.24977e-14 0)
(3 2.05146e-14 0)
(3 3.00792e-15 0)
(3 -2.17936e-14 0)
(3 -5.06483e-14 0)
(3 -5.92912e-14 0)
(3 -9.2372e-14 0)
(3 -7.22791e-15 0)
(3 -3.12511e-08 0)
(3.08085 0.0440889 0)
(1.27918 0.526437 0)
(0.93038 0.515642 0)
(0.896999 0.525347 0)
(0.870005 0.530674 0)
(0.847973 0.539093 0)
(0.829668 0.549657 0)
(0.814297 0.561961 0)
(0.797194 0.57272 0)
(0.781263 0.586928 0)
(0.765446 0.601227 0)
(0.753884 0.621378 0)
(0.747304 0.646974 0)
(0.750143 0.680081 0)
(0.758132 0.720084 0)
(0.776086 0.766337 0)
(0.8006 0.816843 0)
(0.836629 0.870486 0)
(0.891007 0.931615 0)
(0.988561 0.997894 0)
(1.13603 1.05289 0)
(1.3259 1.08335 0)
(3 -1.07377e-14 0)
(3 -5.59744e-15 0)
(3 6.56509e-16 0)
(3 3.40592e-14 0)
(3 6.07811e-14 0)
(3 5.50208e-14 0)
(3 3.09018e-14 0)
(3 2.73017e-14 0)
(3 1.84404e-14 0)
(3 -1.33424e-14 0)
(3 -1.08177e-14 0)
(3 -2.08651e-14 0)
(3 -1.41794e-14 0)
(3 -6.11502e-14 0)
(3 -1.06523e-13 0)
(3 -1.41824e-13 0)
(3 -1.48326e-13 0)
(3 -1.05671e-13 0)
(3 4.26565e-14 0)
(3 1.06501e-13 0)
(3 7.06698e-14 0)
(3 2.56258e-14 0)
(3 1.40926e-14 0)
(3 1.16403e-14 0)
(3 7.43235e-14 0)
(3 -3.18165e-09 0)
(3.00837 9.77641e-05 0)
(1.51611 0.509041 0)
(0.918075 0.572572 0)
(0.892381 0.557927 0)
(0.876718 0.558992 0)
(0.861332 0.564238 0)
(0.847313 0.572903 0)
(0.835933 0.585022 0)
(0.823646 0.596729 0)
(0.812833 0.611505 0)
(0.801208 0.625792 0)
(0.79196 0.643698 0)
(0.786069 0.665217 0)
(0.788637 0.693902 0)
(0.798763 0.729538 0)
(0.819711 0.771647 0)
(0.850755 0.819512 0)
(0.895335 0.870869 0)
(0.958609 0.925595 0)
(1.05619 0.97879 0)
(1.1853 1.01716 0)
(1.34377 1.03596 0)
(3 -6.28162e-15 0)
(3 -5.89778e-15 0)
(3 3.28328e-14 0)
(3 3.06131e-14 0)
(3 3.03423e-14 0)
(3 5.67898e-14 0)
(3 9.7237e-14 0)
(3 8.90746e-14 0)
(3 5.15379e-14 0)
(3 -1.34417e-15 0)
(3 4.60338e-15 0)
(3 2.57472e-14 0)
(3 5.19614e-14 0)
(3 -1.01037e-14 0)
(3 -8.22827e-14 0)
(3 -1.02288e-13 0)
(3 -6.32455e-14 0)
(3 -7.86914e-16 0)
(3 6.96407e-14 0)
(3 1.06882e-13 0)
(3 1.56489e-13 0)
(3 1.74843e-13 0)
(3 1.44939e-13 0)
(3 1.34424e-13 0)
(3 7.21417e-14 0)
(3 -1.00937e-10 0)
(3.00005 -2.10368e-06 0)
(2.09941 0.510147 0)
(0.969234 0.603593 0)
(0.906715 0.566486 0)
(0.898173 0.572473 0)
(0.885652 0.580264 0)
(0.87282 0.588659 0)
(0.862273 0.60087 0)
(0.852192 0.613393 0)
(0.844654 0.628951 0)
(0.83712 0.64455 0)
(0.831487 0.662556 0)
(0.827568 0.681706 0)
(0.829914 0.70643 0)
(0.840646 0.737368 0)
(0.862189 0.774051 0)
(0.895141 0.816379 0)
(0.943353 0.862674 0)
(1.01088 0.910769 0)
(1.10573 0.955494 0)
(1.21997 0.984249 0)
(1.35479 0.995433 0)
(3 7.43999e-15 0)
(3 3.86619e-15 0)
(3 1.57184e-14 0)
(3 9.4903e-15 0)
(3 -4.81609e-15 0)
(3 -1.53801e-14 0)
(3 2.33389e-14 0)
(3 5.98795e-14 0)
(3 6.84582e-14 0)
(3 5.46423e-15 0)
(3 -1.33116e-14 0)
(3 2.43902e-14 0)
(3 8.29972e-14 0)
(3 6.64571e-14 0)
(3 3.5642e-14 0)
(3 3.92472e-14 0)
(3 9.49754e-16 0)
(3 6.2088e-15 0)
(3 4.6198e-14 0)
(3 3.85971e-14 0)
(3 8.51865e-14 0)
(3 1.11164e-13 0)
(3 1.35462e-13 0)
(3 8.70429e-14 0)
(3 5.84637e-14 0)
(3 -2.16947e-13 0)
(3.00001 -2.75918e-06 0)
(2.91221 0.223801 0)
(1.16954 0.611137 0)
(0.965119 0.574072 0)
(0.943075 0.581553 0)
(0.92337 0.595198 0)
(0.906213 0.605158 0)
(0.893088 0.617679 0)
(0.881906 0.630187 0)
(0.875089 0.645822 0)
(0.870169 0.662291 0)
(0.868282 0.680929 0)
(0.868037 0.6997 0)
(0.871784 0.721132 0)
(0.883041 0.747563 0)
(0.904572 0.778864 0)
(0.937804 0.814783 0)
(0.986427 0.85399 0)
(1.05367 0.895072 0)
(1.14398 0.93288 0)
(1.24697 0.956588 0)
(1.36585 0.965931 0)
(3 9.85517e-15 0)
(3 -3.08662e-15 0)
(3 -2.36784e-14 0)
(3 -1.02342e-14 0)
(3 1.59158e-14 0)
(3 -1.47577e-14 0)
(3 -5.66082e-14 0)
(3 -3.4748e-14 0)
(3 -3.02504e-15 0)
(3 -6.93023e-15 0)
(3 -4.22845e-14 0)
(3 -4.19587e-14 0)
(3 -7.27499e-14 0)
(3 -2.09252e-14 0)
(3 1.47622e-14 0)
(3 1.65178e-14 0)
(3 3.43518e-14 0)
(3 1.28825e-15 0)
(3 3.14867e-15 0)
(3 2.36459e-14 0)
(3 4.23216e-14 0)
(3 1.54838e-14 0)
(3 1.49258e-14 0)
(3 3.60741e-15 0)
(3 6.22384e-14 0)
(3 7.40324e-14 0)
(3 -5.88318e-07 0)
(3.05123 0.0100918 0)
(1.41036 0.570322 0)
(0.989969 0.62657 0)
(0.960759 0.620477 0)
(0.939114 0.625187 0)
(0.925612 0.62961 0)
(0.915783 0.639274 0)
(0.907155 0.649223 0)
(0.902365 0.662547 0)
(0.900303 0.67771 0)
(0.901848 0.695552 0)
(0.905992 0.714429 0)
(0.91291 0.734075 0)
(0.925207 0.75631 0)
(0.946372 0.782338 0)
(0.978893 0.811863 0)
(1.02517 0.843445 0)
(1.08765 0.877658 0)
(1.16941 0.907851 0)
(1.26193 0.927605 0)
(1.3681 0.936374 0)
(3 -4.58551e-15 0)
(3 1.53593e-14 0)
(3 1.71891e-14 0)
(3 2.30939e-14 0)
(3 3.47987e-14 0)
(3 4.51497e-14 0)
(3 7.09034e-14 0)
(3 5.75734e-14 0)
(3 2.06514e-14 0)
(3 -5.5577e-14 0)
(3 -7.14574e-14 0)
(3 -5.94405e-14 0)
(3 -7.59068e-14 0)
(3 -6.06257e-14 0)
(3 -1.43997e-14 0)
(3 -3.348e-15 0)
(3 -1.81258e-15 0)
(3 3.92164e-14 0)
(3 9.62078e-14 0)
(3 1.09639e-13 0)
(3 7.29569e-14 0)
(3 6.40477e-14 0)
(3 5.99149e-15 0)
(3 3.17021e-15 0)
(3 4.7531e-14 0)
(3 6.56585e-14 0)
(3 -5.2918e-08 0)
(3.00141 -5.93028e-06 0)
(1.89375 0.563429 0)
(1.00045 0.659996 0)
(0.963625 0.636366 0)
(0.957967 0.642225 0)
(0.949857 0.646208 0)
(0.941818 0.654777 0)
(0.93486 0.66402 0)
(0.93079 0.676236 0)
(0.930077 0.690515 0)
(0.933447 0.707573 0)
(0.940524 0.72649 0)
(0.95125 0.746075 0)
(0.965186 0.766375 0)
(0.987013 0.788911 0)
(1.01944 0.813279 0)
(1.06329 0.839027 0)
(1.12044 0.866044 0)
(1.19401 0.889495 0)
(1.27672 0.904852 0)
(1.37261 0.913189 0)
(3 -2.80469e-15 0)
(3 -5.31798e-15 0)
(3 5.06571e-15 0)
(3 1.34011e-14 0)
(3 -6.43694e-15 0)
(3 5.56354e-14 0)
(3 1.11361e-13 0)
(3 7.95134e-14 0)
(3 3.6541e-14 0)
(3 5.65129e-15 0)
(3 2.50273e-15 0)
(3 1.41718e-15 0)
(3 -4.48403e-17 0)
(3 -3.26764e-14 0)
(3 -6.57649e-14 0)
(3 -8.01494e-14 0)
(3 -7.55326e-14 0)
(3 -5.51909e-14 0)
(3 -1.47989e-14 0)
(3 -2.17955e-14 0)
(3 -1.87483e-14 0)
(3 7.10016e-15 0)
(3 3.30664e-16 0)
(3 1.7509e-14 0)
(3 1.11778e-14 0)
(3 1.54155e-14 0)
(3 -5.07571e-10 0)
(3.00001 -2.26311e-06 0)
(2.77178 0.313904 0)
(1.15858 0.67353 0)
(1.00173 0.634812 0)
(0.991232 0.646678 0)
(0.981298 0.658112 0)
(0.971812 0.668692 0)
(0.964432 0.678217 0)
(0.960167 0.689754 0)
(0.95966 0.702669 0)
(0.963905 0.718273 0)
(0.971942 0.73574 0)
(0.985855 0.755069 0)
(1.00198 0.773491 0)
(1.02541 0.792392 0)
(1.05735 0.812607 0)
(1.09823 0.833183 0)
(1.15007 0.853436 0)
(1.21474 0.870862 0)
(1.2869 0.882348 0)
(1.3733 0.889455 0)
(3 -1.02476e-14 0)
(3 -1.67884e-14 0)
(3 -4.41892e-15 0)
(3 -1.68078e-15 0)
(3 -5.29334e-15 0)
(3 -8.57026e-15 0)
(3 -5.29376e-14 0)
(3 -7.17445e-14 0)
(3 -8.84345e-14 0)
(3 -2.67194e-14 0)
(3 1.97951e-14 0)
(3 -2.86562e-14 0)
(3 -6.80133e-14 0)
(3 -6.55001e-14 0)
(3 -4.05756e-14 0)
(3 -4.09449e-14 0)
(3 1.99261e-14 0)
(3 -1.80385e-14 0)
(3 -8.15261e-14 0)
(3 -9.08484e-14 0)
(3 -8.31719e-14 0)
(3 -4.80691e-14 0)
(3 1.12381e-14 0)
(3 8.41282e-14 0)
(3 2.84971e-14 0)
(3 3.73127e-15 0)
(3 -9.29627e-13 0)
(3 -6.19967e-07 0)
(3.06717 0.0210444 0)
(1.44893 0.638895 0)
(1.04502 0.682597 0)
(1.01065 0.678187 0)
(0.997814 0.682633 0)
(0.989682 0.689888 0)
(0.985439 0.696396 0)
(0.984355 0.705916 0)
(0.986242 0.716314 0)
(0.992081 0.729694 0)
(1.00124 0.744788 0)
(1.01625 0.762568 0)
(1.03519 0.78044 0)
(1.06052 0.7982 0)
(1.09243 0.816017 0)
(1.1311 0.832836 0)
(1.17957 0.848664 0)
(1.23692 0.86153 0)
(1.3016 0.869719 0)
(1.37884 0.875128 0)
(3 -1.22897e-14 0)
(3 -2.99178e-14 0)
(3 -1.52043e-14 0)
(3 -2.20676e-15 0)
(3 4.82596e-14 0)
(3 2.87187e-14 0)
(3 -5.57881e-14 0)
(3 -7.16901e-14 0)
(3 -6.40327e-14 0)
(3 -6.36351e-14 0)
(3 -8.26731e-14 0)
(3 -4.96163e-14 0)
(3 -5.24734e-14 0)
(3 -4.25906e-14 0)
(3 6.94226e-16 0)
(3 1.6473e-14 0)
(3 4.14144e-14 0)
(3 5.20204e-14 0)
(3 -1.44814e-15 0)
(3 -1.73412e-14 0)
(3 -7.27579e-15 0)
(3 -6.77488e-15 0)
(3 1.36702e-14 0)
(3 1.45262e-14 0)
(3 3.79974e-14 0)
(3 4.42546e-14 0)
(3 4.96729e-14 0)
(3 -6.47758e-08 0)
(3.00299 5.92907e-05 0)
(2.02379 0.605919 0)
(1.07493 0.727685 0)
(1.03405 0.697172 0)
(1.0284 0.694912 0)
(1.01972 0.70126 0)
(1.01375 0.706781 0)
(1.01266 0.716086 0)
(1.01489 0.726091 0)
(1.02085 0.738669 0)
(1.03038 0.751521 0)
(1.04485 0.767491 0)
(1.06502 0.783048 0)
(1.09128 0.799161 0)
(1.12271 0.814588 0)
(1.15985 0.828481 0)
(1.2055 0.840944 0)
(1.25686 0.850501 0)
(1.31614 0.856337 0)
(1.38407 0.859758 0)
(3 1.97018e-14 0)
(3 -1.80417e-15 0)
(3 -7.42597e-15 0)
(3 1.85974e-14 0)
(3 -3.27687e-14 0)
(3 -9.8964e-15 0)
(3 -1.77621e-14 0)
(3 -1.34401e-14 0)
(3 1.16034e-14 0)
(3 1.07203e-14 0)
(3 5.26105e-15 0)
(3 2.06909e-14 0)
(3 2.79785e-14 0)
(3 -7.2978e-15 0)
(3 -5.73152e-14 0)
(3 -9.15719e-14 0)
(3 -5.52398e-14 0)
(3 -1.18189e-14 0)
(3 -1.90901e-14 0)
(3 -7.23369e-15 0)
(3 1.29832e-14 0)
(3 1.97249e-14 0)
(3 1.08893e-14 0)
(3 -2.96978e-15 0)
(3 8.33723e-15 0)
(3 3.32015e-14 0)