/*--------------------------------*- C++ -*----------------------------------*\
  =========                 |
  \\      /  F ield         | OpenFOAM: The Open Source CFD Toolbox
   \\    /   O peration     | Website:  https://openfoam.org
    \\  /    A nd           | Version:  10
     \\/     M anipulation  |
\*---------------------------------------------------------------------------*/
FoamFile
{
    format      ascii;
    class       volScalarField;
    location    "25";
    object      p;
}
// * * * * * * * * * * * * * * * * * * * * * * * * * * * * * * * * * * * * * //

dimensions      [0 2 -2 0 0 0 0];

internalField   nonuniform List<scalar> 
8800
(
0.432829
0.385041
0.346349
0.31735
0.296477
0.28163
0.271008
0.26349
0.258612
0.256461
0.257599
0.261662
0.2682
0.277431
0.29015
0.307841
0.332588
0.366506
0.409036
0.467735
0.264087
0.271765
0.279233
0.28254
0.281032
0.275946
0.269445
0.263342
0.258572
0.255645
0.255245
0.257612
0.261976
0.267819
0.27451
0.280731
0.28433
0.28357
0.278119
0.269412
0.242504
0.248666
0.252794
0.255736
0.25778
0.258373
0.257246
0.255103
0.253017
0.251999
0.252815
0.255055
0.257731
0.259809
0.260336
0.259075
0.256683
0.253254
0.248677
0.244911
0.236725
0.239377
0.242136
0.244547
0.246184
0.247338
0.248057
0.248133
0.247766
0.247592
0.248183
0.249189
0.249882
0.249825
0.249114
0.24794
0.246055
0.243429
0.240994
0.239489
0.231389
0.232816
0.23461
0.236657
0.238452
0.239795
0.240766
0.241519
0.24205
0.242476
0.242937
0.243239
0.243164
0.242724
0.241895
0.240533
0.238743
0.236819
0.235472
0.234642
0.226382
0.227303
0.228573
0.230177
0.231842
0.233385
0.234666
0.235693
0.236569
0.237307
0.237768
0.237854
0.237592
0.236952
0.235892
0.234532
0.233068
0.231698
0.230825
0.230281
0.221579
0.222248
0.223251
0.224611
0.226077
0.227582
0.229047
0.230352
0.231454
0.232368
0.232921
0.233001
0.232626
0.231838
0.230781
0.229615
0.228414
0.227348
0.226704
0.22631
0.216955
0.217463
0.218301
0.219522
0.220883
0.222321
0.223807
0.225281
0.226631
0.227756
0.228432
0.228518
0.228105
0.227365
0.226447
0.225438
0.224411
0.223538
0.223039
0.222742
0.212484
0.212878
0.213601
0.214732
0.216053
0.217455
0.218925
0.220444
0.221941
0.22328
0.224129
0.22434
0.224071
0.223495
0.222735
0.221854
0.220952
0.220222
0.219829
0.219602
0.208131
0.208434
0.209071
0.210141
0.211428
0.212823
0.214318
0.215898
0.217528
0.219094
0.220173
0.220595
0.220534
0.220142
0.219528
0.21879
0.218011
0.217398
0.217091
0.216918
0.203876
0.204106
0.204686
0.205742
0.207041
0.208483
0.210082
0.211801
0.213593
0.215375
0.216785
0.217525
0.217691
0.217444
0.216956
0.216333
0.21564
0.215115
0.214878
0.214749
0.199721
0.199878
0.200403
0.201439
0.202741
0.20418
0.205782
0.207601
0.20964
0.211791
0.21356
0.214605
0.21507
0.215141
0.214913
0.214455
0.213888
0.213461
0.213295
0.213209
0.195756
0.195855
0.196311
0.197274
0.198531
0.199989
0.201681
0.203641
0.205884
0.20839
0.210662
0.212224
0.213108
0.21348
0.213518
0.213299
0.212944
0.212666
0.212572
0.212518
0.191839
0.191896
0.192277
0.193143
0.194344
0.195813
0.197601
0.199796
0.202443
0.205498
0.208353
0.210398
0.211693
0.21246
0.212819
0.212919
0.212841
0.212754
0.212732
0.212692
0.187577
0.187623
0.187931
0.188693
0.189839
0.191324
0.193233
0.195655
0.198694
0.202363
0.20597
0.208738
0.210663
0.211912
0.212721
0.213193
0.213425
0.213543
0.213579
0.213539
0.182587
0.182636
0.182942
0.18369
0.184879
0.186506
0.188675
0.191538
0.195206
0.199709
0.204217
0.207757
0.210276
0.212049
0.213279
0.214088
0.214604
0.214879
0.21495
0.214903
0.176597
0.176647
0.17701
0.177804
0.179118
0.180975
0.183511
0.18691
0.191355
0.19691
0.202554
0.207057
0.210351
0.212711
0.21439
0.215571
0.216356
0.216751
0.216845
0.216789
0.169323
0.169376
0.169812
0.170774
0.172335
0.174577
0.177675
0.181875
0.187377
0.194257
0.201273
0.206902
0.211057
0.214068
0.216216
0.217748
0.218764
0.219256
0.219379
0.219318
0.160529
0.160578
0.161116
0.162333
0.164305
0.167114
0.17099
0.176231
0.183087
0.191637
0.20034
0.207327
0.212465
0.216167
0.218919
0.220875
0.22209
0.222672
0.222831
0.222765
0.149964
0.150004
0.15066
0.15222
0.154754
0.15834
0.163264
0.16987
0.178442
0.189063
0.199817
0.208436
0.214797
0.219418
0.222788
0.225113
0.226582
0.22729
0.227496
0.227421
0.137258
0.137297
0.138121
0.140093
0.143354
0.147973
0.154261
0.162631
0.173386
0.186572
0.199807
0.210371
0.218167
0.223843
0.227943
0.230767
0.232538
0.233416
0.233671
0.233583
0.121718
0.121767
0.12282
0.12534
0.129584
0.135564
0.143658
0.154336
0.167869
0.184208
0.200407
0.213257
0.222745
0.229659
0.234623
0.238059
0.240226
0.241314
0.241618
0.241507
0.102184
0.102261
0.103685
0.107064
0.112625
0.120509
0.131094
0.144829
0.161895
0.182086
0.201785
0.217282
0.228701
0.237028
0.243018
0.247185
0.249835
0.251157
0.25151
0.251372
0.0768735
0.0770128
0.0790748
0.0838588
0.0915331
0.102176
0.11625
0.134057
0.155578
0.180386
0.204119
0.222601
0.236189
0.24612
0.253304
0.258353
0.261585
0.263172
0.26357
0.263395
0.0427439
0.0430542
0.0464367
0.053827
0.0650675
0.0800168
0.0990502
0.122203
0.14919
0.179368
0.207612
0.229361
0.245319
0.257035
0.265595
0.271685
0.275602
0.277484
0.277916
0.277693
-0.00607894
-0.00482119
0.00204334
0.0148717
0.0323585
0.0539686
0.079843
0.109739
0.143171
0.17935
0.212438
0.23763
0.25609
0.269736
0.279847
0.287178
0.291931
0.294163
0.294612
0.294321
-0.0787376
-0.070725
-0.0548743
-0.0321416
-0.0052251
0.025332
0.0595854
0.0972795
0.137905
0.180676
0.219085
0.248137
0.269501
0.285486
0.297606
0.306653
0.312698
0.315654
0.316327
0.316141
-0.156666
-0.138361
-0.112797
-0.0797272
-0.0431026
-0.00344405
0.0393195
0.0850375
0.133318
0.183494
0.228332
0.262377
0.287666
0.306882
0.321783
0.333321
0.34118
0.345271
0.346558
0.346563
-0.220286
-0.199164
-0.165704
-0.124156
-0.0789617
-0.0308139
0.0201216
0.0736319
0.129315
0.186549
0.237379
0.275918
0.304639
0.326601
0.343688
0.356837
0.366261
0.371255
0.372237
0.372371
-0.272095
-0.249072
-0.210539
-0.162969
-0.111062
-0.0558712
0.00219331
0.062766
0.125311
0.189094
0.245356
0.287805
0.319323
0.343329
0.361968
0.376327
0.386786
0.392104
0.393278
0.393518
-0.314937
-0.290928
-0.248838
-0.196555
-0.139307
-0.0783586
-0.0142423
0.0525107
0.121202
0.190922
0.252032
0.297798
0.331546
0.357109
0.37686
0.392077
0.402843
0.408631
0.410188
0.410458
-0.351519
-0.326922
-0.282185
-0.22621
-0.164524
-0.0987123
-0.0293813
0.0428059
0.116993
0.192068
0.257515
0.306152
0.341699
0.368389
0.388834
0.404473
0.41546
0.421505
0.423266
0.42352
-0.383776
-0.358817
-0.312028
-0.252948
-0.187559
-0.117545
-0.0436325
0.0334062
0.112583
0.192575
0.262022
0.313245
0.350327
0.377874
0.39872
0.414507
0.425539
0.431621
0.433494
0.433708
-0.413147
-0.38786
-0.339403
-0.277676
-0.209089
-0.1354
-0.0574108
0.0240277
0.107809
0.192434
0.265681
0.319387
0.357918
0.386213
0.407397
0.423244
0.434299
0.440422
0.442385
0.442572
-0.44049
-0.414907
-0.365006
-0.301009
-0.229616
-0.152675
-0.0710273
0.0144264
0.102507
0.191559
0.268562
0.324735
0.364724
0.393824
0.415394
0.43139
0.442431
0.448444
0.450493
0.450727
-0.466512
-0.440574
-0.389293
-0.323385
-0.24947
-0.169641
-0.0847032
0.00442983
0.0965373
0.189865
0.270621
0.329397
0.371006
0.401051
0.423099
0.439288
0.450371
0.456288
0.45829
0.458527
-0.491503
-0.465184
-0.412808
-0.345052
-0.268912
-0.186497
-0.098585
-0.00607825
0.0898033
0.187286
0.271894
0.333501
0.376941
0.408089
0.430767
0.447266
0.458438
0.464297
0.466165
0.466336
-0.515802
-0.489
-0.435641
-0.366213
-0.28809
-0.203355
-0.112755
-0.0171643
0.0822538
0.183796
0.27237
0.337011
0.382537
0.415022
0.438499
0.455427
0.466738
0.472547
0.474251
0.474333
-0.539473
-0.512234
-0.457903
-0.386976
-0.307079
-0.220269
-0.127254
-0.0288466
0.0738711
0.179332
0.271918
0.339863
0.387785
0.421865
0.446324
0.463789
0.475265
0.480994
0.482562
0.482519
-0.562595
-0.534874
-0.479669
-0.407388
-0.325902
-0.237246
-0.142072
-0.0411266
0.0646231
0.173803
0.270443
0.341963
0.392631
0.428599
0.454234
0.472329
0.483966
0.489557
0.49095
0.4908
-0.585259
-0.557007
-0.50093
-0.427446
-0.344554
-0.254255
-0.157174
-0.0539743
0.0545136
0.167187
0.267858
0.343165
0.396947
0.435174
0.462222
0.481025
0.49279
0.498139
0.499309
0.499075
-0.607468
-0.578622
-0.521703
-0.447122
-0.362979
-0.271251
-0.172502
-0.0673305
0.0435979
0.159481
0.26406
0.343305
0.400568
0.441509
0.470297
0.489875
0.501634
0.506619
0.507521
0.507212
-0.629051
-0.599654
-0.541944
-0.466379
-0.38113
-0.288158
-0.187979
-0.0810994
0.0319552
0.150709
0.258968
0.342206
0.403272
0.447471
0.478512
0.499007
0.510495
0.514829
0.515386
0.515017
-0.649967
-0.620051
-0.561609
-0.485158
-0.398946
-0.304904
-0.203503
-0.0951906
0.0196707
0.140914
0.252544
0.339696
0.404786
0.452813
0.486896
0.508765
0.519643
0.522706
0.522706
0.522317
-0.670284
-0.639773
-0.580662
-0.503416
-0.416356
-0.321405
-0.218984
-0.109496
0.00685005
0.130186
0.24477
0.335638
0.404798
0.457115
0.495286
0.519685
0.530055
0.530755
0.529377
0.529079
-0.689828
-0.658802
-0.599048
-0.521085
-0.433299
-0.337577
-0.234326
-0.1239
-0.00637526
0.118646
0.235683
0.329923
0.403
0.459735
0.503034
0.531967
0.543639
0.541661
0.536901
0.53558
-0.708686
-0.677129
-0.616788
-0.538194
-0.44981
-0.353469
-0.249585
-0.138462
-0.0200741
0.106221
0.225162
0.322301
0.399082
0.459855
0.508778
0.544584
0.561562
0.561481
0.551071
0.532426
-0.726794
-0.694755
-0.634004
-0.554928
-0.466175
-0.369409
-0.265175
-0.153666
-0.034798
0.0922467
0.212508
0.31189
0.392302
0.456244
0.509574
0.552956
0.575911
0.570405
0.555802
0.534749
-0.74399
-0.71183
-0.650519
-0.571042
-0.482105
-0.385054
-0.280869
-0.169182
-0.0502176
0.0770352
0.197913
0.29844
0.382202
0.448194
0.500269
0.544782
0.568741
0.554723
0.483172
0.447151
-0.759644
-0.729465
-0.665989
-0.585957
-0.496896
-0.399929
-0.296379
-0.184787
-0.0661122
0.0607353
0.181396
0.281839
0.367879
0.436067
0.478206
0.51077
0.51912
0.471171
0.397433
0.350893
-0.81466
-0.744709
-0.680112
-0.600956
-0.511959
-0.415405
-0.311765
-0.200739
-0.0828125
0.0429578
0.162474
0.26176
0.346464
0.421543
0.425181
0.440947
0.40974
0.345366
0.265906
0.220973
-0.775586
-0.759957
-0.70054
-0.622263
-0.533745
-0.437584
-0.335048
-0.225043
-0.10867
0.0147626
0.130953
0.226866
0.302974
0.375931
0.376653
0.268438
0.160874
0.0872057
0.0109485
0.0489165
-0.80574
-0.777038
-0.717019
-0.638977
-0.550718
-0.454935
-0.352321
-0.243164
-0.128176
-0.00704152
0.105651
0.197082
0.265468
0.304431
0.258087
0.108626
-0.0267227
-0.122503
-0.227452
-0.168366
-0.828869
-0.797105
-0.736092
-0.657704
-0.569497
-0.473899
-0.371534
-0.26341
-0.150109
-0.0317836
0.0767078
0.162301
0.220957
0.229388
0.121303
-0.0654567
-0.231604
-0.360425
-0.503757
-0.458957
-0.851289
-0.818009
-0.755938
-0.67677
-0.588437
-0.493015
-0.391278
-0.284304
-0.172862
-0.0576653
0.0458819
0.125004
0.169565
0.142316
-0.0227183
-0.238587
-0.450172
-0.642215
-0.853478
-0.85136
-0.872833
-0.839323
-0.776452
-0.69661
-0.608121
-0.512932
-0.411924
-0.306196
-0.196837
-0.0850897
0.0129841
0.0849187
0.11204
0.0499386
-0.16081
-0.395013
-0.640787
-0.86341
-1.14111
-1.48292
-0.894531
-0.861167
-0.797875
-0.717597
-0.628944
-0.533941
-0.433584
-0.329114
-0.221908
-0.113782
-0.02134
0.0425273
0.0522896
-0.0610425
-0.281276
-0.516413
-0.752889
-0.955313
-1.034
-1.14946
-0.917151
-0.883962
-0.820492
-0.740037
-0.651339
-0.556604
-0.456981
-0.353922
-0.249162
-0.145115
-0.058762
-0.00444244
-0.0191994
-0.175856
-0.387462
-0.603339
-0.792597
-0.903487
-0.927815
-0.949487
-0.941031
-0.907987
-0.844436
-0.763969
-0.675387
-0.581067
-0.482391
-0.38102
-0.2791
-0.179737
-0.0999067
-0.057095
-0.0959898
-0.28078
-0.483296
-0.673774
-0.820516
-0.872842
-0.887943
-0.890636
-0.966363
-0.933303
-0.869741
-0.789336
-0.700987
-0.607274
-0.50976
-0.410372
-0.311701
-0.217597
-0.144817
-0.11622
-0.173457
-0.379238
-0.572195
-0.742976
-0.850877
-0.862745
-0.865591
-0.86567
-0.993098
-0.959932
-0.896389
-0.816076
-0.728088
-0.635138
-0.539
-0.441889
-0.346857
-0.258521
-0.193642
-0.17666
-0.265964
-0.470603
-0.653488
-0.79792
-0.842001
-0.852264
-0.85378
-0.853
-1.02093
-0.987606
-0.924217
-0.844045
-0.756531
-0.664511
-0.569966
-0.475416
-0.384405
-0.302275
-0.245771
-0.242001
-0.368864
-0.558016
-0.721957
-0.834018
-0.840641
-0.844015
-0.846218
-0.846102
-1.04927
-1.01602
-0.952856
-0.872968
-0.786048
-0.695128
-0.602374
-0.510657
-0.423983
-0.348532
-0.30018
-0.317461
-0.467354
-0.643102
-0.784029
-0.825781
-0.847051
-0.845411
-0.843913
-0.843584
-1.07771
-1.04471
-0.981794
-0.902403
-0.816217
-0.726553
-0.635789
-0.54712
-0.465045
-0.396596
-0.356351
-0.389837
-0.567651
-0.731345
-0.830827
-0.859902
-0.856379
-0.85079
-0.847155
-0.845411
-1.10532
-1.0729
-1.01048
-0.931696
-0.846421
-0.758183
-0.669582
-0.584086
-0.506803
-0.445366
-0.414509
-0.46436
-0.668579
-0.840048
-0.894191
-0.889475
-0.889374
-0.884894
-0.880619
-0.877623
-1.13093
-1.09909
-1.03804
-0.960019
-0.875845
-0.789192
-0.702872
-0.620593
-0.548093
-0.493617
-0.4725
-0.537435
-0.763001
-1.00204
-1.06504
-1.007
-0.998114
-0.988816
-0.981645
-0.976342
-1.15318
-1.12256
-1.06303
-0.986334
-0.903474
-0.818538
-0.734525
-0.655423
-0.587286
-0.539836
-0.526095
-0.607958
-0.837871
-1.15588
-1.61876
-1.38427
-1.22869
-1.19211
-1.16999
-1.15603
-1.17045
-1.14164
-1.08419
-1.00924
-0.928081
-0.845007
-0.763185
-0.686983
-0.622534
-0.581463
-0.57355
-0.661725
-0.854757
-0.966096
-1.11355
-1.1581
-1.24509
-1.26766
-1.26362
-1.26297
-1.18115
-1.15484
-1.10019
-1.0274
-0.948227
-0.867135
-0.787372
-0.713336
-0.651967
-0.614446
-0.615368
-0.701071
-0.805135
-0.539799
-0.0614661
-0.580917
-1.10159
-1.2599
-1.27166
-1.27597
-1.18342
-1.16062
-1.10953
-1.03948
-0.962533
-0.883469
-0.805427
-0.732617
-0.672503
-0.636532
-0.646337
-0.775798
-1.06045
-1.3441
-1.67059
-2.1179
-2.1055
-1.76688
-1.53138
-1.52439
-1.17632
-1.15743
-1.11086
-1.04437
-0.969909
-0.892765
-0.815834
-0.743062
-0.680971
-0.643699
-0.656424
-0.866268
-1.52599
-2.63405
-3.46587
-3.88798
-3.75488
-3.30591
-2.82372
-2.58512
-1.15844
-1.14331
-1.10323
-1.04144
-0.969777
-0.894307
-0.817608
-0.743162
-0.676083
-0.626931
-0.628703
-0.802726
-1.41332
-2.21252
-3.01023
-3.28854
-3.08129
-2.67239
-2.30917
-2.14476
-1.13092
-1.12016
-1.08691
-1.031
-0.962386
-0.888232
-0.810929
-0.732546
-0.65739
-0.58755
-0.54413
-0.507197
-0.626637
-0.620372
-0.47545
-0.223184
0.113007
0.397901
0.577473
0.651834
-1.09681
-1.09014
-1.06447
-1.01492
-0.949314
-0.87609
-0.797197
-0.714375
-0.626493
-0.535491
-0.425498
-0.296959
-0.0166499
0.513626
1.14638
1.75383
2.18772
2.43202
2.53808
2.56685
-1.06019
-1.05641
-1.03941
-0.996222
-0.933445
-0.860496
-0.780132
-0.692556
-0.597282
-0.489186
-0.368724
-0.232692
0.0214703
0.616321
1.28783
1.87446
2.28765
2.51919
2.62139
2.65142
-1.02609
-1.02373
-1.01418
-0.978921
-0.918661
-0.844844
-0.762962
-0.673865
-0.577517
-0.467416
-0.358585
-0.247589
-0.105647
0.309925
0.815577
1.23644
1.5392
1.71329
1.79359
1.81845
-0.996094
-0.995552
-0.992111
-0.964046
-0.904577
-0.829024
-0.747115
-0.660377
-0.567354
-0.465981
-0.370969
-0.286032
-0.210996
0.0466392
0.411021
0.707201
0.926066
1.05936
1.12642
1.14642
-0.969405
-0.971405
-0.970523
-0.943961
-0.882834
-0.806872
-0.727913
-0.64682
-0.561462
-0.470273
-0.387994
-0.329231
-0.284413
-0.124277
0.121694
0.329399
0.480748
0.569655
0.610459
0.620093
-0.90717
-0.91105
-0.91068
-0.887716
-0.834162
-0.768068
-0.699312
-0.62888
-0.554255
-0.473952
-0.400708
-0.35214
-0.31661
-0.214535
-0.0494217
0.0840897
0.178605
0.233598
0.258583
0.264384
-0.799722
-0.801672
-0.800756
-0.786329
-0.753422
-0.709167
-0.659469
-0.60485
-0.543822
-0.474867
-0.409812
-0.36229
-0.322862
-0.251869
-0.144171
-0.0631193
-0.00793677
0.0242802
0.0369021
0.037813
-0.688791
-0.689139
-0.688505
-0.682946
-0.669415
-0.647462
-0.617452
-0.579411
-0.532209
-0.474511
-0.414521
-0.362679
-0.315715
-0.268165
-0.211598
-0.160844
-0.125436
-0.104452
-0.0947716
-0.0947416
-0.6133
-0.61306
-0.61321
-0.613196
-0.609533
-0.600346
-0.583936
-0.558328
-0.522307
-0.474062
-0.422215
-0.372099
-0.327583
-0.292541
-0.260915
-0.228748
-0.203055
-0.185103
-0.177186
-0.178178
-0.575468
-0.575223
-0.575515
-0.576654
-0.576254
-0.572115
-0.562387
-0.544248
-0.515684
-0.47592
-0.432836
-0.397511
-0.366372
-0.343579
-0.322432
-0.291945
-0.265691
-0.248775
-0.241754
-0.243285
-0.564521
-0.564117
-0.56393
-0.564486
-0.564253
-0.56138
-0.554098
-0.539731
-0.515209
-0.479258
-0.442786
-0.423926
-0.429719
-0.427899
-0.392626
-0.35581
-0.326263
-0.308977
-0.302659
-0.304012
-0.573979
-0.573288
-0.572523
-0.572153
-0.57108
-0.56762
-0.560512
-0.547149
-0.523213
-0.48607
-0.448137
-0.433292
-0.45161
-0.460799
-0.425584
-0.387948
-0.362225
-0.349094
-0.344174
-0.345522
-0.601776
-0.600796
-0.599698
-0.598712
-0.596774
-0.592754
-0.585482
-0.572513
-0.547681
-0.505197
-0.455741
-0.421874
-0.423955
-0.428125
-0.40798
-0.384599
-0.371607
-0.364735
-0.3636
-0.363449
-0.646005
-0.645112
-0.643992
-0.642898
-0.641251
-0.638465
-0.633804
-0.624798
-0.60388
-0.55977
-0.491809
-0.420687
-0.390866
-0.393951
-0.381885
-0.361914
-0.344114
-0.333433
-0.329327
-0.330894
-0.703846
-0.703129
-0.702628
-0.702596
-0.7034
-0.705762
-0.710349
-0.71636
-0.718114
-0.694866
-0.610285
-0.492352
-0.426632
-0.412605
-0.389522
-0.354266
-0.316197
-0.291022
-0.289272
-0.291895
-0.769143
-0.769086
-0.770021
-0.772728
-0.779186
-0.792508
-0.817086
-0.858903
-0.920359
-0.962019
-0.863595
-0.680024
-0.56233
-0.516253
-0.457103
-0.38076
-0.317794
-0.286215
-0.284518
-0.28561
-0.830454
-0.831538
-0.834781
-0.841968
-0.857346
-0.887536
-0.944025
-1.04693
-1.21376
-1.37549
-1.26627
-0.982174
-0.795585
-0.697431
-0.576293
-0.446142
-0.345456
-0.305927
-0.31331
-0.318178
-0.870854
-0.873308
-0.879153
-0.891507
-0.917049
-0.966526
-1.06048
-1.23838
-1.53911
-1.85198
-1.75447
-1.33757
-1.06914
-0.915541
-0.747471
-0.591559
-0.492996
-0.46661
-0.469161
-0.475433
-0.872054
-0.87573
-0.88317
-0.899036
-0.932451
-0.996531
-1.11902
-1.3541
-1.76093
-2.19104
-2.1614
-1.63349
-1.32144
-1.14091
-0.96705
-0.837581
-0.772046
-0.75689
-0.752418
-0.754715
-0.821246
-0.825009
-0.833137
-0.850268
-0.885323
-0.952748
-1.08174
-1.33011
-1.75754
-2.20657
-2.19669
-1.74161
-1.45256
-1.29209
-1.18021
-1.1203
-1.07727
-1.05471
-1.04265
-1.04023
-0.720335
-0.723385
-0.730192
-0.744791
-0.775068
-0.833602
-0.945984
-1.16264
-1.52917
-1.87836
-1.85636
-1.57246
-1.40666
-1.33238
-1.32958
-1.31736
-1.27363
-1.2425
-1.22432
-1.2181
-0.584351
-0.586343
-0.590676
-0.600525
-0.621742
-0.663447
-0.744074
-0.900653
-1.17133
-1.41872
-1.4004
-1.27744
-1.21569
-1.21297
-1.31157
-1.33202
-1.28242
-1.24281
-1.22417
-1.21683
-0.437158
-0.437816
-0.439447
-0.444104
-0.455375
-0.478596
-0.524478
-0.615566
-0.785469
-0.967714
-0.989991
-0.947814
-0.890617
-0.94166
-1.07558
-1.10749
-1.07843
-1.05624
-1.04394
-1.03811
-0.300362
-0.299991
-0.299637
-0.300247
-0.303545
-0.311694
-0.329043
-0.365256
-0.440793
-0.549041
-0.569047
-0.540528
-0.523046
-0.607917
-0.733958
-0.769608
-0.767473
-0.763645
-0.761579
-0.759763
-0.188388
-0.187487
-0.186122
-0.184561
-0.183204
-0.182163
-0.181822
-0.183092
-0.18758
-0.200622
-0.204167
-0.211407
-0.260168
-0.362816
-0.443444
-0.472877
-0.481268
-0.486215
-0.489548
-0.490187
-0.106336
-0.10534
-0.103823
-0.101772
-0.0988597
-0.0943012
-0.0870088
-0.075068
-0.0552403
-0.0239432
-0.00749718
-0.0388031
-0.126302
-0.200033
-0.245257
-0.263686
-0.274044
-0.280341
-0.284642
-0.285984
-0.052035
-0.051212
-0.0500261
-0.0484756
-0.0459853
-0.0415945
-0.0341895
-0.0220922
-0.00325859
0.0212429
0.0300343
0.000397273
-0.0539535
-0.0976158
-0.124014
-0.136407
-0.142972
-0.147162
-0.150229
-0.151307
-0.0194541
-0.0188873
-0.0181792
-0.0174844
-0.016175
-0.0135251
-0.00891421
-0.00152725
0.00928389
0.021559
0.0238519
0.00724397
-0.0189732
-0.0403363
-0.0533443
-0.0595953
-0.0623551
-0.0642103
-0.0658223
-0.0664539
-0.00183747
-0.00172799
-0.00130385
-0.000764511
-0.000247159
0.000152379
0.000671048
0.00154283
0.00291085
0.00478849
0.00603835
0.00398225
-0.000446312
-0.00483752
-0.00765219
-0.00914582
-0.0095136
-0.00955516
-0.00983436
-0.0102372
-0.595454
-0.399685
-0.172892
0.0183767
0.17282
0.296533
0.400269
0.487794
0.527057
0.504382
-0.239934
-0.101646
0.0449059
0.171726
0.279236
0.368926
0.441685
0.493407
0.519898
0.531536
0.00953929
0.103144
0.202224
0.290219
0.366144
0.429785
0.480342
0.517246
0.543505
0.560998
0.188436
0.253447
0.322859
0.3863
0.441415
0.488135
0.526339
0.556593
0.580909
0.598897
0.325306
0.372604
0.422908
0.47081
0.513003
0.549675
0.580883
0.606639
0.627971
0.645624
0.436712
0.472187
0.513042
0.55121
0.586066
0.617137
0.644141
0.666685
0.685163
0.702426
0.533643
0.563854
0.599733
0.633458
0.664796
0.693131
0.717798
0.738195
0.754133
0.77119
0.624971
0.655123
0.690297
0.72333
0.753798
0.781126
0.804588
0.823517
0.837195
0.854243
0.722
0.7557
0.79308
0.827298
0.857898
0.884558
0.906895
0.92446
0.936548
0.953975
0.83814
0.876077
0.915211
0.949905
0.979596
1.00463
1.02524
1.04132
1.05294
1.07104
0.983821
1.02261
1.0588
1.08971
1.11559
1.13786
1.15706
1.1727
1.18522
1.20325
1.15895
1.19092
1.21724
1.23977
1.25987
1.27869
1.29649
1.31303
1.32844
1.34653
1.34779
1.36512
1.38032
1.39664
1.41261
1.4272
1.44046
1.45443
1.47201
1.49218
1.52988
1.53931
1.55089
1.56173
1.57105
1.58068
1.59154
1.60294
1.61433
1.62969
1.73702
1.74072
1.7258
1.71101
1.70478
1.7105
1.72899
1.75933
1.79152
1.81819
2.04337
1.90851
1.83191
1.78961
1.77221
1.77618
1.8036
1.86002
1.96265
2.18702
0.323426
0.321296
0.31681
0.308181
0.295951
0.283813
0.273568
0.265644
0.259974
0.256634
0.256153
0.258747
0.263724
0.270844
0.280153
0.291634
0.304241
0.315246
0.321345
0.324386
0.247886
0.253731
0.260071
0.264562
0.267027
0.266694
0.263942
0.260103
0.256539
0.254189
0.253908
0.255951
0.259477
0.263655
0.267375
0.269191
0.268205
0.264683
0.259487
0.252853
0.239489
0.241785
0.24519
0.248189
0.250264
0.251756
0.252495
0.252148
0.251066
0.250081
0.250106
0.25137
0.253033
0.254209
0.254284
0.25331
0.251693
0.249302
0.246003
0.243068
0.23401
0.235095
0.236935
0.239324
0.241355
0.242785
0.243794
0.244511
0.244848
0.244962
0.245287
0.245898
0.246317
0.246229
0.245687
0.24473
0.243171
0.241012
0.238871
0.237471
0.228852
0.229512
0.230634
0.232366
0.234174
0.235824
0.237122
0.238107
0.238919
0.239586
0.240121
0.24044
0.240416
0.24006
0.239323
0.238118
0.236561
0.234907
0.233514
0.232717
0.223961
0.224417
0.225221
0.226559
0.22809
0.229644
0.23113
0.232416
0.233486
0.234404
0.235091
0.235376
0.235248
0.234719
0.233793
0.232601
0.2313
0.230022
0.229013
0.228478
0.219241
0.219575
0.22021
0.221348
0.222721
0.224162
0.225651
0.227115
0.228443
0.229571
0.230407
0.23076
0.230582
0.22996
0.229049
0.227999
0.226904
0.225832
0.225037
0.224644
0.214707
0.214959
0.215477
0.216474
0.21775
0.21913
0.220577
0.22207
0.223548
0.224897
0.225923
0.226371
0.22624
0.225713
0.224948
0.22405
0.223095
0.222194
0.22156
0.221261
0.210293
0.210481
0.210915
0.211828
0.213056
0.214411
0.215841
0.217352
0.218927
0.220473
0.221724
0.222338
0.222369
0.222019
0.221425
0.220674
0.219835
0.219055
0.218535
0.218308
0.205998
0.206135
0.206502
0.20735
0.208547
0.209897
0.21138
0.212972
0.21463
0.216316
0.217813
0.218741
0.219056
0.21891
0.218451
0.217822
0.217116
0.216448
0.216029
0.215859
0.20178
0.20187
0.202184
0.203006
0.204225
0.20561
0.207134
0.208834
0.210715
0.212688
0.214515
0.215752
0.216292
0.216352
0.216091
0.215611
0.215002
0.214412
0.214074
0.213957
0.197717
0.197761
0.198021
0.19878
0.19995
0.201314
0.202837
0.204567
0.206549
0.208777
0.211009
0.212697
0.213676
0.214127
0.214184
0.213952
0.213541
0.213107
0.212872
0.212804
0.193809
0.193821
0.194034
0.194712
0.195818
0.19718
0.198782
0.200703
0.202978
0.205599
0.208341
0.210545
0.21194
0.212713
0.213042
0.213092
0.212931
0.2127
0.212583
0.212551
0.18978
0.189782
0.18995
0.190521
0.191518
0.192828
0.194451
0.196502
0.19905
0.202145
0.205524
0.208388
0.210374
0.211665
0.212426
0.212835
0.213035
0.213081
0.213103
0.213092
0.185187
0.185181
0.185343
0.185856
0.186813
0.188161
0.189925
0.192237
0.195207
0.19891
0.203088
0.206767
0.209401
0.211228
0.212462
0.213296
0.213795
0.214088
0.214215
0.214214
0.179739
0.179728
0.179911
0.180443
0.181449
0.18292
0.184919
0.187619
0.191178
0.195703
0.20088
0.205511
0.208925
0.211369
0.213098
0.214305
0.21513
0.215637
0.215837
0.215841
0.173136
0.173118
0.173335
0.173969
0.175108
0.176802
0.179178
0.18243
0.186769
0.19233
0.198759
0.204577
0.208904
0.212057
0.214316
0.215944
0.217093
0.217775
0.218028
0.218038
0.165119
0.165088
0.165353
0.166144
0.167551
0.16964
0.172578
0.176628
0.182022
0.188937
0.196916
0.204135
0.20954
0.2135
0.216309
0.218337
0.21982
0.220662
0.220974
0.220998
0.155473
0.155424
0.155749
0.15675
0.158543
0.161186
0.164903
0.169992
0.176741
0.185352
0.19525
0.204191
0.21087
0.215742
0.219302
0.22189
0.223625
0.224614
0.224998
0.225035
0.143875
0.143802
0.144206
0.145461
0.147774
0.151174
0.155939
0.162393
0.170891
0.18163
0.193873
0.204869
0.213095
0.219112
0.223462
0.226596
0.228686
0.229887
0.230374
0.230427
0.129831
0.129738
0.130272
0.131883
0.134832
0.139221
0.145351
0.153598
0.16433
0.177733
0.19283
0.206282
0.216323
0.223677
0.229002
0.232786
0.235325
0.2368
0.237403
0.237465
0.112405
0.112295
0.113042
0.115167
0.118943
0.12472
0.132679
0.143313
0.156956
0.173696
0.192238
0.208583
0.220738
0.229643
0.236086
0.240662
0.243754
0.245563
0.246286
0.246353
0.0901665
0.0900541
0.0911756
0.094112
0.0991934
0.106871
0.117448
0.131336
0.148762
0.16963
0.192259
0.211938
0.226492
0.237155
0.244889
0.250408
0.254176
0.256383
0.257242
0.257308
0.0607531
0.0606806
0.0624888
0.0668285
0.0741156
0.0848616
0.0992719
0.117608
0.139878
0.165751
0.193109
0.216527
0.233743
0.246366
0.25557
0.262198
0.266765
0.269419
0.270422
0.27048
0.0199968
0.0201187
0.0234498
0.030766
0.042136
0.0579385
0.0780213
0.102345
0.130655
0.162393
0.195034
0.222502
0.242569
0.257316
0.268163
0.276084
0.281607
0.284771
0.2859
0.285939
-0.0398369
-0.0384674
-0.030405
-0.0166746
0.00233499
0.0262233
0.0542832
0.0862331
0.121681
0.159966
0.198248
0.229923
0.252933
0.269892
0.282504
0.291857
0.298482
0.302248
0.303509
0.303519
-0.111492
-0.109277
-0.0939778
-0.0701096
-0.0405815
-0.00719143
0.029643
0.0698018
0.112972
0.158579
0.203556
0.240636
0.267744
0.287981
0.303278
0.314846
0.323217
0.327912
0.329245
0.329361
-0.185219
-0.178049
-0.155492
-0.12166
-0.0823862
-0.0397795
0.00576297
0.0541343
0.105082
0.158086
0.209879
0.252497
0.283774
0.307364
0.325538
0.339586
0.349818
0.35498
0.357045
0.357534
-0.243969
-0.234986
-0.207695
-0.167129
-0.12032
-0.0699386
-0.0166365
0.039321
0.0975819
0.15759
0.215745
0.263351
0.298229
0.324542
0.3448
0.360444
0.371863
0.378239
0.381271
0.381938
-0.291708
-0.282181
-0.251435
-0.205979
-0.153446
-0.0968804
-0.0371036
0.0254749
0.0903142
0.156711
0.220656
0.272659
0.310522
0.338932
0.360737
0.37761
0.390047
0.397346
0.400728
0.401454
-0.331617
-0.321906
-0.288917
-0.239711
-0.182535
-0.120879
-0.0556575
0.0126299
0.083288
0.155433
0.224572
0.280415
0.320761
0.3508
0.3737
0.391315
0.404321
0.412255
0.415835
0.416607
-0.366273
-0.356504
-0.321844
-0.269592
-0.208637
-0.1427
-0.0727612
0.000544618
0.0763979
0.153749
0.227615
0.286898
0.329365
0.360679
0.384308
0.402315
0.415557
0.423756
0.427405
0.428213
-0.397252
-0.387477
-0.351555
-0.296749
-0.232613
-0.162986
-0.088914
-0.0111355
0.0694398
0.151591
0.22989
0.292384
0.336783
0.369196
0.393374
0.411586
0.424889
0.433173
0.436781
0.437648
-0.425753
-0.415947
-0.378975
-0.321992
-0.25514
-0.182283
-0.104546
-0.0227242
0.062188
0.148854
0.231396
0.297051
0.343344
0.376808
0.401517
0.419967
0.433331
0.441681
0.44532
0.446009
-0.452544
-0.442685
-0.404767
-0.345952
-0.276663
-0.200944
-0.119944
-0.0344605
0.0544645
0.145407
0.232108
0.300925
0.349201
0.383828
0.40916
0.427895
0.441353
0.449688
0.453323
0.453908
-0.4781
-0.468189
-0.429415
-0.369
-0.297503
-0.219241
-0.135313
-0.0465022
0.0461367
0.141149
0.231956
0.304079
0.354539
0.390512
0.4166
0.435724
0.449346
0.457674
0.461263
0.461832
-0.502851
-0.492782
-0.453197
-0.391322
-0.317884
-0.237354
-0.150787
-0.0589518
0.0371256
0.136015
0.23094
0.306576
0.359435
0.396957
0.423988
0.443644
0.457521
0.465885
0.469352
0.469909
-0.526952
-0.516658
-0.476364
-0.413097
-0.337928
-0.255372
-0.166435
-0.0718572
0.0273933
0.129985
0.22901
0.308307
0.363857
0.403199
0.431381
0.451712
0.465919
0.474329
0.477665
0.478168
-0.550453
-0.539951
-0.498981
-0.434424
-0.357699
-0.273329
-0.182278
-0.085227
0.016931
0.122995
0.226035
0.309185
0.367741
0.409223
0.438784
0.459932
0.474521
0.482949
0.486128
0.486531
-0.573488
-0.562695
-0.521026
-0.455323
-0.377212
-0.291229
-0.198296
-0.0990424
0.00573823
0.115011
0.221953
0.309103
0.370983
0.414957
0.446175
0.468286
0.483287
0.491702
0.494665
0.494932
-0.595967
-0.584907
-0.54255
-0.475791
-0.396438
-0.309029
-0.214441
-0.113255
-0.00614835
0.106051
0.216719
0.307917
0.37342
0.420303
0.453534
0.476777
0.492163
0.500428
0.503108
0.50324
-0.617917
-0.606576
-0.563526
-0.495802
-0.415336
-0.326681
-0.230655
-0.127786
-0.0186472
0.096161
0.210285
0.305497
0.374853
0.425096
0.460827
0.485462
0.501155
0.509045
0.511304
0.511289
-0.639186
-0.627623
-0.583901
-0.515306
-0.433849
-0.344102
-0.246856
-0.142545
-0.0316668
0.085406
0.202641
0.301724
0.375066
0.4291
0.467983
0.494515
0.510453
0.517525
0.519075
0.51889
-0.659867
-0.647997
-0.60364
-0.534261
-0.451935
-0.361243
-0.262944
-0.157443
-0.0451111
0.0738827
0.193821
0.296502
0.373826
0.431973
0.474778
0.504154
0.520648
0.52622
0.526336
0.525849
-0.679824
-0.667659
-0.622715
-0.552615
-0.469507
-0.378017
-0.278837
-0.172356
-0.05886
0.0616814
0.183897
0.289775
0.370928
0.433272
0.480696
0.51436
0.5328
0.536689
0.533758
0.53189
-0.699091
-0.686666
-0.641074
-0.570314
-0.486528
-0.394356
-0.294449
-0.1872
-0.0727912
0.0489572
0.172979
0.281516
0.366225
0.432521
0.484796
0.524284
0.54746
0.552405
0.545711
0.534973
-0.717591
-0.704963
-0.658823
-0.587509
-0.503202
-0.410541
-0.310119
-0.202384
-0.0873734
0.0351701
0.160476
0.271063
0.359065
0.429036
0.485605
0.531935
0.562895
0.57287
0.566934
0.55636
-0.735288
-0.72245
-0.675966
-0.604157
-0.519518