/*--------------------------------*- C++ -*----------------------------------*\
  =========                 |
  \\      /  F ield         | OpenFOAM: The Open Source CFD Toolbox
   \\    /   O peration     | Website:  https://openfoam.org
    \\  /    A nd           | Version:  10
     \\/     M anipulation  |
\*---------------------------------------------------------------------------*/
FoamFile
{
    format      ascii;
    class       volVectorField;
    location    "25";
    object      U;
}
// * * * * * * * * * * * * * * * * * * * * * * * * * * * * * * * * * * * * * //

dimensions      [0 1 -1 0 0 0 0];

internalField   nonuniform List<vector> 
8800
(
(0.980146 -0.0915209 0)
(1.00234 -0.0587265 0)
(0.999612 -0.0321255 0)
(1 -0.0165155 0)
(1.00005 -0.00882748 0)
(1.00003 -0.00507475 0)
(1.00001 -0.00297397 0)
(1 -0.00168448 0)
(1 -0.000809902 0)
(1.00005 -0.000126463 0)
(0.999998 0.000562836 0)
(0.999998 0.00131651 0)
(1 0.00235109 0)
(1.00002 0.00396922 0)
(1.00004 0.00672284 0)
(1.00005 0.012032 0)
(0.999887 0.0230875 0)
(0.99908 0.0431555 0)
(1.00721 0.0790303 0)
(0.775022 0.0478396 0)
(0.358988 -0.0147483 0)
(1.0465 -0.072486 0)
(1.08849 -0.0660241 0)
(1.04947 -0.0509098 0)
(1.02554 -0.0376768 0)
(1.01267 -0.0258534 0)
(1.00649 -0.016659 0)
(1.00357 -0.0102247 0)
(1.00216 -0.00565842 0)
(1.00152 -0.00211117 0)
(1.0014 0.0010629 0)
(1.00174 0.0043624 0)
(1.0027 0.00825114 0)
(1.00473 0.0135587 0)
(1.00898 0.0212465 0)
(1.018 0.0317652 0)
(1.0359 0.0445706 0)
(1.06752 0.0580451 0)
(1.09476 0.0699646 0)
(0.845739 0.0554931 0)
(0.217789 -0.00137931 0)
(1.07569 -0.0506366 0)
(1.09943 -0.0489241 0)
(1.06439 -0.0400223 0)
(1.03983 -0.0325765 0)
(1.02369 -0.0253714 0)
(1.01392 -0.018169 0)
(1.00846 -0.0115901 0)
(1.00563 -0.00589848 0)
(1.00448 -0.000701714 0)
(1.00482 0.00432785 0)
(1.00667 0.0096022 0)
(1.01059 0.0156123 0)
(1.01791 0.0224252 0)
(1.03054 0.0295589 0)
(1.05061 0.0366624 0)
(1.08023 0.0444509 0)
(1.10586 0.051799 0)
(0.943545 0.0409407 0)
(0.217372 0.00139594 0)
(0.176672 -0.000627287 0)
(1.01944 -0.0354265 0)
(1.10572 -0.0413566 0)
(1.07792 -0.0363234 0)
(1.05231 -0.0302575 0)
(1.03504 -0.0243889 0)
(1.02321 -0.0186712 0)
(1.01543 -0.0128002 0)
(1.01085 -0.00684167 0)
(1.00886 -0.000706403 0)
(1.00942 0.00539204 0)
(1.01253 0.0112616 0)
(1.0185 0.017008 0)
(1.0281 0.0225839 0)
(1.04234 0.0281538 0)
(1.06324 0.0339891 0)
(1.09412 0.0399429 0)
(1.09481 0.0415481 0)
(0.830865 0.0226717 0)
(0.175966 0.000640783 0)
(0.154813 -0.000460452 0)
(0.958333 -0.0256113 0)
(1.10445 -0.0350164 0)
(1.08806 -0.0325776 0)
(1.0611 -0.0280802 0)
(1.04294 -0.0231346 0)
(1.03055 -0.0179011 0)
(1.02201 -0.0124858 0)
(1.01652 -0.00672924 0)
(1.01392 -0.000464136 0)
(1.01463 0.00582966 0)
(1.01846 0.0116286 0)
(1.02525 0.0169453 0)
(1.03542 0.0219964 0)
(1.05027 0.0268776 0)
(1.07236 0.0313695 0)
(1.10149 0.0353014 0)
(1.07045 0.0336079 0)
(0.743835 0.0142921 0)
(0.15376 0.000475681 0)
(0.140225 -0.000330355 0)
(0.901591 -0.0191518 0)
(1.09681 -0.0299534 0)
(1.096 -0.0290873 0)
(1.06864 -0.0253717 0)
(1.04975 -0.0213683 0)
(1.03676 -0.0167979 0)
(1.02779 -0.0117254 0)
(1.02188 -0.00622424 0)
(1.01895 -9.58987e-05 0)
(1.01967 0.00609386 0)
(1.0238 0.0116284 0)
(1.03091 0.0165802 0)
(1.04152 0.021079 0)
(1.05698 0.025045 0)
(1.07986 0.0285763 0)
(1.10391 0.0313452 0)
(1.03928 0.0275393 0)
(0.678006 0.0100629 0)
(0.138749 0.000348675 0)
(0.12965 -0.000248802 0)
(0.852277 -0.0146568 0)
(1.08468 -0.0256879 0)
(1.10169 -0.0259631 0)
(1.07531 -0.0226204 0)
(1.05579 -0.0190644 0)
(1.04235 -0.0151415 0)
(1.03299 -0.0106047 0)
(1.02684 -0.00542109 0)
(1.02376 0.000416074 0)
(1.0244 0.00626116 0)
(1.02857 0.0114393 0)
(1.03586 0.0158939 0)
(1.04679 0.019681 0)
(1.06273 0.022998 0)
(1.08621 0.0261146 0)
(1.10359 0.0281101 0)
(1.00574 0.0227473 0)
(0.627397 0.00756807 0)
(0.127658 0.000271118 0)
(0.121712 -0.000186437 0)
(0.810755 -0.0112713 0)
(1.0696 -0.0217554 0)
(1.10509 -0.0230818 0)
(1.08134 -0.0203707 0)
(1.06131 -0.0171185 0)
(1.04754 -0.0134596 0)
(1.03789 -0.00925662 0)
(1.0314 -0.00445031 0)
(1.02806 0.0010064 0)
(1.02863 0.0064543 0)
(1.0329 0.0111658 0)
(1.04037 0.0151395 0)
(1.05148 0.0185237 0)
(1.06777 0.0214787 0)
(1.09165 0.0241728 0)
(1.10044 0.0251694 0)
(0.972326 0.0187388 0)
(0.587744 0.0058535 0)
(0.119096 0.000213894 0)
(0.115735 -0.000141082 0)
(0.776567 -0.00866544 0)
(1.05331 -0.0181293 0)
(1.10708 -0.0200584 0)
(1.08667 -0.0177527 0)
(1.06637 -0.0147759 0)
(1.05239 -0.0114664 0)
(1.04253 -0.00766729 0)
(1.03583 -0.00329441 0)
(1.03229 0.00174421 0)
(1.03271 0.00676371 0)
(1.0369 0.010914 0)
(1.04439 0.0143274 0)
(1.05557 0.0172074 0)
(1.07203 0.0197236 0)
(1.09562 0.0220414 0)
(1.09475 0.0223509 0)
(0.940821 0.0154543 0)
(0.556231 0.00461431 0)
(0.112358 0.000175258 0)
(0.111293 -0.000102119 0)
(0.749 -0.00650025 0)
(1.03715 -0.0147211 0)
(1.10836 -0.0170673 0)
(1.09173 -0.0150571 0)
(1.07102 -0.0123327 0)
(1.05672 -0.00939859 0)
(1.04673 -0.00592954 0)
(1.03988 -0.0018906 0)
(1.03613 0.00267219 0)
(1.03634 0.00709404 0)
(1.04038 0.0107202 0)
(1.04774 0.013621 0)
(1.05895 0.0159304 0)
(1.07578 0.0179806 0)
(1.09865 0.0199536 0)
(1.08734 0.0196542 0)
(0.912108 0.0126396 0)
(0.531096 0.00363882 0)
(0.106988 0.000144068 0)
(0.108127 -7.15051e-05 0)
(0.727461 -0.00466043 0)
(1.02185 -0.0114748 0)
(1.10858 -0.0141326 0)
(1.09622 -0.0126812 0)
(1.07513 -0.0102505 0)
(1.06052 -0.00747866 0)
(1.05035 -0.00420038 0)
(1.04336 -0.000423544 0)
(1.03941 0.00375076 0)
(1.03933 0.00769061 0)
(1.04308 0.0108231 0)
(1.05027 0.0132353 0)
(1.06154 0.0152107 0)
(1.07871 0.0168754 0)
(1.10021 0.0182178 0)
(1.07838 0.0171017 0)
(0.88658 0.0102309 0)
(0.511099 0.00287202 0)
(0.102679 0.000124502 0)
(0.106073 -4.12757e-05 0)
(0.711692 -0.00293491 0)
(1.0084 -0.00814676 0)
(1.10769 -0.0107427 0)
(1.09994 -0.00973939 0)
(1.07915 -0.00756237 0)
(1.06446 -0.00499407 0)
(1.05406 -0.00197638 0)
(1.04677 0.00137712 0)
(1.04245 0.00507389 0)
(1.04206 0.00847531 0)
(1.04563 0.0109311 0)
(1.05273 0.0127684 0)
(1.06382 0.0141827 0)
(1.0808 0.0153444 0)
(1.10012 0.0160854 0)
(1.06839 0.0143437 0)
(0.86475 0.00800877 0)
(0.495557 0.00219135 0)
(0.0992162 0.000107251 0)
(0.105155 -1.76714e-06 0)
(0.701428 -0.00134499 0)
(0.997659 -0.00500249 0)
(1.10656 -0.0072159 0)
(1.10312 -0.00632237 0)
(1.0826 -0.00449057 0)
(1.06773 -0.00238199 0)
(1.0572 0.000275651 0)
(1.04979 0.00334308 0)
(1.04526 0.00666772 0)
(1.04436 0.00957988 0)
(1.04735 0.0114887 0)
(1.05404 0.0126086 0)
(1.06505 0.0132169 0)
(1.08216 0.0136826 0)
(1.09923 0.0139395 0)
(1.05836 0.0118472 0)
(0.846636 0.00610728 0)
(0.483944 0.00162075 0)
(0.0965508 8.52951e-05 0)
(0.105277 3.73634e-05 0)
(0.695995 -6.89376e-05 0)
(0.989503 -0.00227856 0)
(1.1053 -0.00422061 0)
(1.10573 -0.00365022 0)
(1.08549 -0.00206408 0)
(1.07052 -7.35798e-05 0)
(1.05994 0.00250007 0)
(1.05228 0.00546341 0)
(1.04727 0.00859011 0)
(1.04587 0.0111154 0)
(1.04842 0.012614 0)
(1.05467 0.0133191 0)
(1.06529 0.0134745 0)
(1.08208 0.0133136 0)
(1.09715 0.0128418 0)
(1.04803 0.0100413 0)
(0.831661 0.00480074 0)
(0.475266 0.00128928 0)
(0.0945263 6.7626e-05 0)
(0.106212 5.7252e-05 0)
(0.694391 0.000776523 0)
(0.983981 -0.000196066 0)
(1.10374 -0.00167282 0)
(1.10786 -0.00133247 0)
(1.0884 5.14755e-05 0)
(1.07356 0.00220708 0)
(1.06304 0.00493793 0)
(1.05521 0.00798105 0)
(1.04969 0.0109869 0)
(1.04763 0.0132149 0)
(1.04942 0.0142818 0)
(1.05494 0.0144676 0)
(1.06496 0.0141419 0)
(1.08124 0.0136351 0)
(1.09345 0.0124319 0)
(1.03736 0.00907502 0)
(0.819095 0.00436157 0)
(0.467942 0.00127018 0)
(0.092765 6.55583e-05 0)
(0.10765 7.67263e-05 0)
(0.695255 0.00129344 0)
(0.981436 0.00136833 0)
(1.10266 0.000827784 0)
(1.10975 0.00135741 0)
(1.09133 0.00289833 0)
(1.07671 0.00532352 0)
(1.06596 0.00821292 0)
(1.05762 0.011195 0)
(1.0514 0.013971 0)
(1.0485 0.015752 0)
(1.04952 0.0161883 0)
(1.05439 0.0158478 0)
(1.06388 0.0150677 0)
(1.07945 0.0140793 0)
(1.08876 0.0124376 0)
(1.02699 0.0089825 0)
(0.807738 0.00463559 0)
(0.460465 0.0014458 0)
(0.090874 7.59657e-05 0)
(0.109571 9.54858e-05 0)
(0.698108 0.00180516 0)
(0.981744 0.00256959 0)
(1.10351 0.00301634 0)
(1.11246 0.0044058 0)
(1.09485 0.00645939 0)
(1.08018 0.00919153 0)
(1.06911 0.0121738 0)
(1.06022 0.0151198 0)
(1.05318 0.0176386 0)
(1.04921 0.0188974 0)
(1.04928 0.0187273 0)
(1.05341 0.0178304 0)
(1.06215 0.0165645 0)
(1.07696 0.0151122 0)
(1.08381 0.0132292 0)
(1.01723 0.00985265 0)
(0.796082 0.00533795 0)
(0.451968 0.0017071 0)
(0.0886335 9.39402e-05 0)
(0.112038 0.000118136 0)
(0.702608 0.00245236 0)
(0.983717 0.00368192 0)
(1.10629 0.00466199 0)
(1.11678 0.00667842 0)
(1.09904 0.00938799 0)
(1.08393 0.0126571 0)
(1.0723 0.0160793 0)
(1.06266 0.0193985 0)
(1.05457 0.022109 0)
(1.04931 0.0232291 0)
(1.04827 0.0226234 0)
(1.05165 0.021001 0)
(1.05993 0.0192248 0)
(1.074 0.0175396 0)
(1.0787 0.0155647 0)
(1.00668 0.0115943 0)
(0.782724 0.00619059 0)
(0.442108 0.00201123 0)
(0.0859158 0.000118505 0)
(0.115213 0.000150603 0)
(0.709263 0.0034003 0)
(0.986643 0.00531342 0)
(1.10977 0.00628615 0)
(1.12186 0.00828747 0)
(1.10414 0.011348 0)
(1.08846 0.0153648 0)
(1.07622 0.0197008 0)
(1.06571 0.0240355 0)
(1.05626 0.0276064 0)
(1.04945 0.0292202 0)
(1.04698 0.0287949 0)
(1.04911 0.0270809 0)
(1.05684 0.0246938 0)
(1.07067 0.0221965 0)
(1.07213 0.0192199 0)
(0.993143 0.0135317 0)
(0.767283 0.00698913 0)
(0.430883 0.00233126 0)
(0.0826723 0.000142846 0)
(0.119399 0.00019835 0)
(0.719064 0.00472103 0)
(0.990827 0.00775911 0)
(1.11271 0.00868932 0)
(1.12687 0.0103293 0)
(1.11006 0.0135727 0)
(1.0942 0.0183802 0)
(1.08141 0.0240165 0)
(1.06978 0.0297153 0)
(1.05864 0.0344553 0)
(1.04999 0.0367958 0)
(1.04587 0.0366487 0)
(1.04644 0.0349409 0)
(1.05262 0.0321819 0)
(1.06488 0.0284773 0)
(1.06133 0.0230872 0)
(0.975835 0.0153092 0)
(0.750149 0.00789625 0)
(0.418159 0.00272442 0)
(0.0788473 0.000170786 0)
(0.12501 0.00027435 0)
(0.733234 0.00653096 0)
(0.997848 0.0112023 0)
(1.11541 0.0129906 0)
(1.13157 0.0144088 0)
(1.11656 0.0178576 0)
(1.10148 0.0237013 0)
(1.08808 0.030642 0)
(1.07491 0.0374897 0)
(1.06163 0.0430134 0)
(1.05072 0.0455088 0)
(1.0446 0.0450443 0)
(1.04325 0.0427033 0)
(1.04726 0.039051 0)
(1.05542 0.0337189 0)
(1.04569 0.0260912 0)
(0.956019 0.0169819 0)
(0.731615 0.00907953 0)
(0.403547 0.00321094 0)
(0.0743577 0.000199344 0)
(0.132602 0.000384946 0)
(0.752993 0.00891014 0)
(1.00962 0.0156897 0)
(1.12001 0.0191902 0)
(1.13659 0.0213291 0)
(1.12442 0.0260218 0)
(1.11016 0.0329288 0)
(1.09579 0.0407682 0)
(1.08059 0.0481797 0)
(1.06464 0.0536746 0)
(1.05098 0.0554104 0)
(1.04245 0.0537165 0)
(1.03875 0.0498746 0)
(1.03969 0.0446332 0)
(1.04272 0.0376038 0)
(1.0275 0.0287242 0)
(0.935386 0.0192258 0)
(0.711292 0.0107505 0)
(0.386475 0.00383591 0)
(0.0691045 0.000230487 0)
(0.142911 0.000550657 0)
(0.779536 0.0122282 0)
(1.02779 0.0215927 0)
(1.12938 0.0274765 0)
(1.14437 0.0318515 0)
(1.13408 0.0383683 0)
(1.11989 0.0464031 0)
(1.10396 0.0548234 0)
(1.08615 0.0622023 0)
(1.06691 0.066801 0)
(1.04997 0.0668266 0)
(1.03853 0.0630567 0)
(1.03209 0.0571384 0)
(1.02957 0.0499197 0)
(1.02803 0.0415897 0)
(1.00863 0.0322281 0)
(0.91406 0.022461 0)
(0.688285 0.0129185 0)
(0.366196 0.00459635 0)
(0.0629027 0.000267203 0)
(0.157195 0.000818306 0)
(0.81467 0.0171177 0)
(1.05399 0.0295687 0)
(1.14515 0.0382555 0)
(1.15689 0.0457013 0)
(1.14613 0.0545351 0)
(1.13067 0.0640082 0)
(1.11221 0.0729046 0)
(1.091 0.0797694 0)
(1.06781 0.0827637 0)
(1.04705 0.0803584 0)
(1.03235 0.0740031 0)
(1.02292 0.0657595 0)
(1.01715 0.056629 0)
(1.01209 0.047209 0)
(0.989304 0.0374506 0)
(0.890831 0.0269508 0)
(0.66104 0.0156842 0)
(0.341945 0.00549833 0)
(0.0556747 0.000304983 0)
(0.177645 0.00129282 0)
(0.861511 0.024858 0)
(1.08992 0.0412656 0)
(1.16803 0.0529777 0)
(1.17479 0.0640046 0)
(1.16114 0.0754529 0)
(1.14251 0.0863568 0)
(1.12016 0.0954165 0)
(1.09463 0.101219 0)
(1.06685 0.10197 0)
(1.04187 0.0966192 0)
(1.02372 0.08743 0)
(1.01126 0.0767696 0)
(1.00265 0.0658204 0)
(0.994793 0.0552566 0)
(0.968556 0.0447311 0)
(0.864103 0.0327618 0)
(0.628346 0.0190965 0)
(0.313155 0.00655568 0)
(0.0473475 0.000341223 0)
(0.207581 0.00235866 0)
(0.925574 0.0383646 0)
(1.13753 0.0606386 0)
(1.19847 0.0750277 0)
(1.1978 0.0899478 0)
(1.17866 0.103388 0)
(1.15483 0.114883 0)
(1.12722 0.123194 0)
(1.09647 0.127034 0)
(1.06361 0.124757 0)
(1.0342 0.11596 0)
(1.01255 0.103732 0)
(0.997177 0.0906303 0)
(0.986016 0.0778561 0)
(0.975631 0.065997 0)
(0.945108 0.0542502 0)
(0.832163 0.0400039 0)
(0.589149 0.0231807 0)
(0.280051 0.00778843 0)
(0.0382027 0.000364939 0)
(0.248746 0.00879135 -1.1604e-20)
(1.01053 0.0658392 -8.9415e-21)
(1.19399 0.0934561 2.44526e-21)
(1.23483 0.110477 0)
(1.22319 0.127381 -3.48345e-36)
(1.19667 0.14085 2.14925e-22)
(1.16625 0.151227 -1.38175e-21)
(1.13247 0.157531 0)
(1.09585 0.158533 5.02102e-35)
(1.05737 0.152678 -3.77668e-21)
(1.02313 0.14021 0)
(0.997586 0.124926 -5.38486e-21)
(0.978997 0.10947 -1.64578e-20)
(0.965062 0.0949938 -7.95927e-21)
(0.95182 0.0820063 -2.50121e-21)
(0.916343 0.0692756 -1.51117e-21)
(0.791158 0.0518769 0)
(0.539752 0.0302162 1.07892e-21)
(0.242503 0.0110631 1.27701e-21)
(0.0299538 0.0010377 2.26719e-20)
(0.276145 0.0247351 -2.25503e-20)
(1.08019 0.109468 5.07261e-22)
(1.24119 0.141294 -1.26686e-21)
(1.26777 0.159663 0)
(1.24611 0.175103 1.74809e-21)
(1.21234 0.187006 7.38989e-22)
(1.17517 0.19552 -9.36325e-22)
(1.13494 0.199597 -6.62002e-21)
(1.092 0.197932 0)
(1.04704 0.18888 1.60555e-20)
(1.00678 0.173175 1.76944e-20)
(0.976155 0.155251 5.67981e-21)
(0.953236 0.137738 2.23609e-20)
(0.935456 0.121534 3.28511e-20)
(0.917661 0.106988 0)
(0.875297 0.0923656 4.86426e-20)
(0.741336 0.0712633 7.07005e-20)
(0.489742 0.0437525 7.87932e-20)
(0.212087 0.0180234 -9.07221e-20)
(0.0239861 0.0020738 -1.68073e-21)
(0.274852 0.0402409 0)
(1.12275 0.166156 -7.07901e-21)
(1.27472 0.201049 0)
(1.29323 0.218652 1.11381e-20)
(1.26405 0.230623 0)
(1.224 0.239218 5.01958e-21)
(1.18065 0.244525 1.14837e-21)
(1.13434 0.245403 -1.00784e-20)
(1.08543 0.240407 -1.56921e-21)
(1.03444 0.227909 7.82669e-21)
(0.988595 0.209076 4.13044e-20)
(0.953398 0.188888 -3.05233e-22)
(0.926674 0.169843 -1.68128e-20)
(0.90557 0.152636 -3.25671e-20)
(0.884726 0.137174 3.94176e-20)
(0.840592 0.12123 -7.08121e-20)
(0.712109 0.0963376 -9.62895e-21)
(0.475685 0.0627566 0)
(0.217015 0.0285171 5.1109e-23)
(0.0273596 0.00385305 0)
(0.26724 0.0538267 -1.77332e-19)
(1.14417 0.2258 7.32918e-20)
(1.296 0.26574 3.92162e-20)
(1.30994 0.282281 -7.39907e-21)
(1.27558 0.290456 1.12538e-20)
(1.23074 0.295119 -1.2314e-20)
(1.18237 0.296589 1.57696e-21)
(1.13085 0.293721 0)
(1.0766 0.285025 -3.11831e-20)
(1.02022 0.268836 0)
(0.969467 0.246909 -2.11671e-20)
(0.930337 0.22459 -2.96378e-20)
(0.900507 0.204287 -1.89009e-20)
(0.876915 0.186304 -2.43244e-20)
(0.854274 0.170221 0)
(0.811152 0.153301 0)
(0.69445 0.125654 -6.49997e-20)
(0.4785 0.0866915 1.29408e-20)
(0.231793 0.0423823 -7.52524e-21)
(0.0334224 0.00650264 -8.79167e-21)
(0.259246 0.0659784 1.32171e-19)
(1.15224 0.285117 0)
(1.30791 0.331539 -1.1071e-19)
(1.31896 0.34717 -2.80807e-20)
(1.28096 0.351715 -2.08748e-20)
(1.23255 0.352459 0)
(1.18024 0.350033 -1.93126e-21)
(1.12447 0.343291 9.2881e-21)
(1.06572 0.33076 1.38376e-20)
(1.00463 0.310801 3.98023e-20)
(0.949696 0.28572 0)
(0.90739 0.261262 -6.48247e-20)
(0.875181 0.239699 -4.14359e-20)
(0.849746 0.221065 -2.49946e-20)
(0.826038 0.20463 1.63493e-19)
(0.785028 0.186844 2.00699e-20)
(0.680414 0.157542 9.54298e-20)
(0.483504 0.112441 -4.58366e-19)
(0.245376 0.0579121 2.72627e-19)
(0.0388736 0.00958702 -3.28593e-19)
(0.252047 0.0769776 1.40223e-19)
(1.15195 0.342238 -2.60344e-20)
(1.31289 0.396753 1.96034e-20)
(1.32189 0.411534 5.29333e-20)
(1.28123 0.412691 3.20339e-20)
(1.2301 0.409707 1.69517e-21)
(1.17466 0.403543 1.49602e-21)
(1.11541 0.393032 7.313e-21)
(1.05288 0.376709 -3.05161e-20)
(0.987814 0.352969 0)
(0.929353 0.324665 -2.78988e-20)
(0.884498 0.298003 -1.55168e-21)
(0.850562 0.275062 -4.64758e-20)
(0.82395 0.255733 0)
(0.799825 0.238952 -3.57775e-20)
(0.761158 0.22067 -8.70935e-20)
(0.666321 0.189741 2.39759e-19)
(0.483922 0.138418 -2.37931e-19)
(0.25257 0.0732055 3.38252e-19)
(0.0423545 0.0125858 -3.51947e-19)
(0.246236 0.087213 -4.14135e-22)
(1.1466 0.396564 3.20472e-20)
(1.31257 0.459878 9.40377e-20)
(1.32009 0.474181 -3.26074e-20)
(1.27748 0.472317 1.83519e-20)
(1.22421 0.465932 0)
(1.16626 0.456272 7.60228e-21)
(1.10411 0.44218 -6.00801e-21)
(1.03837 0.422201 -1.41225e-20)
(0.969889 0.394721 0)
(0.908425 0.363114 -2.74328e-20)
(0.861495 0.334054 -3.83838e-20)
(0.826313 0.309509 5.0966e-20)
(0.799068 0.289229 -3.25893e-20)
(0.775064 0.271881 -1.58087e-19)
(0.738683 0.252953 9.71274e-20)
(0.651015 0.220182 3.04239e-20)
(0.478883 0.162271 0)
(0.252957 0.086399 -3.28645e-19)
(0.0434071 0.0149881 -1.20977e-20)
(0.241766 0.0969933 2.313e-20)
(1.1383 0.447936 -3.69668e-20)
(1.30839 0.520388 -5.15134e-20)
(1.31478 0.534487 -1.00231e-19)
(1.27063 0.529979 8.96439e-20)
(1.21568 0.520539 -4.66009e-20)
(1.15566 0.507665 -1.58727e-20)
(1.09107 0.49024 -8.92307e-21)
(1.02252 0.46679 1.36352e-20)
(0.950997 0.435652 -9.80266e-20)
(0.886946 0.400671 -3.36722e-20)
(0.838286 0.368993 0)
(0.802116 0.342536 5.58166e-20)
(0.774572 0.320898 6.90137e-20)
(0.750923 0.302541 8.49616e-20)
(0.716513 0.282572 -1.06083e-19)
(0.634133 0.247322 -3.18836e-20)
(0.469028 0.182598 3.76582e-20)
(0.248622 0.0969335 0)
(0.0428817 0.0167516 -2.63841e-20)
(0.23845 0.106453 -2.69353e-19)
(1.12849 0.496485 1.69599e-19)
(1.30149 0.578024 5.67796e-20)
(1.30687 0.592108 -7.67187e-20)
(1.26149 0.585315 5.38964e-20)
(1.20516 0.573149 -3.94592e-21)
(1.14343 0.557376 1.52089e-20)
(1.07673 0.536894 -3.79903e-21)
(1.0057 0.510194 -2.55014e-20)
(0.931409 0.475534 2.00142e-22)
(0.864919 0.437117 -1.00874e-19)
(0.814794 0.402607 9.78429e-20)
(0.777917 0.373991 -6.25849e-20)
(0.750201 0.350661 7.78169e-20)
(0.726934 0.330961 0)
(0.694044 0.30947 -5.76322e-20)
(0.615328 0.271266 -1.07614e-21)
(0.455065 0.199789 -1.64896e-19)
(0.240183 0.104837 -2.43008e-20)
(0.0410491 0.0178355 0)
(0.236108 0.11571 0)
(1.118 0.542438 1.84471e-19)
(1.29262 0.632659 1.32717e-19)
(1.29709 0.646933 8.67545e-20)
(1.25065 0.638123 5.16303e-20)
(1.19321 0.623544 0)
(1.13004 0.605177 1.5854e-20)
(1.06151 0.581933 -1.19184e-21)
(0.98823 0.552248 5.43659e-20)
(0.911353 0.514242 -1.21354e-20)
(0.842555 0.472395 -7.39554e-20)
(0.790971 0.434856 4.9085e-20)
(0.753431 0.403737 -1.98399e-21)
(0.725591 0.378429 8.19851e-20)
(0.702732 0.357083 5.35217e-20)
(0.671015 0.333695 -1.25432e-19)
(0.594614 0.29175 1.51376e-19)
(0.437732 0.21339 4.50821e-20)
(0.228492 0.11018 1.86037e-19)
(0.0382088 0.0182054 -4.98186e-19)
(0.234665 0.124867 -6.93951e-20)
(1.10741 0.585974 1.06634e-19)
(1.28258 0.684382 -8.30044e-20)
(1.28595 0.698929 -1.00972e-19)
(1.23865 0.688315 0)
(1.1803 0.671602 4.14625e-20)
(1.11589 0.650943 -4.50131e-20)
(1.04574 0.625233 3.46509e-21)
(0.970405 0.592845 0)
(0.891051 0.551724 -1.87581e-19)
(0.819911 0.506482 2.01752e-19)
(0.766727 0.465794 0)
(0.728434 0.431901 7.40655e-20)
(0.700503 0.404253 -1.98178e-21)
(0.677992 0.380934 -1.69327e-19)
(0.647029 0.355226 6.66112e-20)
(0.571921 0.30897 0)
(0.41767 0.223518 2.44381e-19)
(0.214394 0.113091 0)
(0.0347175 0.0180198 -2.37189e-19)
(0.233896 0.133986 7.75068e-20)
(1.09706 0.627272 1.22027e-19)
(1.27168 0.733219 -8.70132e-20)
(1.27393 0.748086 0)
(1.22592 0.735872 7.15919e-20)
(1.16679 0.717286 0)
(1.10133 0.694604 6.04934e-20)
(1.02972 0.666721 5.59952e-21)
(0.952473 0.631932 6.09963e-21)
(0.870661 0.587958 -9.27392e-20)
(0.797034 0.539454 1.966e-20)
(0.742155 0.495503 0)
(0.702946 0.458613 -1.57537e-19)
(0.674808 0.428388 2.04186e-21)
(0.652537 0.402794 0)
(0.621919 0.374335 2.38708e-21)
(0.547145 0.32309 2.22653e-19)
(0.394948 0.230196 -2.13385e-19)
(0.19831 0.113585 6.29926e-20)
(0.0307412 0.0172361 0)
(0.23348 0.142911 0)
(1.08715 0.666403 1.36707e-19)
(1.26026 0.779316 1.02239e-19)
(1.26139 0.794457 -2.24462e-21)
(1.21276 0.78082 4.51193e-20)
(1.15298 0.760593 9.77123e-20)
(1.08662 0.736143 -1.91933e-20)
(1.01371 0.706367 8.29511e-22)
(0.934641 0.669482 3.46412e-20)
(0.850374 0.62297 -1.45087e-19)
(0.774155 0.571404 -3.22716e-21)
(0.717292 0.524166 -6.46743e-20)
(0.676956 0.484085 2.58022e-19)
(0.648433 0.451 -2.42166e-21)
(0.626271 0.422807 -1.33196e-19)
(0.59559 0.391094 -2.43189e-19)
(0.52036 0.334168 0)
(0.369845 0.233573 0)
(0.180502 0.111617 6.88214e-20)
(0.0264707 0.0158907 -4.03083e-20)
(0.233634 0.151778 9.66626e-20)
(1.07772 0.703284 -2.99952e-19)
(1.2486 0.822774 -1.0958e-19)
(1.2486 0.838121 0)
(1.19944 0.823218 -1.53947e-21)
(1.13913 0.801551 1.17993e-19)
(1.07198 0.775569 -6.57073e-20)
(0.997901 0.744169 -2.36151e-20)
(0.917126 0.705506 3.72596e-20)
(0.830432 0.656806 -1.1241e-19)
(0.75142 0.602438 -1.71127e-19)
(0.692219 0.551964 1.725e-19)
(0.650405 0.508511 0)
(0.621312 0.472265 -5.99088e-20)
(0.599114 0.441113 -1.46032e-19)
(0.567984 0.405574 -1.7596e-19)
(0.491527 0.342085 -2.12834e-19)
(0.342509 0.233517 6.34511e-20)
(0.161128 0.107087 -3.72262e-20)
(0.021873 0.0139811 3.65802e-22)
(0.23378 0.160501 0)
(1.06893 0.738272 0)
(1.23687 0.86366 2.54937e-21)
(1.23576 0.87917 0)
(1.18615 0.863147 -1.699e-19)
(1.12541 0.840217 -1.04653e-19)
(1.05761 0.812909 0)
(0.982484 0.780142 -6.63063e-21)
(0.900116 0.740009 4.9873e-20)
(0.810998 0.689491 -2.58458e-19)
(0.728979 0.632661 0)
(0.66708 0.579098 -1.10593e-19)
(0.623362 0.532151 -2.96729e-21)
(0.593372 0.492385 -2.44009e-21)
(0.570959 0.457814 1.55756e-19)
(0.539017 0.41773 -4.24307e-22)
(0.460683 0.346771 -4.61558e-19)
(0.312913 0.229847 1.37806e-19)
(0.140454 0.100077 4.0841e-20)
(0.0171393 0.0116385 0)
(0.233941 0.168981 -3.56123e-19)
(1.06052 0.771533 -1.84491e-19)
(1.2252 0.902081 -2.75201e-19)
(1.22303 0.917705 3.82133e-19)
(1.17305 0.900673 -3.18973e-19)
(1.11197 0.87665 0)
(1.04363 0.848208 -5.66203e-20)
(0.967591 0.814308 1.20738e-20)
(0.883737 0.773002 3.77493e-21)
(0.792224 0.721055 2.03209e-20)
(0.707028 0.662164 2.1527e-19)
(0.642017 0.605764 -3.78983e-20)
(0.595881 0.555258 -1.59218e-19)
(0.564532 0.511592 -7.10133e-20)
(0.541659 0.47297 8.65162e-20)
(0.508613 0.42742 -3.10196e-22)
(0.428023 0.34798 1.2611e-19)
(0.281407 0.222456 -2.98488e-19)
(0.11915 0.0908758 3.54457e-19)
(0.0124842 0.00899488 5.14493e-20)
(0.233983 0.177148 1.30963e-19)
(1.05249 0.803116 -1.011e-19)
(1.2137 0.938162 6.03395e-21)
(1.21051 0.953851 2.16211e-19)
(1.16025 0.935902 7.47537e-20)
(1.09892 0.910917 2.09133e-19)
(1.03015 0.881512 -2.54281e-20)
(0.953319 0.846688 5.88258e-20)
(0.868096 0.804485 -3.38669e-20)
(0.774258 0.751501 -1.4254e-19)
(0.685754 0.691019 0)
(0.617227 0.632129 -1.70372e-19)
(0.568049 0.578139 2.3108e-19)
(0.534667 0.530204 0)
(0.510916 0.486636 -1.8514e-19)
(0.476563 0.434266 1.14176e-19)
(0.393697 0.34515 -1.36144e-19)
(0.249036 0.211281 -1.62655e-19)
(0.0981738 0.0799654 -2.8769e-19)
(0.00815562 0.0062368 -2.24397e-19)
(0.234245 0.185086 -1.44081e-19)
(1.04468 0.833005 1.08087e-19)
(1.20244 0.97198 2.57224e-19)
(1.19829 0.987694 2.97453e-19)
(1.14783 0.968924 -1.56336e-19)
(1.08633 0.943102 1.44584e-19)
(1.01723 0.912874 -7.88866e-20)
(0.939737 0.877323 7.41964e-20)
(0.853277 0.834483 -1.42383e-20)
(0.757219 0.780838 1.37789e-19)
(0.665322 0.719266 4.59318e-19)
(0.592918 0.65834 0)
(0.54004 0.601107 0)
(0.503662 0.548668 -8.21382e-20)
(0.478215 0.49896 0)
(0.442302 0.43762 2.48092e-19)
(0.357844 0.337145 2.96443e-19)
(0.217141 0.195843 0)
(0.0789338 0.0678322 0)
(0.0044517 0.00364622 2.43344e-19)
(0.234189 0.192552 1.59111e-19)
(1.03712 0.861208 1.29773e-19)
(1.19148 1.00366 1.84927e-19)
(1.18643 1.01936 -2.65823e-19)
(1.13585 0.999839 -1.74476e-19)
(1.07426 0.973279 -1.92128e-19)
(1.00494 0.942355 1.17084e-19)
(0.926902 0.906245 2.91039e-22)
(0.839346 0.862998 -4.86088e-21)
(0.74119 0.809049 -5.83618e-21)
(0.645907 0.746912 2.33229e-19)
(0.569327 0.684481 0)
(0.512102 0.624446 2.33726e-19)
(0.471504 0.56756 1.73591e-19)
(0.442822 0.51043 4.40565e-19)
(0.404548 0.436851 1.33958e-19)
(0.320122 0.321751 -1.62532e-19)
(0.188279 0.174101 -9.52295e-20)
(0.0656695 0.0544929 0)
(0.00272406 0.00184356 2.63552e-19)
(0.234357 0.199951 -3.50057e-19)
(1.0298 0.887828 0)
(1.18081 1.03326 2.06841e-19)
(1.17496 1.04893 -2.17892e-19)
(1.12435 1.02874 1.97778e-19)
(1.06273 1.00153 2.81157e-19)
(0.993304 0.970013 -2.72287e-19)
(0.914836 0.933491 2.22856e-21)
(0.826328 0.89004 0)
(0.726239 0.836101 -1.31599e-19)
(0.627655 0.773928 -4.86231e-19)
(0.546696 0.71059 2.34344e-20)
(0.484606 0.648365 3.18722e-19)
(0.4384 0.587562 0)
(0.403976 0.52205 2.98046e-19)
(0.360995 0.432252 0)
(0.277426 0.295883 0)
(0.163916 0.137199 -1.05347e-19)
(0.074973 0.0289424 0)
(0.0255517 0.0104878 7.1037e-20)
(0.23417 0.206721 -3.83189e-19)
(1.02268 0.913182 0)
(1.17044 1.06099 3.35034e-19)
(1.16385 1.07664 0)
(1.11329 1.05587 -1.07444e-19)
(1.05169 1.02814 0)
(0.982254 0.996154 -2.05074e-20)
(0.903443 0.959394 -1.3106e-20)
(0.814109 0.91597 7.3749e-22)
(0.712221 0.862377 -1.31296e-19)
(0.610434 0.800731 1.29091e-20)
(0.524911 0.737223 1.93532e-19)
(0.457394 0.67343 3.09073e-19)
(0.404034 0.609722 4.39762e-20)
(0.360312 0.535773 2.34078e-19)
(0.307802 0.426419 0)
(0.218078 0.260518 3.53288e-19)
(0.115163 0.074041 -2.07761e-19)
(0.0487849 0.0492313 2.3884e-19)
(-0.0672643 0.410681 -2.79532e-19)
(0.233973 0.213236 3.12519e-19)
(1.01552 0.937131 4.94087e-19)
(1.16028 1.08717 0)
(1.15297 1.1029 5.00208e-21)
(1.10251 1.0818 2.92154e-19)
(1.04089 1.05377 -5.45134e-19)
(0.971504 1.02156 -1.20506e-19)
(0.89235 0.984873 0)
(0.802206 0.941856 -1.72934e-20)
(0.698528 0.889161 -4.33104e-21)
(0.593416 0.828773 0)
(0.502942 0.766146 0)
(0.429256 0.701475 2.72034e-19)
(0.367286 0.635992 -1.3762e-19)
(0.309457 0.55526 -2.3479e-19)
(0.240231 0.425974 0)
(0.124352 0.240377 1.80478e-19)
(0.0159528 0.428354 -2.0889e-19)
(0.0423389 1.82548 -1.08817e-19)
(0.0739248 2.77769 -1.4173e-19)
(0.23363 0.218895 -2.28861e-19)
(1.00857 0.959811 -6.23861e-19)
(1.15033 1.11179 1.93324e-19)
(1.14233 1.12756 1.85418e-19)
(1.09206 1.10631 0)
(1.03039 1.07813 -3.90593e-19)
(0.961229 1.04591 -2.02512e-19)
(0.881724 1.0095 8.91679e-21)
(0.790859 0.967186 -2.12214e-21)
(0.685505 0.915831 1.03549e-19)
(0.577163 0.857341 2.19662e-19)
(0.481736 0.796812 2.01015e-19)
(0.401382 0.732107 2.67991e-19)
(0.330484 0.664657 -3.15336e-19)
(0.257609 0.583215 -3.49008e-19)
(0.161996 0.452438 0)
(0.0637621 0.81007 0)
(0.120941 2.50363 9.36946e-20)
(0.123314 3.176 0)
(0.125769 3.37831 2.14512e-19)
(0.235741 0.22417 0)
(1.00237 0.981358 0)
(1.14038 1.1347 0)
(1.13169 1.15041 5.17283e-20)
(1.08161 1.12916 2.60901e-19)
(1.01996 1.10109 -2.98515e-19)
(0.951325 1.06912 -1.45206e-19)
(0.871517 1.03319 1.02203e-20)
(0.780031 0.991828 -5.30122e-20)
(0.673178 0.942244 -1.01235e-20)
(0.561816 0.886307 4.00542e-19)
(0.461629 0.828986 -2.36123e-20)
(0.374319 0.766027 3.03977e-20)
(0.295592 0.692748 4.50448e-20)
(0.205216 0.619451 4.68283e-22)
(0.126486 0.924461 1.81682e-21)
(0.165491 2.64417 -4.78377e-19)
(0.181572 3.27593 -1.78888e-19)
(0.166241 3.42457 8.34569e-20)
(0.149204 3.44964 -8.67632e-20)
(0.153406 0.181039 1.30898e-19)
(0.990279 1.00469 0)
(1.13018 1.15611 -3.76406e-19)
(1.12176 1.17201 -4.77017e-19)
(1.07192 1.15114 5.44668e-19)
(1.0105 1.12328 3.17219e-19)
(0.941689 1.09128 1.70133e-19)
(0.861823 1.05604 -1.79402e-19)
(0.769905 1.01589 6.02487e-20)
(0.661887 0.968431 0)
(0.547889 0.915644 1.75191e-19)
(0.443339 0.862244 -1.51304e-19)
(0.349025 0.805297 0)
(0.264155 0.723538 3.97505e-20)
(0.183488 0.827813 9.50395e-20)
(0.179829 2.35722 -1.17727e-19)
(0.25243 3.31263 1.31107e-19)
(0.228251 3.44335 6.35733e-20)
(0.19 3.46753 7.16413e-20)
(0.16442 3.47897 9.17291e-20)
(0.277696 0.260902 -2.43438e-19)
(0.974087 1.01278 0)
(1.11149 1.17986 3.88976e-19)
(1.10774 1.20374 4.98324e-19)
(1.05624 1.18332 -5.61317e-19)
(0.994492 1.15597 -3.38256e-19)
(0.925017 1.12536 -2.63662e-19)
(0.844746 1.09127 -1.3247e-20)
(0.75184 1.05324 -9.16477e-20)
(0.641662 1.00962 2.24731e-20)
(0.523502 0.963192 7.07082e-21)
(0.412171 0.917795 1.17957e-19)
(0.303591 0.873512 2.50737e-20)
(0.234658 0.976956 -3.59465e-20)
(0.257433 2.21542 -8.45326e-20)
(0.328305 3.31487 6.22077e-20)
(0.31435 3.48018 -5.7335e-20)
(0.274417 3.50443 -3.20703e-20)
(0.233811 3.53349 3.72494e-22)
(0.176354 3.52582 -9.47776e-22)
(0.264906 0.257131 0)
(0.971022 1.03413 1.02624e-19)
(1.10347 1.2023 -7.71993e-20)
(1.09793 1.22617 -5.57255e-20)
(1.0465 1.20572 -3.6939e-19)
(0.984884 1.1786 3.30615e-19)
(0.915186 1.14813 1.77928e-19)
(0.834959 1.11482 -1.39908e-20)
(0.741925 1.07825 1.15561e-19)
(0.631127 1.03742 -1.42961e-20)
(0.511351 0.995746 -2.33001e-19)
(0.39741 0.95676 1.67671e-20)
(0.291739 0.936704 -2.18442e-20)
(0.276086 1.40888 -2.98868e-20)
(0.364599 3.03176 1.82995e-20)
(0.397402 3.47312 9.17997e-22)
(0.351427 3.54327 -1.05687e-20)
(0.311129 3.56876 -3.69132e-20)
(0.257546 3.59374 7.0507e-20)
(0.191702 3.58872 2.57216e-20)
(0.248021 0.254908 2.52043e-19)
(0.966185 1.05796 6.91949e-19)
(1.09487 1.22667 -2.20773e-19)
(1.08765 1.25 -2.11742e-19)
(1.03627 1.22937 0)
(0.974857 1.20226 4.85511e-19)
(0.90524 1.17201 2.72274e-19)
(0.82534 1.13943 -1.48218e-20)
(0.732506 1.10437 1.18981e-20)
(0.621596 1.06649 4.52887e-20)
(0.50096 1.02979 -7.52689e-20)
(0.386202 0.99811 -1.1543e-19)
(0.296479 1.0516 -1.4433e-19)
(0.34981 2.03478 1.58961e-19)
(0.45828 3.36047 8.63086e-20)
(0.448327 3.54219 0)
(0.39515 3.591 0)
(0.355979 3.63685 6.68535e-20)
(0.291249 3.70586 0)
(0.204437 3.67387 1.45015e-19)
(0.236555 0.255851 -3.6869e-19)
(0.959373 1.0827 -5.76395e-19)
(1.08482 1.25211 0)
(1.07611 1.27462 5.8368e-21)
(1.02486 1.25357 -3.60707e-19)
(0.963765 1.22632 7.22634e-19)
(0.894567 1.1963 1.83622e-19)
(0.815211 1.16435 -1.87762e-20)
(0.722833 1.1307 1.34058e-19)
(0.612216 1.09568 -6.26776e-21)
(0.491512 1.06407 0)
(0.378151 1.04181 0)
(0.32397 1.25673 -1.069e-19)
(0.442569 2.71092 3.66953e-20)
(0.540308 3.48785 5.86482e-21)
(0.497277 3.58159 0)
(0.45728 3.64144 1.57493e-19)
(0.410873 3.71996 -2.48282e-19)
(0.361934 3.71661 -2.34652e-19)
(0.236136 3.70081 2.28924e-20)
(0.227983 0.258481 2.34165e-19)