/*--------------------------------*- C++ -*----------------------------------*\
  =========                 |
  \\      /  F ield         | OpenFOAM: The Open Source CFD Toolbox
   \\    /   O peration     | Website:  https://openfoam.org
    \\  /    A nd           | Version:  10
     \\/     M anipulation  |
\*---------------------------------------------------------------------------*/
FoamFile
{
    format      ascii;
    class       volScalarField;
    location    "63";
    object      p;
}
// * * * * * * * * * * * * * * * * * * * * * * * * * * * * * * * * * * * * * //

dimensions      [0 2 -2 0 0 0 0];

internalField   nonuniform List<scalar> 
2200
(
0.772137
0.750639
0.734734
0.719068
0.704462
0.69195
0.681604
0.673515
0.667832
0.664908
0.66543
0.669272
0.675621
0.68419
0.694877
0.707654
0.72245
0.738385
0.754432
0.77593
0.704553
0.701294
0.698372
0.694258
0.688803
0.682336
0.675728
0.669788
0.665302
0.662947
0.663446
0.666791
0.671996
0.678474
0.685472
0.692232
0.697899
0.701991
0.704837
0.708201
0.664615
0.664836
0.666899
0.668248
0.668644
0.6678
0.665832
0.663171
0.660649
0.659189
0.659772
0.662246
0.665557
0.668801
0.671148
0.672152
0.671889
0.670899
0.669266
0.669017
0.642122
0.643574
0.646173
0.648629
0.651077
0.653105
0.654272
0.654522
0.654177
0.653921
0.654603
0.656018
0.657238
0.657649
0.656978
0.65531
0.653155
0.650972
0.648362
0.646958
0.627751
0.629724
0.632545
0.635386
0.638254
0.641097
0.64357
0.645448
0.646702
0.647545
0.648319
0.64883
0.648624
0.647544
0.645706
0.64335
0.640808
0.638079
0.635281
0.633359
0.620371
0.621969
0.624177
0.626716
0.629395
0.632078
0.634692
0.63714
0.639192
0.640743
0.64166
0.641727
0.640934
0.639448
0.637575
0.635454
0.633143
0.630806
0.628709
0.627135
0.616922
0.617944
0.619218
0.621091
0.623245
0.625426
0.627642
0.629966
0.632226
0.634121
0.63521
0.635288
0.634559
0.633394
0.632026
0.630486
0.6288
0.627231
0.626122
0.625105
0.614227
0.614897
0.615533
0.616844
0.618472
0.620179
0.62196
0.623919
0.626035
0.628072
0.629381
0.629753
0.629482
0.628898
0.628156
0.627237
0.626203
0.62529
0.624847
0.62417
0.610933
0.611378
0.611779
0.612784
0.614059
0.615462
0.616989
0.618699
0.620607
0.622646
0.624254
0.625112
0.625439
0.62544
0.625195
0.624754
0.6242
0.623683
0.623502
0.623037
0.606827
0.607123
0.607485
0.608362
0.609488
0.610781
0.612244
0.613897
0.615771
0.617886
0.619849
0.621267
0.622116
0.622549
0.622677
0.622576
0.622304
0.621996
0.621877
0.621552
0.602043
0.602243
0.602619
0.603458
0.604569
0.605902
0.607463
0.609252
0.611284
0.613623
0.616018
0.61794
0.619244
0.620035
0.620434
0.620565
0.620483
0.62033
0.620233
0.619993
0.596776
0.596921
0.597295
0.598112
0.599268
0.60072
0.602462
0.604501
0.606864
0.609621
0.61256
0.61501
0.616718
0.617814
0.618455
0.618775
0.618898
0.618888
0.618826
0.618633
0.591064
0.591174
0.591557
0.592386
0.593623
0.595238
0.597226
0.59961
0.602457
0.605816
0.609375
0.612387
0.614522
0.615953
0.616872
0.617434
0.617766
0.617895
0.617876
0.617706
0.584933
0.584999
0.585384
0.586245
0.587602
0.589412
0.591683
0.594468
0.597876
0.601992
0.606344
0.610002
0.612642
0.614502
0.6158
0.616665
0.617239
0.617516
0.617536
0.617374
0.57828
0.578317
0.578744
0.579662
0.581167
0.583198
0.585772
0.58902
0.593089
0.598036
0.603328
0.607831
0.611147
0.61356
0.615321
0.616568
0.617397
0.617824
0.617892
0.61773
0.571009
0.570975
0.571401
0.572412
0.574114
0.576389
0.579326
0.583104
0.587931
0.5939
0.600344
0.605874
0.610052
0.613164
0.615502
0.617185
0.618311
0.618904
0.619024
0.618856
0.562771
0.562761
0.56321
0.564328
0.566298
0.568917
0.572343
0.576802
0.582551
0.589745
0.597525
0.604273
0.609477
0.613417
0.616408
0.618588
0.620057
0.620825
0.621
0.620821
0.553473
0.553493
0.553948
0.555207
0.557472
0.560528
0.564581
0.569866
0.576694
0.585307
0.59477
0.603043
0.609452
0.614395
0.618134
0.620868
0.62273
0.623685
0.623912
0.623715
0.542665
0.542639
0.543196
0.544674
0.547304
0.550937
0.555807
0.562179
0.570421
0.580825
0.592259
0.602279
0.610107
0.616137
0.620701
0.624109
0.626398
0.627538
0.627814
0.627595
0.529834
0.529767
0.530444
0.53229
0.53549
0.539923
0.545875
0.553664
0.563722
0.576354
0.590097
0.602143
0.611506
0.618748
0.624288
0.628401
0.631165
0.6325
0.632809
0.632559
0.5147
0.5146
0.515372
0.517579
0.521508
0.52702
0.534435
0.544121
0.556527
0.571876
0.588362
0.602592
0.613683
0.622272
0.628853
0.633802
0.637059
0.638564
0.638896
0.638615
0.496195
0.496112
0.497134
0.499931
0.504882
0.511874
0.521275
0.53347
0.548869
0.567476
0.58706
0.603835
0.616824
0.62685
0.634601
0.640374
0.644108
0.645769
0.646092
0.645778
0.473437
0.473288
0.474598
0.478199
0.484631
0.493756
0.505877
0.521349
0.54041
0.56292
0.586071
0.605672
0.620706
0.632355
0.641343
0.648035
0.652243
0.65402
0.654296
0.653955
0.44405
0.44408
0.44618
0.451248
0.45999
0.472262
0.488239
0.508031
0.531607
0.558624
0.585768
0.60833
0.625581
0.638895
0.649192
0.656749
0.66131
0.663153
0.663353
0.662985
0.405241
0.405484
0.409034
0.417047
0.429878
0.447156
0.468454
0.493627
0.522496
0.554613
0.586116
0.611933
0.631482
0.646499
0.658022
0.666333
0.67113
0.672904
0.672998
0.672622
0.353711
0.354133
0.361154
0.374427
0.393712
0.418176
0.446491
0.478318
0.513404
0.551228
0.587368
0.616399
0.638237
0.654975
0.667738
0.676632
0.681295
0.68272
0.682657
0.682349
0.286069
0.288833
0.303984
0.325551
0.353756
0.387132
0.423613
0.462939
0.504959
0.549081
0.590316
0.623088
0.647753
0.666526
0.680616
0.690053
0.694455
0.695345
0.695262
0.695062
0.209163
0.218782
0.244095
0.275433
0.313829
0.356367
0.401124
0.448193
0.49748
0.54837
0.595277
0.632447
0.660091
0.681095
0.696784
0.706696
0.710745
0.711151
0.711174
0.711077
0.140604
0.155297
0.186943
0.227321
0.275399
0.326828
0.379693
0.434494
0.49106
0.548732
0.601335
0.642382
0.672952
0.696071
0.712862
0.723029
0.726855
0.726968
0.727081
0.727063
0.0884252
0.101696
0.138369
0.184874
0.24037
0.299381
0.359671
0.421781
0.485282
0.549204
0.606943
0.651971
0.685535
0.710518
0.728606
0.739358
0.742982
0.743451
0.743672
0.743645
0.0452344
0.0577764
0.0982939
0.148704
0.209658
0.27466
0.341407
0.409944
0.479603
0.549427
0.612438
0.661499
0.697515
0.724433
0.743843
0.755028
0.759416
0.760199
0.760225
0.760288
0.00846763
0.0211879
0.0643732
0.117644
0.182964
0.252815
0.324958
0.399062
0.474441
0.550226
0.618467
0.670831
0.709236
0.73777
0.75855
0.770419
0.775008
0.775879
0.775926
0.775992
-0.0236117
-0.0106799
0.0346881
0.0905606
0.159499
0.233323
0.31012
0.389282
0.470044
0.551177
0.623713
0.67925
0.720062
0.750172
0.772099
0.784376
0.789371
0.790333
0.790421
0.790468
-0.0519961
-0.0391104
0.00791641
0.0662321
0.13837
0.215732
0.296681
0.380301
0.465715
0.551424
0.628116
0.687115
0.729972
0.761284
0.783921
0.796924
0.802142
0.803273
0.80337
0.803408
-0.0779055
-0.0650065
-0.016663
0.0440334
0.119003
0.199462
0.284009
0.371435
0.460936
0.551116
0.632154
0.694108
0.738724
0.771392
0.794397
0.807861
0.813449
0.814689
0.814821
0.814833
-0.10185
-0.0887715
-0.0396501
0.0233099
0.100774
0.183988
0.271659
0.362438
0.455758
0.550274
0.63541
0.700171
0.746671
0.780249
0.803684
0.817672
0.823335
0.824713
0.824841
0.824829
-0.124418
-0.111028
-0.0612078
0.00372784
0.0833019
0.168922
0.259364
0.353222
0.450125
0.548626
0.637739
0.705533
0.753881
0.788505
0.812236
0.826198
0.83207
0.833447
0.833582
0.833537
-0.145667
-0.132107
-0.0816336
-0.0150771
0.0662853
0.154092
0.247072
0.34377
0.443962
0.546196
0.639339
0.710328
0.760571
0.796075
0.820124
0.833905
0.83963
0.841041
0.841166
0.841067
-0.165857
-0.152261
-0.101109
-0.0332021
0.0496869
0.139444
0.23472
0.334003
0.437171
0.542894
0.640044
0.71447
0.76689
0.803613
0.827608
0.840815
0.846398
0.847664
0.847708
0.847598
-0.185367
-0.171461
-0.119823
-0.0507853
0.0334342
0.124936
0.222264
0.323833
0.429649
0.538679
0.639912
0.71803
0.773204
0.81106
0.834932
0.847575
0.8524
0.853461
0.853469
0.853388
-0.204548
-0.189996
-0.137913
-0.0678533
0.0175306
0.110537
0.209629
0.313212
0.42146
0.533679
0.638894
0.720957
0.779368
0.819091
0.84282
0.854275
0.85812
0.858568
0.858608
0.858595
-0.223273
-0.207982
-0.155494
-0.0844949
0.00190537
0.0962017
0.196813
0.302195
0.412693
0.527848
0.636827
0.723213
0.7854
0.827616
0.851775
0.862032
0.863763
0.863318
0.863183
0.863031
-0.241536
-0.22558
-0.172619
-0.100722
-0.0134355
0.081952
0.183859
0.290855
0.403417
0.521211
0.633736
0.724628
0.791084
0.836939
0.862604
0.871347
0.870408
0.86847
0.868189
0.869154
-0.25916
-0.242722
-0.189279
-0.116556
-0.0284932
0.0678294
0.170856
0.27928
0.393672
0.513782
0.629501
0.724915
0.796358
0.846788
0.875538
0.883969
0.880297
0.873414
0.868569
0.8676
-0.276207
-0.259388
-0.205433
-0.131946
-0.0431989
0.0539218
0.157891
0.267524
0.38349
0.505619
0.624137
0.723794
0.800483
0.856904
0.890666
0.900948
0.897262
0.886367
0.886382
0.890532
-0.292606
-0.275447
-0.221008
-0.146849
-0.0575012
0.0402947
0.145039
0.255666
0.372952
0.496811
0.617627
0.720989
0.803182
0.866212
0.906922
0.922441
0.919186
0.889877
0.851777
0.818554
-0.308364
-0.290945
-0.236031
-0.161302
-0.071469
0.0268455
0.132159
0.243529
0.361842
0.487102
0.609759
0.716177
0.803292
0.873817
0.92371
0.94754
0.958142
0.933282
0.950743
1.0122
-0.323393
-0.30586
-0.250574
-0.17545
-0.0852931
0.013338
0.118972
0.230783
0.349739
0.475934
0.599911
0.708488
0.799758
0.876659
0.932759
0.961479
0.963888
0.936598
0.89281
0.909676
-0.337704
-0.320222
-0.264606
-0.189233
-0.0988918
-0.000131452
0.105597
0.217555
0.336742
0.463338
0.58805
0.697735
0.790456
0.870163
0.927651
0.956834
0.937491
0.879143
0.813302
0.80039
-0.351254
-0.333967
-0.278115
-0.202667
-0.112282
-0.0135725
0.0920406
0.203864
0.322882
0.449353
0.574039
0.6834
0.77498
0.850921
0.903277
0.90592
0.866863
0.786316
0.709987
0.685068
-0.364103
-0.347147
-0.291135
-0.215766
-0.125478
-0.0269921
0.0783079
0.189726
0.308194
0.433967
0.557755
0.665364
0.751989
0.816358
0.843942
0.827639
0.764444
0.660356
0.571384
0.547477
-0.376676
-0.360097
-0.304029
-0.228901
-0.138836
-0.0407023
0.0641317
0.174921
0.292506
0.417029
0.538959
0.642862
0.722203
0.77046
0.764138
0.726697
0.611306
0.486514
0.377492
0.348792
-0.389846
-0.373674
-0.317508
-0.24266
-0.152891
-0.055163
0.0491159
0.159122
0.275563
0.398321
0.517407
0.615707
0.687741
0.710698
0.676663
0.585494
0.427041
0.272491
0.141542
0.112604
-0.404111
-0.388152
-0.331838
-0.257293
-0.167839
-0.0705093
0.033176
0.142289
0.25736
0.377855
0.49301
0.584588
0.645838
0.639821
0.587218
0.434792
0.233621
0.0199119
-0.161031
-0.210678
-0.419616
-0.403772
-0.347133
-0.272793
-0.18363
-0.0867003
0.0163418
0.124453
0.237945
0.355719
0.465788
0.551057
0.597008
0.559252
0.471217
0.282114
0.0506206
-0.238329
-0.559137
-0.708366
-0.436408
-0.420464
-0.36345
-0.28929
-0.200361
-0.103818
-0.00146038
0.105547
0.217273
0.331946
0.43611
0.514661
0.542424
0.474263
0.336778
0.131199
-0.10225
-0.445457
-1.03023
-1.601
-0.454611
-0.438512
-0.380941
-0.306809
-0.218024
-0.121848
-0.0201992
0.085649
0.195501
0.306905
0.405043
0.475275
0.483979
0.399614
0.207477
-0.0255439
-0.227457
-0.460917
-1.01255
-2.51666
-0.474211
-0.45777
-0.399623
-0.325527
-0.236824
-0.141007
-0.040117
0.0644743
0.172298
0.280249
0.372338
0.432645
0.420533
0.341033
0.114278
-0.122634
-0.269924
-0.306616
-0.295102
-0.68016
-0.495176
-0.478656
-0.419781
-0.345686
-0.257115
-0.161778
-0.0618347
0.0412654
0.146732
0.250629
0.336976
0.386667
0.358414
0.290924
0.0647581
-0.136446
-0.246714
-0.254501
-0.20133
-0.241297
-0.517362
-0.500723
-0.441277
-0.367415
-0.279039
-0.184309
-0.0855178
0.0158286
0.118582
0.217929
0.299087
0.338702
0.303878
0.23675
0.0326423
-0.126703
-0.208687
-0.216692
-0.264598
-0.268528
-0.540745
-0.524249
-0.464193
-0.39064
-0.30254
-0.208618
-0.111217
-0.0118777
0.0878369
0.182514
0.258577
0.288642
0.256567
0.175738
0.00449767
-0.117325
-0.187141
-0.164471
-0.184772
-0.186401
-0.565014
-0.548262
-0.488192
-0.415339
-0.327528
-0.234636
-0.13886
-0.0417716
0.0546192
0.144698
0.215692
0.235106
0.215558
0.107771
-0.0307881
-0.112447
-0.150808
-0.19931
-0.173501
-0.182121
-0.590128
-0.572965
-0.513334
-0.441258
-0.353725
-0.262225
-0.168285
-0.073616
0.0190775
0.104795
0.171588
0.180483
0.172604
0.0471926
-0.0674533
-0.13091
-0.107613
-0.167524
-0.148369
-0.153313
-0.614868
-0.597515
-0.53929
-0.468125
-0.380844
-0.291136
-0.199191
-0.107125
-0.018609
0.0631581
0.127192
0.128589
0.120828
-0.00400473
-0.0942139
-0.144891
-0.133291
-0.148192
-0.153671
-0.151849
-0.639058
-0.621854
-0.56557
-0.495199
-0.408495
-0.321059
-0.231222
-0.141875
-0.0578727
0.0202222
0.0829898
0.0806936
0.0632966
-0.0464143
-0.107647
-0.13854
-0.177774
-0.149035
-0.154846
-0.149219
-0.661467
-0.644988
-0.590773
-0.521628
-0.436424
-0.35141
-0.263807
-0.17737
-0.0978942
-0.0237581
0.038616
0.0371835
0.007695
-0.0816785
-0.121419
-0.113615
-0.186712
-0.129554
-0.144661
-0.136886
-0.681666
-0.666293
-0.61415
-0.546251
-0.464166
-0.381481
-0.296345
-0.212981
-0.137647
-0.0682283
-0.00631205
-0.00316148
-0.0376983
-0.100824
-0.129283
-0.0887367
-0.133516
-0.116427
-0.122542
-0.119436
-0.69782
-0.684078
-0.634561
-0.568788
-0.490614
-0.410218
-0.32797
-0.24796
-0.176292
-0.112458
-0.0517801
-0.0410887
-0.0694389
-0.102075
-0.11982
-0.0963606
-0.110659
-0.11432
-0.115259
-0.115476
-0.709289
-0.697711
-0.651511
-0.588282
-0.514114
-0.436712
-0.357769
-0.281381
-0.213
-0.15517
-0.0961791
-0.0765101
-0.0930087
-0.0977337
-0.110525
-0.12351
-0.114683
-0.118708
-0.116659
-0.117424
-0.714512
-0.705365
-0.663359
-0.60368
-0.533528
-0.459808
-0.38476
-0.312269
-0.247031
-0.194738
-0.137306
-0.111448
-0.122238
-0.0982354
-0.102444
-0.137161
-0.114971
-0.122859
-0.116628
-0.11874
-0.713687
-0.70668
-0.66903
-0.61322
-0.547431
-0.478228
-0.407585
-0.339227
-0.277394
-0.229178
-0.173666
-0.145706
-0.147952
-0.115804
-0.0888407
-0.113597
-0.101462
-0.122236
-0.120833
-0.12391
-0.705793
-0.698489
-0.665898
-0.615817
-0.555344
-0.491061
-0.425265
-0.361008
-0.3025
-0.256978
-0.204405
-0.176745
-0.169673
-0.131606
-0.0738173
-0.0749481
-0.0933209
-0.108976
-0.114169
-0.116908
-0.685298
-0.6769
-0.652478
-0.609753
-0.5556
-0.497063
-0.436408
-0.375909
-0.320017
-0.275804
-0.226506
-0.202575
-0.20713
-0.25475
-0.335166
-0.409448
-0.420882
-0.3952
-0.36707
-0.345686
-0.642678
-0.634721
-0.626
-0.595599
-0.549619
-0.497081
-0.441312
-0.383493
-0.328163
-0.283287
-0.235472
-0.203821
-0.285028
-0.427781
-0.660747
-0.814261
-0.826605
-0.800672
-0.754517
-0.703664
-0.601531
-0.598632
-0.597681
-0.574079
-0.537365
-0.491417
-0.43935
-0.382968
-0.325377
-0.275708
-0.226884
-0.160386
-0.169807
-0.23455
-0.33908
-0.355743
-0.282652
-0.213655
-0.147892
-0.105867
-0.579064
-0.58072
-0.570632
-0.556324
-0.52677
-0.484519
-0.433723
-0.377026
-0.313566
-0.249681
-0.188562
-0.0695338
0.0829432
0.318994
0.54532
0.74752
0.898048
0.987387
1.02944
1.06793
-0.547834
-0.547551
-0.544286
-0.542683
-0.517621
-0.477729
-0.426464
-0.367115
-0.297335
-0.216242
-0.130313
0.00730757
0.22666
0.557779
0.885948
1.15705
1.34529
1.45964
1.51698
1.5355
-0.535398
-0.533535
-0.536242
-0.52972
-0.511853
-0.474472
-0.421386
-0.357537
-0.282039
-0.189138
-0.0864243
0.0422228
0.278646
0.60027
0.919751
1.19011
1.38924
1.50876
1.56151
1.57681
-0.523506
-0.522325
-0.525722
-0.518775
-0.50974
-0.47206
-0.418002
-0.351522
-0.27218
-0.173628
-0.0652794
0.0395969
0.258504
0.535087
0.808349
1.04488
1.22837
1.33846
1.38668
1.40016
-0.509995
-0.510056
-0.511016
-0.509989
-0.506593
-0.469111
-0.416017
-0.349079
-0.26889
-0.170846
-0.0662468
0.0139184
0.196499
0.429335
0.650563
0.840699
0.992557
1.0846
1.12442
1.13445
-0.495983
-0.496263
-0.494465
-0.495923
-0.491952
-0.466738
-0.418755
-0.351392
-0.272076
-0.179003
-0.0802869
-0.0181316
0.123933
0.318003
0.493766
0.638936
0.754949
0.826428
0.856787
0.864471
-0.489679
-0.488125
-0.482552
-0.480815
-0.47545
-0.4637
-0.421352
-0.354634
-0.278042
-0.193004
-0.099731
-0.0476181
0.0556193
0.214336
0.352281
0.461065
0.546468
0.599907
0.621822
0.626242
-0.505432
-0.502299
-0.497798
-0.49602
-0.493814
-0.482467
-0.426854
-0.356896
-0.281613
-0.205846
-0.118795
-0.0714107
-0.00209872
0.124644
0.231978
0.313188
0.37543
0.414908
0.430076
0.43511
-0.545524
-0.545626
-0.548195
-0.556556
-0.552969
-0.518914
-0.439389
-0.359687
-0.281655
-0.213541
-0.13414
-0.0892535
-0.0445529
0.054392
0.13584
0.195958
0.242717
0.273449
0.284227
0.287482
-0.573207
-0.57851
-0.591998
-0.603233
-0.594314
-0.535653
-0.442801
-0.356547
-0.275651
-0.213583
-0.143331
-0.101324
-0.0712523
0.00642986
0.0663452
0.109373
0.14471
0.166991
0.176296
0.178906
-0.517352
-0.521358
-0.537728
-0.548495
-0.542012
-0.489004
-0.410384
-0.332814
-0.258922
-0.203048
-0.144657
-0.107527
-0.0847853
-0.0240288
0.0189341
0.0493945
0.07343
0.0878375
0.0942931
0.0959617
-0.365459
-0.372406
-0.381895
-0.389242
-0.38686
-0.362223
-0.321983
-0.276217
-0.224499
-0.179981
-0.137827
-0.107654
-0.0878221
-0.0430366
-0.0128464
0.00793895
0.0228752
0.0312064
0.034208
0.0342678
-0.201879
-0.204949
-0.209952
-0.217078
-0.22157
-0.219554
-0.211264
-0.197319
-0.173129
-0.147917
-0.122527
-0.101497
-0.0839723
-0.0541159
-0.0341325
-0.0208575
-0.0123822
-0.00881383
-0.00843063
-0.00929155
-0.0709361
-0.0725791
-0.0762616
-0.0836445
-0.0938247
-0.104863
-0.115004
-0.121358
-0.118362
-0.112066
-0.100436
-0.0886024
-0.0760006
-0.0581987
-0.0465734
-0.0394249
-0.0359459
-0.0355913
-0.0369273
-0.0382011
0.0125159
0.0114164
0.00881481
0.00110976
-0.0129513
-0.0307935
-0.0483119
-0.0630879
-0.0715486
-0.0777679
-0.0754421
-0.0703485
-0.0654841
-0.0564804
-0.0514936
-0.0497107
-0.0498444
-0.0516109
-0.053687
-0.0550477
0.0532565
0.0525917
0.0506128
0.0435489
0.0292374
0.00987624
-0.00948666
-0.0266998
-0.0392081
-0.0502145
-0.0527271
-0.0525242
-0.0537514
-0.0510869
-0.0509582
-0.0527175
-0.0553357
-0.0583414
-0.0605637
-0.0618714
0.0681903
0.0676405
0.0659794
0.0600347
0.0476601
0.0301435
0.0116145
-0.0059648
-0.0196575
-0.0314733
-0.0354157
-0.038498
-0.0425353
-0.0437984
-0.0470547
-0.0508991
-0.0545484
-0.0577448
-0.0597921
-0.0609948
0.0686305
0.0682241
0.0669205
0.0623184
0.0526525
0.0385448
0.0226012
0.00609973
-0.00747475
-0.0193334
-0.0236901
-0.0280589
-0.0329448
-0.0365078
-0.0411324
-0.0457035
-0.049529
-0.0524424
-0.054138
-0.0551983
0.0623661
0.0620943
0.0611353
0.0577532
0.050568
0.039909
0.0272856
0.0132082
0.00100516
-0.0106994
-0.0155925
-0.020014
-0.0250067
-0.0292507
-0.0343129
-0.0388512
-0.0423453
-0.0448644
-0.0461341
-0.0470341
0.0534952
0.0533256
0.0526354
0.0502427
0.0450971
0.0372691
0.0277166
0.0165427
0.00671763
-0.00411415
-0.00942868
-0.0134953
-0.0181298
-0.0223498
-0.027176
-0.0312384
-0.0342703
-0.0364069
-0.0372958
-0.0380462
0.0441928
0.0441018
0.0436187
0.0419638
0.0383723
0.0327929
0.025751
0.017141
0.00976458
0.000532309
-0.00451529
-0.00783548
-0.0119253
-0.0159396
-0.0203633
-0.0239696
-0.026578
-0.0283657
-0.0290045
-0.0296329
0.0353466
0.0353135
0.0349948
0.0339086
0.0314518
0.0275361
0.0224849
0.0159925
0.0107425
0.00343458
-0.000617028
-0.00335932
-0.00693095
-0.0105249
-0.0144615
-0.0176294
-0.0198977
-0.0214568
-0.0219344
-0.0224412
0.0272452
0.027229
0.0270139
0.0263136
0.0246765
0.0219769
0.0184122
0.0135746
0.0100777
0.00460991
0.00194092
-5.54184e-05
-0.00324305
-0.00645978
-0.00985786
-0.0125469
-0.0144823
-0.0158124
-0.016201
-0.0166035
0.0199828
0.0199766
0.0198239
0.0193891
0.0183344
0.0165684
0.0141589
0.0105959
0.00839912
0.00437618
0.00283792
0.00171812
-0.000882197
-0.00355808
-0.00640343
-0.00856041
-0.0100669
-0.0110561
-0.0113068
-0.0116453
0.0135252
0.0135173
0.0134367
0.0132061
0.012592
0.0115307
0.0101096
0.00764497
0.00644422
0.00339802
0.00255907
0.00204969
6.03428e-05
-0.00183097
-0.00406558
-0.00559152
-0.00658514
-0.00723686
-0.00745333
-0.00775535
0.00766662
0.00765384
0.00763538
0.00757983
0.00731806
0.0067727
0.00613841
0.00455866
0.0041675
0.00201664
0.00160401
0.00155152
0.000130841
-0.000683985
-0.00240527
-0.00348896
-0.00411207
-0.00455616
-0.00458666
-0.00478345
0.00249879
0.00252517
0.00256739
0.00262226
0.00261201
0.00240114
0.00229902
0.00143612
0.00165051
0.000513331
0.000591184
0.000972307
8.45547e-05
0.000184269
-0.0012309
-0.00216959
-0.00298623
-0.0036144
-0.0034169
-0.003415
-1.07437
-0.238114
0.0318108
0.306713
0.486426
0.640177
0.763124
0.888654
1.02802
1.1124
-0.0977444
0.307202
0.322082
0.509273
0.631067
0.740342
0.834073
0.917822
0.944726
0.903245
0.275898
0.488405
0.52192
0.657595
0.741922
0.820412
0.885198
0.933892
0.935693
0.950107
0.503136
0.64465
0.679166
0.779574
0.836057
0.892644
0.936958
0.969032
0.977956
1.00175
0.679313
0.779564
0.809243
0.875723
0.920057
0.960371
0.992196
1.01634
1.02603
1.0577
0.821375
0.889513
0.919687
0.962008
0.997824
1.02765
1.05174
1.07245
1.08649
1.11485
0.939749
0.98994
1.01536
1.04307
1.0705
1.09412
1.11398
1.13321
1.14804
1.1746
1.04303
1.07985
1.10081
1.12133
1.14198
1.16129
1.17866
1.19675
1.21162
1.2353
1.13673
1.16574
1.18201
1.19722
1.21326
1.22929
1.24482
1.26172
1.27534
1.29766
1.22483
1.24525
1.26007
1.2732
1.28675
1.3005
1.314
1.32859
1.34013
1.35977
1.3102
1.32597
1.33978
1.35158
1.36349
1.37512
1.38626
1.39794
1.40561
1.42241
1.3954
1.40794
1.42165
1.43339
1.44403
1.45382
1.46265
1.47091
1.47447
1.4857
1.48414
1.49497
1.50844
1.51796
1.52553
1.53282
1.54001
1.54648
1.54758
1.55494
1.58255
1.58716
1.59535
1.60009
1.60348
1.60796
1.61395
1.62161
1.62551
1.63539
1.69584
1.68273
1.67544
1.66973
1.667
1.66834
1.67467
1.68703
1.70186
1.73153
1.81781
1.76177
1.73075
1.71356
1.70534
1.70527
1.71412
1.73374
1.76553
1.8348
)
;

boundaryField
{
    wall-4
    {
        type            zeroGradient;
    }
    pressure-outlet-7
    {
        type            fixedValue;
        value           uniform 0;
    }
    velocity-inlet-6
    {
        type            zeroGradient;
    }
    velocity-inlet-5
    {
        type            zeroGradient;
    }
    frontAndBackPlanes
    {
        type            empty;
    }
}


// ************************************************************************* //
