/*--------------------------------*- C++ -*----------------------------------*\
  =========                 |
  \\      /  F ield         | OpenFOAM: The Open Source CFD Toolbox
   \\    /   O peration     | Website:  https://openfoam.org
    \\  /    A nd           | Version:  10
     \\/     M anipulation  |
\*---------------------------------------------------------------------------*/
FoamFile
{
    format      ascii;
    class       surfaceScalarField;
    location    "63";
    object      phi;
}
// * * * * * * * * * * * * * * * * * * * * * * * * * * * * * * * * * * * * * //

dimensions      [0 3 -1 0 0 0 0];

internalField   nonuniform List<scalar> 
4262
(
0.107129
0.470859
0.0955553
0.70516
0.0693572
0.858501
0.0473301
1.02079
0.0309439
1.2149
0.0197365
1.44943
0.0123315
1.73327
0.00711657
2.07625
0.00311402
2.48925
-0.000642467
2.98605
-0.00424669
2.9859
-0.00801858
2.48902
-0.0130616
2.07608
-0.0202081
1.73301
-0.0311304
1.44914
-0.047168
1.21455
-0.0688988
1.02049
-0.0951744
0.858579
-0.107059
0.705471
0.470929
0.112871
0.357988
0.13528
0.682751
0.120388
0.873393
0.0978346
1.04334
0.0745713
1.23817
0.0528288
1.47117
0.0344073
1.75169
0.020168
2.09049
0.00892094
2.50049
-0.000988837
2.99596
-0.0111086
2.99602
-0.0223067
2.50021
-0.0363521
2.09012
-0.054699
1.75136
-0.0765601
1.471
-0.100349
1.23834
-0.123572
1.04372
-0.137048
0.872055
-0.113572
0.681995
0.357357
0.0920483
0.26594
0.124974
0.649825
0.121106
0.877261
0.104846
1.0596
0.0862102
1.2568
0.0670748
1.4903
0.0481097
1.77066
0.0300521
2.10855
0.0134727
2.51707
-0.00262801
3.01206
-0.0183713
3.01176
-0.0343457
2.51619
-0.051847
2.10763
-0.0702075
1.76972
-0.0884944
1.48929
-0.105657
1.2555
-0.119715
1.05778
-0.125187
0.877526
-0.0923363
0.649145
0.26502
0.0639772
0.201962
0.104797
0.609005
0.106564
0.875494
0.0951683
1.071
0.081235
1.27073
0.0664976
1.50504
0.0503742
1.78678
0.0331943
2.12573
0.01551
2.53476
-0.00307358
3.03064
-0.0216045
3.03029
-0.0390101
2.53359
-0.055484
2.1241
-0.0707626
1.785
-0.0846245
1.50315
-0.0983448
1.26923
-0.110096
1.06953
-0.107086
0.874517
-0.0649272
0.606986
0.200093
0.0374797
0.164483
0.0807167
0.565768
0.0909932
0.865217
0.0837844
1.07821
0.0711617
1.28336
0.0592822
1.51692
0.0462405
1.79982
0.0312931
2.14068
0.014323
2.55173
-0.00503291
3.05
-0.0237735
3.04903
-0.0395774
2.5494
-0.0534238
2.13795
-0.0654881
1.79706
-0.0767188
1.51438
-0.0886663
1.28117
-0.0950715
1.07593
-0.0832449
0.86269
-0.0384156
0.562156
0.161678
0.0194609
0.145022
0.0571851
0.528044
0.072563
0.849839
0.070449
1.08032
0.0616303
1.29218
0.0507395
1.52781
0.0395631
1.811
0.0268987
2.15334
0.0118357
2.56679
-0.00569402
3.06753
-0.0229844
3.06632
-0.0374188
2.56383
-0.0489897
2.14952
-0.058965
1.80704
-0.0688493
1.52427
-0.076474
1.2888
-0.0772413
1.0767
-0.0600549
0.845504
-0.0203878
0.522489
0.14129
0.0106024
0.134419
0.0422928
0.496354
0.0583733
0.833759
0.0586349
1.08006
0.0524738
1.29834
0.0430783
1.53721
0.0326503
1.82142
0.0212547
2.16474
0.00790352
2.58014
-0.00819918
3.08363
-0.0236835
3.08181
-0.0354782
2.57563
-0.0452108
2.15925
-0.0540296
1.81585
-0.0618893
1.53213
-0.066416
1.29332
-0.0644568
1.07474
-0.0460052
0.827053
-0.0117374
0.488221
0.129553
0.00656063
0.127859
0.0329124
0.470002
0.0491576
0.817514
0.0506549
1.07856
0.0455492
1.30344
0.0371726
1.54558
0.0275282
1.83107
0.016646
2.17562
0.00460185
2.59219
-0.00928501
3.09752
-0.0226679
3.09519
-0.0336269
2.58659
-0.0429004
2.16852
-0.0505744
1.82353
-0.0570475
1.5386
-0.0601942
1.29647
-0.0565081
1.07105
-0.0373191
0.807864
-0.00789704
0.458799
0.121656
0.00470035
0.123158
0.0265083
0.448194
0.0422652
0.801757
0.0443204
1.07651
0.0396499
1.30811
0.0319843
1.55325
0.0228212
1.84023
0.0121613
2.18628
0.000309498
2.60404
-0.0127654
3.11059
-0.0247532
3.10718
-0.0343825
2.59621
-0.0424823
2.17662
-0.0493493
1.8304
-0.0547171
1.54397
-0.0569367
1.29869
-0.0518194
1.06594
-0.0320704
0.788115
-0.00638551
0.433114
0.11527
0.00373515
0.119423
0.0216528
0.430276
0.0367825
0.786627
0.039503
1.07379
0.0350719
1.31254
0.0276085
1.56071
0.0187676
1.84907
0.00878175
2.19626
-0.00236134
2.61518
-0.0145689
3.1228
-0.025996
3.1186
-0.0354297
2.60565
-0.0429799
2.18417
-0.0489283
1.83634
-0.0536215
1.54866
-0.0548122
1.29988
-0.0484015
1.05953
-0.0283943
0.768107
-0.0058005
0.410521
0.10947
0.00303228
0.116391
0.0174763
0.415832
0.0313603
0.772743
0.0342864
1.07086
0.0301191
1.31671
0.0229589
1.56787
0.0143312
1.8577
0.00419213
2.2064
-0.00733539
2.62671
-0.0195094
3.13497
-0.0301992
3.12929
-0.0381471
2.6136
-0.0445698
2.1906
-0.0499273
1.8417
-0.0537014
1.55243
-0.0537837
1.29996
-0.0459127
1.05165
-0.0257074
0.747902
-0.00554061
0.390354
0.103929
0.00234678
0.114044
0.0137615
0.404417
0.0262841
0.760221
0.0293457
1.0678
0.0253083
1.32075
0.0181846
1.575
0.00964986
1.86624
3.03675e-05
2.21602
-0.010606
2.63734
-0.0224594
3.14683
-0.0331804
3.14001
-0.0414312
2.62185
-0.0473177
2.19648
-0.0514804
1.84586
-0.054128
1.55508
-0.0534501
1.29929
-0.0441644
1.04237
-0.0238313
0.727569
-0.00542615
0.371949
0.0985027
0.00169127
0.112353
0.010509
0.3956
0.0212869
0.749443
0.023846
1.06524
0.0196932
1.3249
0.012605
1.58209
0.00397756
1.87486
-0.00604028
2.22604
-0.017407
2.64871
-0.0294219
3.15884
-0.0392386
3.14983
-0.0456296
2.62824
-0.0502803
2.20113
-0.053859
1.84944
-0.0555678
1.55679
-0.0539034
1.29762
-0.043279
1.03174
-0.0226301
0.70692
-0.00536265
0.354681
0.0931401
0.000816516
0.111536
0.0070164
0.3894
0.016109
0.74035
0.0183186
1.06303
0.0139334
1.32929
0.00656216
1.58946
-0.00222282
1.88365
-0.0120613
2.23588
-0.0228056
2.65945
-0.034101
3.17014
-0.0438555
3.15959
-0.0505057
2.63489
-0.0544388
2.20507
-0.0570126
1.85202
-0.0576549
1.55743
-0.0550017
1.29497
-0.043001
1.01974
-0.0219265
0.685846
-0.00533917
0.338094
0.0878009
0.000127319
0.111409
0.0041442
0.385383
0.0108351
0.733659
0.0117543
1.06211
0.00672216
1.33432
-0.00115727
1.59734
-0.0105983
1.89309
-0.0211182
2.2464
-0.0324125
2.67075
-0.0437752
3.1815
-0.0521643
3.16797
-0.0567175
2.63944
-0.0595856
2.20793
-0.0615161
1.85395
-0.0613883
1.55731
-0.0571646
1.29074
-0.0435035
1.00608
-0.0217375
0.66408
-0.00539804
0.321754
0.0824029
-0.000850636
0.11226
0.000447754
0.384084
0.0051545
0.728953
0.00536338
1.0619
-0.00018044
1.33986
-0.00875188
1.60591
-0.0186411
1.90298
-0.0292508
2.25701
-0.0403974
2.6819
-0.0514325
3.19254
-0.059688
3.17623
-0.0643018
2.64406
-0.0662856
2.20992
-0.0672846
1.85495
-0.0661843
1.55621
-0.0603252
1.28488
-0.0447799
0.990538
-0.0220482
0.641348
-0.00554967
0.305256
0.0768532
-0.00170525
0.113965
-0.00261648
0.384996
-0.000755293
0.727092
-0.00249313
1.06364
-0.009172
1.34654
-0.0186666
1.6154
-0.0297408
1.91405
-0.0418562
2.26912
-0.0541172
2.69416
-0.0648712
3.20329
-0.0715477
3.18291
-0.0747385
2.64725
-0.0759185
2.2111
-0.0755322
1.85456
-0.0727007
1.55337
-0.0648653
1.27705
-0.0470759
0.972748
-0.0229339
0.617206
-0.00583507
0.288157
0.0710182
-0.0030747
0.11704
-0.00638605
0.388307
-0.00814587
0.728851
-0.0114953
1.06699
-0.0190452
1.35409
-0.0294609
1.62582
-0.0412191
1.92581
-0.0535316
2.28144
-0.0657059
2.70633
-0.0767981
3.21438
-0.0838167
3.18993
-0.0861983
2.64963
-0.0857188
2.21062
-0.0843573
1.8532
-0.0806875
1.5497
-0.0706587
1.26702
-0.0502799
0.952369
-0.0243054
0.591231
-0.00621348
0.270065
0.0648047
-0.00436715
0.121407
-0.0106016
0.394541
-0.0157132
0.733963
-0.0219348
1.07321
-0.0309498
1.36311
-0.0427708
1.63764
-0.0560899
1.93913
-0.0705927
2.29594
-0.0849329
2.72067
-0.0959751
3.22542
-0.100502
3.19445
-0.101182
2.65031
-0.100505
2.20994
-0.0972983
1.84999
-0.0910298
1.54344
-0.0783508
1.25434
-0.0547279
0.928747
-0.0262517
0.562755
-0.00671615
0.25053
0.0580885
-0.00581088
0.127218
-0.015653
0.404384
-0.0248989
0.743209
-0.0341259
1.08244
-0.0452706
1.37425
-0.0590628
1.65143
-0.0740442
1.95411
-0.0890539
2.31095
-0.102559
2.73418
-0.11322
3.23609
-0.118729
3.19996
-0.118907
2.65049
-0.115182
2.20622
-0.110579
1.84539
-0.103227
1.53608
-0.0872679
1.23838
-0.0598435
0.901322
-0.0284551
0.531367
-0.00721488
0.229289
0.0508736
-0.00812805
0.135346
-0.0224295
0.418685
-0.0368921
0.757672
-0.0494849
1.09503
-0.0626054
1.38737
-0.0783914
1.66722
-0.0953862
1.97111
-0.112945
2.32851
-0.129363
2.75059
-0.141222
3.24795
-0.143259
3.202
-0.140231
2.64746
-0.136091
2.20207
-0.129256
1.83855
-0.118346
1.52517
-0.0986741
1.21871
-0.0665017
0.86915
-0.0311541
0.496019
-0.00778413
0.205919
0.0430895
-0.0105471
0.145893
-0.0296226
0.43776
-0.0500402
0.778089
-0.0676655
1.11266
-0.0844737
1.40418
-0.103491
1.68623
-0.123402
1.99102
-0.142282
2.34739
-0.157306
2.76562
-0.165572
3.25621
-0.167181
3.20361
-0.163789
2.64407
-0.156536
2.19482
-0.148197
1.83021
-0.135391
1.51237
-0.110811
1.19413
-0.0730879
0.831427
-0.0336523
0.456583
-0.0082107
0.180478
0.0348788
-0.0153197
0.161213
-0.0420954
0.464536
-0.0696419
0.805636
-0.0921367
1.13515
-0.112341
1.42439
-0.134744
1.70864
-0.156912
2.01318
-0.177408
2.36788
-0.193875
2.78208
-0.203951
3.26629
-0.202997
3.20265
-0.194732
2.6358
-0.18542
2.18551
-0.173474
1.81827
-0.155514
1.49441
-0.125473
1.16409
-0.0811691
0.787123
-0.0363151
0.411729
-0.00857563
0.152738
0.0263032
-0.0193922
0.180605
-0.0547696
0.499914
-0.0919063
0.842772
-0.122314
1.16556
-0.148645
1.45072
-0.175511
1.7355
-0.200645
2.03832
-0.222068
2.38931
-0.236821
2.79684
-0.24048
3.26995
-0.234048
3.19622
-0.224474
2.62623
-0.212596
2.17363
-0.19872
1.80439
-0.177709
1.4734
-0.140341
1.12672
-0.0878455
0.734627
-0.0379589
0.361843
-0.00849906
0.123278
0.0178041
-0.0326327
0.213237
-0.0818107
0.549092
-0.129604
0.890565
-0.166352
1.20231
-0.197824
1.48219
-0.228825
1.7665
-0.254852
2.06435
-0.274988
2.40944
-0.286491
2.80834
-0.28752
3.27098
-0.278992
3.18769
-0.265064
2.6123
-0.249722
2.15829
-0.231119
1.78579
-0.20229
1.44457
-0.156497
1.08093
-0.0954968
0.673627
-0.0396247
0.305971
-0.00834871
0.0920024
0.00945542
-0.047046
0.260283
-0.120855
0.622901
-0.184642
0.954352
-0.230271
1.24794
-0.267949
1.51987
-0.299395
1.79795
-0.322857
2.08781
-0.339046
2.42563
-0.345907
2.8152
-0.340431
3.2655
-0.323082
3.17034
-0.303613
2.59283
-0.283953
2.13863
-0.261164
1.763
-0.226999
1.4104
-0.17057
1.0245
-0.0983036
0.60136
-0.0385211
0.246188
-0.00810449
0.0615858
0.00135093
-0.0340467
0.29433
-0.0977326
0.686587
-0.156407
1.01303
-0.204249
1.29578
-0.247751
1.56337
-0.286925
1.83712
-0.323718
2.1246
-0.356991
2.4589
-0.382531
2.84074
-0.395893
3.27886
-0.395913
3.17036
-0.386743
2.58366
-0.370753
2.12264
-0.343541
1.73579
-0.290643
1.3575
-0.207119
0.940977
-0.11114
0.505381
-0.0420248
0.177073
-0.00940904
0.02897
-0.00805811
-0.0125834
0.306914
-0.0476125
0.721616
-0.0898394
1.05525
-0.1297
1.33564
-0.169285
1.60295
-0.204638
1.87248
-0.237578
2.15754
-0.266091
2.48742
-0.286733
2.86138
-0.295765
3.28789
-0.289986
3.16459
-0.27259
2.56626
-0.248292
2.09834
-0.214528
1.70202
-0.169603
1.31258
-0.109347
0.88072
-0.0501581
0.446192
-0.0185777
0.145493
-0.00450666
0.014899
-0.0125648
7.77926e-05
0.306836
-0.0245217
0.746215
-0.0541106
1.08484
-0.0846344
1.36617
-0.116733
1.63505
-0.147816
1.90356
-0.176531
2.18625
-0.200456
2.51134
-0.216309
2.87724
-0.219766
3.29135
-0.20581
3.15063
-0.183546
2.544
-0.159073
2.07387
-0.130513
1.67347
-0.0906481
1.27271
-0.0462886
0.836361
-0.015875
0.415779
-0.00575915
0.135377
-0.0018716
0.0110114
-0.0144364
0.000721281
0.306114
-0.0130115
0.759948
-0.0342886
1.10612
-0.0588718
1.39075
-0.0850041
1.66118
-0.111216
1.92977
-0.135582
2.21062
-0.155883
2.53164
-0.168574
2.88993
-0.167535
3.29031
-0.15083
3.13393
-0.127869
2.52104
-0.100495
2.04649
-0.0674007
1.64037
-0.0349142
1.24023
-0.00864465
0.810091
0.00340536
0.403729
0.00247585
0.136307
0.000217319
0.01327
-0.014219
0.00452844
0.301586
-0.00425761
0.768734
-0.022481
1.12434
-0.0435352
1.4118
-0.0655301
1.68318
-0.0874646
1.95171
-0.108263
2.23142
-0.125104
2.54848
-0.134065
2.89889
-0.130567
3.28681
-0.114044
3.1174
-0.0895183
2.49651
-0.0613004
2.01828
-0.0348011
1.61387
-0.00623405
1.21166
0.014552
0.789305
0.0163632
0.401917
0.00870262
0.143967
0.00213338
0.0198392
-0.0120857
0.00521767
0.296368
-0.000672539
0.774624
-0.0162199
1.13989
-0.0343125
1.4299
-0.0535228
1.70239
-0.0728164
1.971
-0.0907886
2.24939
-0.105247
2.56294
-0.112925
2.90657
-0.108418
3.28231
-0.0898061
3.09879
-0.0664889
2.4732
-0.0405008
1.99229
-0.0107855
1.58416
0.0112738
1.1896
0.0222318
0.778347
0.0210141
0.403135
0.0112927
0.153689
0.00299165
0.0281403
-0.00909401
0.00455002
0.291818
0.000668012
0.778506
-0.0125504
1.15311
-0.02921
1.44656
-0.0464989
1.71968
-0.0635754
1.98808
-0.0797395
2.26555
-0.0930024
2.57621
-0.0998961
2.91346
-0.0951678
3.27758
-0.0789227
3.08255
-0.0555276
2.4498
-0.0280508
1.96481
-0.00559503
1.5617
0.0149124
1.16909
0.0260936
0.767166
0.0220542
0.407174
0.0119689
0.163774
0.00332719
0.036782
-0.00576682
0.00270793
0.28911
-0.000688183
0.781902
-0.0120408
1.16446
-0.0264318
1.46095
-0.0423067
1.73555
-0.0584586
2.00423
-0.0738635
2.28096
-0.0866047
2.58895
-0.0932435
2.9201
-0.0884044
3.27274
-0.071526
3.06567
-0.0496329
2.42791
-0.0278002
1.94298
-0.0023929
1.53629
0.0155596
1.15114
0.0227554
0.75997
0.0201547
0.409775
0.0111054
0.172823
0.00321785
0.0446695
-0.00254897
0.00115398
0.287956
-0.00165046
0.784707
-0.0122874
1.1751
-0.0258492
1.47451
-0.0408964
1.7506
-0.0559532
2.01929
-0.0704981
2.2955
-0.0827402
2.60119
-0.0894437
2.9268
-0.0864307
3.26973
-0.0723708
3.05161
-0.0511741
2.40671
-0.0266976
1.9185
-0.00780252
1.5174
0.00924102
1.1341
0.0191906
0.750021
0.0163977
0.412568
0.00927121
0.17995
0.00274869
0.0511921
0.000199723
-0.000479124
0.288436
-0.00485483
0.789083
-0.0140217
1.18426
-0.0259656
1.48645
-0.0400025
1.76464
-0.0546853
2.03397
-0.069155
2.30997
-0.0818028
2.61384
-0.0897309
2.93473
-0.0883803
3.26838
-0.0740646
3.03729
-0.0550271
2.38767
-0.0362001
1.89968
-0.0133117
1.49451
0.00339665
1.11739
0.0105608
0.742857
0.0112488
0.41188
0.00651208
0.184686
0.00209623
0.0556079
0.00229595
-0.00141666
0.289852
-0.00607789
0.793744
-0.0152857
1.19347
-0.0270539
1.49822
-0.0405852
1.77817
-0.0545617
2.04795
-0.0686742
2.32409
-0.0815752
2.62674
-0.0903518
2.94351
-0.0908272
3.26885
-0.0795795
3.02604
-0.0611816
2.36928
-0.0392228
1.87772
-0.0225082
1.4778
-0.00684681
1.10173
0.00423665
0.731773
0.00564838
0.410468
0.00389012
0.186445
0.0014328
0.0580652
0.00372875
-0.00300843
0.292861
-0.00849358
0.799229
-0.0171097
1.20209
-0.0278801
1.50899
-0.0406106
1.7909
-0.0544182
2.06175
-0.0688406
2.33851
-0.0825268
2.64042
-0.0927753
2.95376
-0.095676
3.27175
-0.0858569
3.01622
-0.0688773
2.3523
-0.0513585
1.8602
-0.0298387
1.45628
-0.0137209
1.08561
-0.00437341
0.722426
0.000670801
0.405424
0.00117503
0.185941
0.000662836
0.0585774
0.00439158
-0.00381399
0.296675
-0.00922363
0.804639
-0.0180209
1.21089
-0.0289385
1.51991
-0.0415053
1.80346
-0.0548976
2.07515
-0.0691604
2.35277
-0.0832434
2.65451
-0.0947979
2.96531
-0.100089
3.27704
-0.0931837
3.00932
-0.0773401
2.33645
-0.0554568
1.83831
-0.0384052
1.43922
-0.0219355
1.06914
-0.00865078
0.709141
-0.00340918
0.400183
-0.000613536
0.183145
0.000164951
0.057799
0.00455653
-0.00425432
0.300929
-0.0107182
0.811102
-0.0192764
1.21944
-0.029463
1.5301
-0.0414556
1.81546
-0.0547701
2.08846
-0.0693727
2.36737
-0.0842232
2.66936
-0.0972707
2.97836
-0.104862
3.28463
-0.100791
3.00525
-0.0863598
2.32202
-0.0680463
1.82
-0.0443435
1.41552
-0.025781
1.05058
-0.013644
0.697004
-0.00555778
0.392096
-0.00168631
0.179273
-0.000171147
0.0562838
0.00438539
-0.00422092
0.30515
-0.0107651
0.817647
-0.0195384
1.22822
-0.0299359
1.54049
-0.0419303
1.82745
-0.0549686
2.1015
-0.0694046
2.38181
-0.084586
2.68454
-0.0990633
2.99284
-0.109471
3.29504
-0.108777
3.00455
-0.0950015
2.30825
-0.0717346
1.79673
-0.0507268
1.39451
-0.0297172
1.02957
-0.0130483
0.680335
-0.00561405
0.384662
-0.00171658
0.175376
-0.000505683
0.0550729
0.0038797
-0.00440245
0.309552
-0.0116087
0.824853
-0.0201297
1.23674
-0.029913
1.55028
-0.0413862
1.83892
-0.0543035
2.11442
-0.0690015
2.39651
-0.0848946
2.70043
-0.100709
3.00865
-0.113071
3.3074
-0.114856
3.00634
-0.103499
2.29689
-0.0846447
1.77788
-0.0552941
1.36516
-0.02943
1.0037
-0.0119304
0.662835
-0.000797287
0.373529
0.00230061
0.172278
0.00154089
0.0558326
0.0054206
-0.004353
0.313905
-0.0113079
0.831808
-0.0198267
1.24526
-0.029741
1.56019
-0.0411978
1.85038
-0.0538812
2.1271
-0.0684005
2.41103
-0.0845124
2.71654
-0.101471
3.02561
-0.11653
3.32246
-0.122258
3.01207
-0.112545
2.28718
-0.0888171
1.75415
-0.0612205
1.33757
-0.0289176
0.971401
-0.00364717
0.637565
0.00831297
0.361569
0.00657836
0.174013
-0.0010574
0.0634684
0.0043632
-0.00448311
0.318388
-0.0117347
0.839059
-0.0199099
1.25343
-0.0292156
1.5695
-0.0401229
1.86129
-0.0526111
2.13959
-0.0672786
2.4257
-0.083936
2.7332
-0.101935
3.04361
-0.118642
3.33917
-0.126764
3.02019
-0.120532
2.28094
-0.102867
1.73649
-0.0671354
1.30183
-0.0260627
0.930329
0.00987212
0.60163
0.0362198
0.335221
0.0439103
0.166322
0.0277504
0.0796283
0.0321136
-0.00433309
0.322721
-0.0111799
0.845906
-0.0192196
1.26147
-0.0285342
1.57881
-0.0393553
1.87211
-0.0516011
2.15183
-0.0660235
2.44012
-0.082712
2.74989
-0.101478
3.06237
-0.120452
3.35814
-0.132058
3.0318
-0.129937
2.27882
-0.108693
1.71524
-0.0753552
1.2685
-0.0264788
0.881452
0.0216258
0.553525
0.0595257
0.297321
0.0523212
0.173527
0.0229098
0.10904
0.0550233
-0.0042724
0.326994
-0.0112698
0.852904
-0.0189464
1.26915
-0.0276397
1.5875
-0.0379196
1.88239
-0.0498895
2.1638
-0.0643145
2.45454
-0.0813449
2.76692
-0.100872
3.0819
-0.121237
3.37851
-0.134641
3.0452
-0.136763
2.28094
-0.124638
1.70312
-0.0869482
1.23081
-0.0322084
0.826712
0.039357
0.48196
0.136148
0.20053
0.202594
0.107081
0.184851
0.126782
0.239874
-0.00409796
0.331092
-0.0107392
0.859545
-0.0184432
1.27685
-0.0274179
1.59648
-0.0381136
1.89309
-0.0505663
2.17626
-0.0657688
2.46975
-0.0841934
2.78534
-0.106252
3.10396
-0.131152
3.40341
-0.151155
3.0652
-0.159465
2.28925
-0.145723
1.68938
-0.11201
1.19709
-0.0475803
0.762283
0.0110856
0.423294
-0.0522126
0.263828
-0.354486
0.409354
-0.944504
0.716801
0.9017
-1.60633
-0.00398487
0.335077
-0.0107557
0.866316
-0.0182156
1.28431
-0.0267941
1.60506
-0.0371845
1.90348
-0.0497232
2.18879
-0.065486
2.48551
-0.0850881
2.80495
-0.109175
3.12805
-0.137537
3.43177
-0.16205
3.08972
-0.175448
2.30265
-0.179853
1.69378
-0.152981
1.17022
-0.118547
0.727849
-0.217506
0.522253
-0.693887
0.740209
-1.45099
1.16646
-2.05645
1.32226
1.21598
-2.37073
-0.00373837
0.338815
-0.0100088
0.872586
-0.0173033
1.29161
-0.0259528
1.61371
-0.036463
1.91399
-0.0491554
2.20149
-0.0652308
2.50158
-0.0855671
2.82528
-0.111387
3.15387
-0.14354
3.46392
-0.175245
3.12142
-0.198329
2.32574
-0.202994
1.69845
-0.184862
1.15209
-0.270098
0.813085
-0.752923
1.00508
-1.55517
1.54245
-2.11498
1.72627
-2.35288
1.56016
1.32968
-2.46659
-0.00362697
0.342442
-0.00983279
0.878792
-0.0168189
1.29859
-0.0250352
1.62192
-0.035179
1.92413
-0.0478675
2.21418
-0.0643681
2.51808
-0.0857453
2.84666
-0.113556
3.18168
-0.149577
3.49994
-0.187027
3.15887
-0.216622
2.35533
-0.240155
1.72198
-0.313713
1.22565
-0.677516
1.17689
-1.44359
1.77116
-2.03044
2.1293
-2.26921
1.96504
-2.38188
1.67282
1.3933
-2.4455
-0.00330258
0.345745
-0.0089207
0.88441
-0.015631
1.3053
-0.0238201
1.63011
-0.0340705
1.93438
-0.0468562
2.22696
-0.0635622
2.53479
-0.0855269
2.86862
-0.114932
3.21108
-0.154624
3.53964
-0.200177
3.20442
-0.24312
2.39828
-0.280823
1.75968
-0.461725
1.40655
-1.09606
1.81122
-1.79232
2.46742
-2.10994
2.44692
-2.2573
2.1124
-2.33913
1.75465
1.45932
-2.40514
-0.00330861
0.349053
-0.00909435
0.890196
-0.0157545
1.31196
-0.0237738
1.63813
-0.0340364
1.94464
-0.0470638
2.23999
-0.0643777
2.5521
-0.0875183
2.89177
-0.118965
3.24253
-0.162651
3.58332
-0.214529
3.2563
-0.259778
2.44352
-0.346132
1.84603
-0.741208
1.80163
-1.49263
2.56265
-1.96321
2.938
-2.16286
2.64657
-2.2688
2.21834
-2.34597
1.83182
1.52256
-2.40921
-0.00336183
0.352415
-0.00910796
0.895942
-0.0161618
1.31902
-0.0248687
1.64684
-0.0359062
1.95568
-0.0496917
2.25377
-0.0678303
2.57024
-0.0920607
2.916
-0.125422
3.27589
-0.172918
3.63082
-0.230473
3.31386
-0.292558
2.50561
-0.478871
2.03235
-1.04571
2.36847
-1.67983
3.19676
-1.95295
3.21111
-2.0994
2.79302
-2.21315
2.33209
-2.30675
1.92542
1.5841
-2.36829
-0.00350779
0.355923
-0.00995595
0.90239
-0.0174029
1.32646
-0.0263014
1.65574
-0.0375639
1.96694
-0.0519011
2.26811
-0.0710115
2.58935
-0.0968039
2.94179
-0.132439
3.31152
-0.184136
3.68252
-0.247296
3.37702
-0.331538
2.58985
-0.613215
2.31402
-1.26398
3.01923
-1.75145
3.68424
-1.9584
3.41806
-2.09775
2.93237
-2.22149
2.45583
-2.33164
2.03557
1.64269
-2.39023
-0.00342871
0.359352
-0.00970939
0.908671
-0.0176562
1.33441
-0.0274533
1.66553
-0.0396618
1.97915
-0.0548622
2.28331
-0.0748685
2.60936
-0.101757
2.96868
-0.139241
3.34901
-0.193994
3.73727
-0.262165
3.44519
-0.386902
2.71459
-0.773944
2.70107
-1.41029
3.65558
-1.76113
4.03509
-1.93364
3.59057
-2.03521
3.03393
-2.12365
2.54427
-2.1904
2.10233
1.63532
-2.18303
-0.00346459
0.362816
-0.0106267
0.915833
-0.0190389
1.34282
-0.0289849
1.67548
-0.0413962
1.99156
-0.0571558
2.29907
-0.078165
2.63037
-0.10668
2.99719
-0.146378
3.38871
-0.203834
3.79473
-0.282753
3.52411
-0.451804
2.88364
-0.904871
3.15413
-1.46139
4.21209
-1.72229
4.29599
-1.87345
3.74173
-1.96673
3.12722
-1.96757
2.54512
-1.89777
2.03252
1.59822
-1.86067
-0.00321691
0.366033
-0.00991552
0.922531
-0.0187869
1.35169
-0.0297172
1.68641
-0.0430962
2.00494
-0.059551
2.31553
-0.0810117
2.65183
-0.109719
3.0259
-0.149684
3.42867
-0.206359
3.8514
-0.2922
3.60995
-0.497087
3.08853
-0.988156
3.6452
-1.42836
4.6523
-1.5926
4.46023
-1.65928
3.80841
-1.66352
3.13146
-1.51575
2.39734
-1.01603
1.5328
0.582196
-0.00285003
0.368883
-0.0107299
0.930411
-0.0201539
1.36112
-0.0312547
1.69751
-0.0450825
2.01877
-0.0626226
2.33307
-0.085977
2.67518
-0.117718
3.05764
-0.161935
3.47289
-0.226154
3.91562
-0.329561
3.71335
-0.583255
3.34222
-1.123
4.18495
-1.48032
5.00962
-1.57944
4.55935
-1.57721
3.80618
-1.47338
3.02763
-1.23456
2.15853
-0.630767
0.928999
-0.0485703
-0.00253104
0.371414
-0.0091824
0.937063
-0.0189767
1.37091
-0.0314793
1.71001
-0.0469424
2.03423
-0.0661306
2.35225
-0.091422
2.70048
-0.125584
3.0918
-0.173943
3.52125
-0.243618
3.98529
-0.36627
3.83601
-0.681311
3.65726
-1.24172
4.74535
-1.50137
5.26927
-1.55961
4.61759
-1.53698
3.78355
-1.3351
2.82574
-0.781574
1.60501
-0.108395
0.255821
-0.156966
-0.0015861
0.373
-0.00962748
0.945104
-0.019927
1.38121
-0.0323707
1.72246
-0.0480199
2.04988
-0.0681419
2.37238
-0.0952789
2.72761
-0.13263
3.12915
-0.18505
3.57367
-0.263702
4.06395
-0.413119
3.98542
-0.785088
4.02923
-1.31948
5.27975
-1.49504
5.44483
-1.52618
4.64873
-1.43776
3.69513
-1.10043
2.48842
-0.312449
0.817023
0.0247214
-0.0813502
-0.132244
-0.00094102
0.373941
-0.00661344
0.950776
-0.0168849
1.39148
-0.0308491
1.73642
-0.0482226
2.06726
-0.0700424
2.3942
-0.0991608
2.75673
-0.138701
3.16869
-0.19384
3.62881
-0.28014
4.15025
-0.455475
4.16076
-0.893778
4.46753
-1.36481
5.75079
-1.48085
5.56086
-1.4831
4.65098
-1.25818
3.4702
-0.685258
1.91549
-0.0627151
0.19448
0.030091
-0.174156
-0.102153
3.57247e-05
0.373905
-0.00615636
0.956968
-0.0166105
1.40194
-0.0302158
1.75003
-0.0472414
2.08428
-0.0697362
2.41669
-0.100355
2.78735
-0.14255
3.21089
-0.201369
3.68763
-0.297582
4.24646
-0.499452
4.36263
-0.987464
4.95555
-1.36021
6.12353
-1.42394
5.6246
-1.37756
4.6046
-1.08927
3.18192
-0.321857
1.14808
0.00483951
-0.132216
0.0149123
-0.184229
-0.0872409
0.00328944
0.370616
0.000580709
0.959677
-0.0102068
1.41273
-0.0254176
1.76524
-0.0439202
2.10278
-0.0680703
2.44084
-0.100404
2.81968
-0.144241
3.25472
-0.205545
3.74893
-0.309192
4.35011
-0.536887
4.59032
-1.04916
5.46782
-1.32426
6.39863
-1.36497
5.66531
-1.22452
4.46416
-0.769829
2.72722
-0.0678663
0.446115
0.0445545
-0.244637
0.0242454
-0.16392
-0.0629955
0.00427157
0.366344
0.00219127
0.961757
-0.00776473
1.42268
-0.0215887
1.77906
-0.0389391
2.12013
-0.0633461
2.46525
-0.0964027
2.85274
-0.142017
3.30034
-0.206193
3.81311
-0.318493
4.46241
-0.576512
4.84834
-1.07163
5.96293
-1.26125
6.58826
-1.26987
5.67392
-1.0499
4.24419
-0.459414
2.13673
-0.0185107
0.00521173
-0.0067307
-0.256417
0.00475433
-0.175405
-0.0582412
0.00869462
0.35765
0.0102218
0.96023
0.00327656
1.42963
-0.0107071
1.79305
-0.0295587
2.13899
-0.0550274
2.49072
-0.088946
2.88666
-0.134947
3.34634
-0.200592
3.87875
-0.318584
4.5804
-0.598048
5.1278
-1.0486
6.41348
-1.17216
6.71182
-1.15649
5.65826
-0.896253
3.98395
-0.262692
1.50317
-0.0703091
-0.187171
-0.0388321
-0.287894
-0.0143949
-0.199842
-0.072636
0.0112884
0.346361
0.0156405
0.955878
0.0104851
1.43478
0.00030116
1.80323
-0.0180853
2.15737
-0.0423869
2.51502
-0.0754918
2.91976
-0.121581
3.39243
-0.187982
3.94515
-0.31045
4.70287
-0.597265
5.41462
-0.984902
6.80112
-1.0497
6.77661
-0.979672
5.58824
-0.675691
3.67996
-0.0697694
0.897252
0.0153689
-0.27231
0.00058275
-0.273108
-0.00153302
-0.197726
-0.074169
0.0185386
0.327823
0.0303546
0.944062
0.0293817
1.43576
0.0183322
1.81428
0.000459978
2.17524
-0.0222457
2.53772
-0.0545888
2.95211
-0.0992404
3.43708
-0.164134
4.01005
-0.28597
4.82471
-0.566393
5.69504
-0.872896
7.10762
-0.907458
6.81117
-0.804874
5.48565
-0.444162
3.31925
0.068351
0.384739
0.0787572
-0.282716
0.0582975
-0.252648
0.0223733
-0.161802
-0.0517957
0.0241791
0.303644
0.0420153
0.926226
0.0448801
1.43289
0.0381219
1.82104
0.0257081
2.18766
0.00423639
2.5592
-0.025468
2.98181
-0.0673252
3.47894
-0.128973
4.07169
-0.244871
4.9406
-0.493682
5.94385
-0.714141
7.32808
-0.742919
6.83995
-0.638508
5.38124
-0.306211
2.98696
-0.000320955
0.0788487
0.0188133
-0.30185
0.0296504
-0.263485
0.0148678
-0.14702
-0.0369279
0.0352407
0.268403
0.0655752
0.895891
0.0769453
1.42152
0.0737859
1.8242
0.0630553
2.19839
0.043978
2.57827
0.0168327
3.00896
-0.021486
3.51725
-0.0770727
4.12728
-0.176981
5.04051
-0.381101
6.14797
-0.537167
7.48415
-0.558715
6.8615
-0.460415
5.28294
-0.182613
2.70915
-0.0722241
-0.03154
-0.054315
-0.319759
-0.0214156
-0.296385
-0.00314311
-0.165292
-0.040071
0.0446449
0.223758
0.0868925
0.853644
0.106807
1.40161
0.111293
1.81971
0.107036
2.20265
0.0929622
2.59235
0.0717655
3.03015
0.0399563
3.54906
-0.0103067
4.17754
-0.0854903
5.1157
-0.222172
6.28465
-0.311989
7.57396
-0.323081
6.87259
-0.265946
5.2258
-0.0755784
2.51879
-0.0912597
-0.0158587
-0.0697645
-0.341254
-0.0264296
-0.33972
0.00227239
-0.193994
-0.0377985
0.0582221
0.165536
0.12102
0.790846
0.158162
1.36446
0.170924
1.80695
0.171091
2.20248
0.161319
2.60212
0.146694
3.04478
0.124095
3.57166
0.0886556
4.21298
0.040737
5.16361
-0.015527
6.34092
-0.0485423
7.60698
-0.051304
6.87535
-0.0179837
5.19248
0.0419111
2.45889
-0.0976928
0.123745
-0.0970295
-0.341918
-0.0418541
-0.394895
0.0140935
-0.249942
-0.023705
0.060279
0.105257
0.150736
0.700389
0.207008
1.30819
0.233976
1.77998
0.245796
2.19066
0.244804
2.60311
0.237938
3.05164
0.22619
3.58341
0.208987
4.23019
0.189201
5.1834
0.240462
6.28966
0.283805
7.56364
0.285267
6.87389
0.167943
5.30981
-0.093432
2.72027
-0.351279
0.381592
-0.380249
-0.312947
-0.284114
-0.491031
-0.118478
-0.415578
-0.142183
0.050077
0.05518
0.184247
0.566219
0.280629
1.21181
0.326942
1.73367
0.34706
2.17054
0.354826
2.59534
0.355435
3.05104
0.357429
3.58142
0.36033
4.22729
0.375477
5.16825
0.521995
6.14314
0.667942
7.41769
0.658298
6.88354
0.467202
5.50091
-0.0446501
3.23212
-0.563601
0.900542
-0.670746
-0.205802
-0.522635
-0.639141
-0.276372
-0.661841
-0.418555
0.0344339
0.0207461
0.219146
0.381507
0.345463
1.08549
0.422942
1.65619
0.465349
2.12813
0.4882
2.57249
0.495695
3.04354
0.510902
3.56621
0.5389
4.19929
0.59785
5.1093
0.847727
5.89326
1.21944
7.04598
1.43673
6.66625
1.54129
5.39635
1.11456
3.65885
0.343588
1.67152
-0.20539
0.343177
-0.432313
-0.412218
-0.275919
-0.818235
-0.694474
0.0306925
-0.00994644
0.236592
0.175607
0.449172
0.872911
0.564346
1.54102
0.615263
2.07722
0.649355
2.5384
0.670882
3.02201
0.696196
3.5409
0.747132
4.14835
0.862281
4.99415
1.22814
5.5274
1.86292
6.4112
2.22903
6.30014
2.46824
5.15714
2.34491
3.78217
1.702
2.31443
1.02455
1.02064
0.431791
0.180537
0.113796
-0.50024
-0.580678
0.0248354
-0.0347818
0.160797
0.0396461
0.494832
0.538875
0.692588
1.34326
0.793727
1.97608
0.842652
2.48948
0.878492
2.98617
0.90725
3.51214
0.98081
4.07479
1.11927
4.8557
1.50983
5.13684
2.29495
5.62608
2.69061
5.90447
2.87315
4.9746
2.7433
3.91202
2.24233
2.8154
1.61087
1.6521
1.06069
0.730718
0.434574
0.125874
-0.146104
0.00338159
-0.0381634
0.080687
-0.0376593
0.413962
0.2056
0.711779
1.04544
0.849638
1.83822
0.890924
2.44819
0.897625
2.97947
0.880932
3.52883
0.879743
4.07598
0.922704
4.81273
1.07826
4.98129
1.52184
5.1825
1.69986
5.72646
1.74123
4.93322
1.65659
3.99666
1.41933
3.05266
1.0316
2.03982
0.62301
1.13931
0.258313
0.490571
0.112209
0.00417205
-0.0423354
0.045467
-0.0789543
0.220014
0.0310531
0.544864
0.720594
0.715477
1.6676
0.775515
2.38815
0.793229
2.96176
0.78865
3.53341
0.770416
4.09422
0.789393
4.79376
0.863764
4.90691
1.16322
4.88304
1.35158
5.53811
1.36383
4.92096
1.30188
4.05861
1.13929
3.21525
0.848635
2.33048
0.530779
1.45717
0.224671
0.796679
0.33688
0.0050735
-0.0474089
0.0236817
-0.0975624
0.0957437
-0.041009
0.376908
0.439429
0.572801
1.47171
0.657599
2.30336
0.674251
2.94511
0.671656
3.536
0.648106
4.11777
0.646882
4.79498
0.675611
4.87819
0.851288
4.70736
1.02941
5.35998
1.02658
4.92379
0.9673
4.11789
0.845093
3.33746
0.640332
2.53524
0.395819
1.70168
0.159351
1.03315
0.496231
-0.00544603
-0.0419629
-0.00435784
-0.0986506
0.0295778
-0.0749446
0.236225
0.232783
0.432932
1.275
0.536024
2.20026
0.56077
2.92036
0.55962
3.53715
0.531664
4.14572
0.512419
4.81423
0.517899
4.87271
0.620177
4.60508
0.755498
5.22466
0.746653
4.93264
0.684765
4.17978
0.588549
3.43367
0.444421
2.67937
0.264368
1.88173
0.0963398
1.20118
0.592571
-0.0142401
-0.0277228
-0.0122237
-0.100667
0.0128355
-0.100004
0.14127
0.104348
0.320593
1.09568
0.407792
2.11307
0.435939
2.89221
0.44101
3.53208
0.423591
4.16314
0.401096
4.83672
0.389108
4.88469
0.445357
4.54883
0.534562
5.13546
0.525542
4.94166
0.466683
4.23864
0.389403
3.51095
0.286375
2.78239
0.162563
2.00555