/*--------------------------------*- C++ -*----------------------------------*\
  =========                 |
  \\      /  F ield         | OpenFOAM: The Open Source CFD Toolbox
   \\    /   O peration     | Website:  https://openfoam.org
    \\  /    A nd           | Version:  10
     \\/     M anipulation  |
\*---------------------------------------------------------------------------*/
FoamFile
{
    format      ascii;
    class       volVectorField;
    location    "63";
    object      U;
}
// * * * * * * * * * * * * * * * * * * * * * * * * * * * * * * * * * * * * * //

dimensions      [0 1 -1 0 0 0 0];

internalField   nonuniform List<vector> 
2200
(
(0.878846 -0.0304103 0)
(1.00579 -0.0512774 0)
(1.00328 -0.035387 0)
(1.00028 -0.0244239 0)
(0.999895 -0.0166385 0)
(1.00004 -0.0107124 0)
(1.00002 -0.0068169 0)
(0.999982 -0.00418343 0)
(0.999917 -0.00216336 0)
(1.0002 -0.000594904 0)
(1.0001 0.00113979 0)
(1.00028 0.00262659 0)
(1.00033 0.00452956 0)
(1.00024 0.00711881 0)
(1.00015 0.0108491 0)
(1.00007 0.0166674 0)
(1.00037 0.0243758 0)
(1.00347 0.0348551 0)
(1.00599 0.0513822 0)
(0.879056 0.0302942 0)
(0.712028 -0.0327642 0)
(0.996654 -0.0630095 0)
(1.03333 -0.056156 0)
(1.02491 -0.0464212 0)
(1.01587 -0.0361099 0)
(1.00963 -0.0263646 0)
(1.00592 -0.0181271 0)
(1.0038 -0.0114005 0)
(1.00269 -0.00603345 0)
(1.00212 -0.00160001 0)
(1.00186 0.00249048 0)
(1.00208 0.00701454 0)
(1.00327 0.0123092 0)
(1.00548 0.0189003 0)
(1.00932 0.0272118 0)
(1.01543 0.0369582 0)
(1.02455 0.0474703 0)
(1.03315 0.0580185 0)
(0.996708 0.0631376 0)
(0.711774 0.0330385 0)
(0.535563 -0.0238927 0)
(0.969929 -0.0569303 0)
(1.05645 -0.0547239 0)
(1.05228 -0.0487518 0)
(1.0363 -0.0404263 0)
(1.02449 -0.0322632 0)
(1.01592 -0.0239808 0)
(1.0104 -0.0160951 0)
(1.00712 -0.00880671 0)
(1.00554 -0.00212039 0)
(1.00583 0.0043542 0)
(1.00746 0.0107956 0)
(1.01051 0.0177961 0)
(1.01583 0.0254642 0)
(1.02417 0.0334238 0)
(1.03621 0.0413936 0)
(1.05228 0.0493902 0)
(1.05632 0.0532335 0)
(0.969216 0.0576475 0)
(0.534405 0.0239372 0)
(0.392358 -0.0136451 0)
(0.911856 -0.0463783 0)
(1.05753 -0.0468792 0)
(1.06956 -0.0442786 0)
(1.05487 -0.0381409 0)
(1.03934 -0.0314571 0)
(1.02756 -0.0246713 0)
(1.0191 -0.0174487 0)
(1.01378 -0.00995279 0)
(1.01118 -0.00242864 0)
(1.01069 0.00502641 0)
(1.01283 0.0125595 0)
(1.01807 0.0198426 0)
(1.02652 0.0266924 0)
(1.03842 0.0331218 0)
(1.05394 0.0395953 0)
(1.06814 0.0456761 0)
(1.05547 0.0483247 0)
(0.909885 0.0470076 0)
(0.389914 0.0137808 0)
(0.307755 -0.00451347 0)
(0.846781 -0.0323769 0)
(1.04943 -0.0399234 0)
(1.07951 -0.0381738 0)
(1.06825 -0.0335119 0)
(1.05172 -0.027898 0)
(1.03836 -0.022481 0)
(1.02812 -0.016415 0)
(1.02099 -0.00951705 0)
(1.01701 -0.00184416 0)
(1.0171 0.00613501 0)
(1.0208 0.013346 0)
(1.02752 0.0197265 0)
(1.03736 0.0254124 0)
(1.05026 0.0303326 0)
(1.06669 0.0356537 0)
(1.07774 0.0400167 0)
(1.04733 0.0417475 0)
(0.842996 0.0329663 0)
(0.303729 0.00473871 0)
(0.264343 0.000101305 0)
(0.78908 -0.0200693 0)
(1.03346 -0.0314529 0)
(1.08361 -0.0320211 0)
(1.07734 -0.0287322 0)
(1.06088 -0.0238303 0)
(1.04724 -0.0193457 0)
(1.03638 -0.014242 0)
(1.0286 -0.00816445 0)
(1.02429 -0.00121531 0)
(1.02362 0.00607886 0)
(1.02703 0.0128551 0)
(1.03435 0.0186188 0)
(1.04501 0.0231472 0)
(1.05864 0.0271454 0)
(1.07489 0.0315679 0)
(1.08034 0.0342559 0)
(1.0292 0.0333539 0)
(0.782584 0.0207332 0)
(0.258715 0.000122028 0)
(0.240424 0.00107135 0)
(0.738484 -0.0122689 0)
(1.01378 -0.0249589 0)
(1.08412 -0.0267172 0)
(1.0831 -0.0244244 0)
(1.06789 -0.0202847 0)
(1.05433 -0.0162677 0)
(1.0434 -0.0117202 0)
(1.03512 -0.00632341 0)
(1.03003 0.00014893 0)
(1.02976 0.00691258 0)
(1.03413 0.0128211 0)
(1.0416 0.0174189 0)
(1.05176 0.0213798 0)
(1.06477 0.0247103 0)
(1.07947 0.0281417 0)
(1.0799 0.0297392 0)
(1.00753 0.0272617 0)
(0.728855 0.013157 0)
(0.233065 -0.000832383 0)
(0.226128 0.000960725 0)
(0.695654 -0.00802664 0)
(0.99322 -0.0207174 0)
(1.0823 -0.023084 0)
(1.0869 -0.0212328 0)
(1.07343 -0.0176647 0)
(1.06 -0.0138456 0)
(1.04945 -0.00955702 0)
(1.04155 -0.00459884 0)
(1.03679 0.00100476 0)
(1.03585 0.00699769 0)
(1.03889 0.0122027 0)
(1.04577 0.0166961 0)
(1.05582 0.0200633 0)
(1.0692 0.0230849 0)
(1.08191 0.0258168 0)
(1.07567 0.0267675 0)
(0.983277 0.0234521 0)
(0.681763 0.00912345 0)
(0.216611 -0.000712036 0)
(0.216571 0.000622799 0)
(0.660292 -0.00566117 0)
(0.972717 -0.0175951 0)
(1.0796 -0.0201528 0)
(1.09034 -0.0185621 0)
(1.0783 -0.0154004 0)
(1.06488 -0.0117583 0)
(1.05431 -0.00753077 0)
(1.04626 -0.00264637 0)
(1.04099 0.00284279 0)
(1.04016 0.00813721 0)
(1.04408 0.0129678 0)
(1.05081 0.0164998 0)
(1.06013 0.0197816 0)
(1.07255 0.0224579 0)
(1.08342 0.0245943 0)
(1.07089 0.0250632 0)
(0.959215 0.0210268 0)
(0.641666 0.00707702 0)
(0.204515 -0.000334745 0)
(0.209418 0.000299618 0)
(0.631805 -0.00420145 0)
(0.953953 -0.0149848 0)
(1.0766 -0.0179088 0)
(1.09348 -0.0165566 0)
(1.08303 -0.0135862 0)
(1.06965 -0.00991877 0)
(1.05928 -0.00587667 0)
(1.05163 -0.00126021 0)
(1.0468 0.0036861 0)
(1.04533 0.00882782 0)
(1.04732 0.0131397 0)
(1.0531 0.017035 0)
(1.06249 0.0197647 0)
(1.0755 0.0221719 0)
(1.08437 0.0239206 0)
(1.06382 0.0238511 0)
(0.93437 0.0191471 0)
(0.606691 0.0059432 0)
(0.194041 4.37407e-05 0)
(0.203593 8.51742e-05 0)
(0.608514 -0.00314016 0)
(0.93594 -0.012533 0)
(1.07345 -0.0155407 0)
(1.09688 -0.0143781 0)
(1.08777 -0.0115964 0)
(1.07415 -0.00806414 0)
(1.06327 -0.00394828 0)
(1.05496 0.000808112 0)
(1.04939 0.00599287 0)
(1.04786 0.0107215 0)
(1.05098 0.0148352 0)
(1.05718 0.0177036 0)
(1.06607 0.0204287 0)
(1.07798 0.0225491 0)
(1.08471 0.0237484 0)
(1.05715 0.0230564 0)
(0.910643 0.0176246 0)
(0.576428 0.00527956 0)
(0.184415 0.000321452 0)
(0.199084 1.14687e-05 0)
(0.590458 -0.00227537 0)
(0.920715 -0.0101928 0)
(1.07058 -0.0133735 0)
(1.10021 -0.0123034 0)
(1.09266 -0.00958047 0)
(1.07911 -0.00596245 0)
(1.0683 -0.00204746 0)
(1.06023 0.00243388 0)
(1.05481 0.00720663 0)
(1.05241 0.0120405 0)
(1.05354 0.0160245 0)
(1.0586 0.0193044 0)
(1.06772 0.0213218 0)
(1.08021 0.0229938 0)
(1.08442 0.0238405 0)
(1.0478 0.0225639 0)
(0.885823 0.0164272 0)
(0.548654 0.00492232 0)
(0.174919 0.000495179 0)
(0.195501 2.72013e-05 0)
(0.575707 -0.00155709 0)
(0.906125 -0.00810789 0)
(1.06778 -0.0110093 0)
(1.10382 -0.00989736 0)
(1.09766 -0.00714137 0)
(1.08393 -0.00358486 0)
(1.07237 0.000479904 0)
(1.06315 0.00514921 0)
(1.05666 0.0103295 0)
(1.05419 0.014908 0)
(1.05641 0.0184186 0)
(1.06215 0.0206385 0)
(1.07076 0.0225752 0)
(1.08165 0.0238878 0)
(1.08363 0.0242854 0)
(1.03892 0.0223805 0)
(0.862024 0.0155863 0)
(0.523551 0.00475147 0)
(0.165747 0.000580595 0)
(0.193437 6.43705e-05 0)
(0.565307 -0.000759409 0)
(0.894994 -0.0058701 0)
(1.06562 -0.00867763 0)
(1.1075 -0.00743361 0)
(1.10286 -0.00459269 0)
(1.08914 -0.000851884 0)
(1.07762 0.00311518 0)
(1.06866 0.00763732 0)
(1.06208 0.0123729 0)
(1.05831 0.0168644 0)
(1.05848 0.0204326 0)
(1.06283 0.0228982 0)
(1.0716 0.0241239 0)
(1.08272 0.0249918 0)
(1.08159 0.0249578 0)
(1.02671 0.0225336 0)
(0.836356 0.0150856 0)
(0.498947 0.00468948 0)
(0.156416 0.000619496 0)
(0.192594 0.00010748 0)
(0.557856 -0.00020143 0)
(0.884711 -0.00386573 0)
(1.06392 -0.00594516 0)
(1.11149 -0.00442418 0)
(1.10823 -0.00127832 0)
(1.09448 0.00260828 0)
(1.08217 0.00687446 0)
(1.07182 0.0116391 0)
(1.06365 0.0166394 0)
(1.05989 0.0209138 0)
(1.06098 0.023642 0)
(1.06603 0.0251418 0)
(1.07418 0.0262999 0)
(1.08263 0.026737 0)
(1.07909 0.0262209 0)
(1.01496 0.0231246 0)
(0.811447 0.014902 0)
(0.475783 0.00474096 0)
(0.147303 0.000640369 0)
(0.193222 8.81932e-05 0)
(0.553695 0.000857127 0)
(0.87863 -0.00151328 0)
(1.0635 -0.00330588 0)
(1.11608 -0.00142863 0)
(1.11417 0.00186446 0)
(1.10025 0.0060379 0)
(1.08772 0.0103789 0)
(1.07745 0.0150992 0)
(1.06944 0.0199644 0)
(1.06394 0.0241433 0)
(1.06242 0.026947 0)
(1.06546 0.0284223 0)
(1.07365 0.0288835 0)
(1.08262 0.0290429 0)
(1.07436 0.0280304 0)
(0.999298 0.0240349 0)
(0.784034 0.0150861 0)
(0.451816 0.00489385 0)
(0.137741 0.000658943 0)
(0.19533 0.000244174 0)
(0.55398 0.00153313 0)
(0.87385 0.000572059 0)
(1.06419 -4.30602e-05 0)
(1.12119 0.00219947 0)
(1.12044 0.0059567 0)
(1.10648 0.0105058 0)
(1.09322 0.0155189 0)
(1.08159 0.0208661 0)
(1.07138 0.0259816 0)
(1.0653 0.0297111 0)
(1.06465 0.0316641 0)
(1.06843 0.0326898 0)
(1.0756 0.0329418 0)
(1.08077 0.0322123 0)
(1.06918 0.0304171 0)
(0.983802 0.0255254 0)
(0.756783 0.0156352 0)
(0.428189 0.00517296 0)
(0.128085 0.000687283 0)
(0.19955 0.000674356 0)
(0.556701 0.00236579 0)
(0.874285 0.00338993 0)
(1.06682 0.00342576 0)
(1.12723 0.00632833 0)
(1.12748 0.0103526 0)
(1.11304 0.0153785 0)
(1.09907 0.0205579 0)
(1.08683 0.0258924 0)
(1.07634 0.0309035 0)
(1.06865 0.034962 0)
(1.06502 0.0369574 0)
(1.06607 0.0373716 0)
(1.07315 0.0366225 0)
(1.07916 0.0360753 0)
(1.06131 0.033478 0)
(0.963616 0.0274119 0)
(0.726023 0.0165739 0)
(0.402511 0.00555082 0)
(0.11756 0.000714111 0)
(0.206004 0.000877961 0)
(0.56357 0.0034817 0)
(0.878138 0.00584121 0)
(1.07157 0.00758014 0)
(1.13411 0.0111007 0)
(1.13533 0.0158305 0)
(1.12065 0.0213659 0)
(1.10596 0.027433 0)
(1.0925 0.0337794 0)
(1.07998 0.0395828 0)
(1.07041 0.042787 0)
(1.06674 0.0436631 0)
(1.0685 0.0435324 0)
(1.07398 0.0431824 0)
(1.07501 0.0409383 0)
(1.05238 0.0374086 0)
(0.94305 0.0300858 0)
(0.694342 0.0178897 0)
(0.376006 0.00604304 0)
(0.106568 0.000749705 0)
(0.214454 0.00105981 0)
(0.574766 0.00477238 0)
(0.886428 0.00903471 0)
(1.07926 0.0122409 0)
(1.14259 0.0169336 0)
(1.14425 0.0223658 0)
(1.12869 0.0288984 0)
(1.11275 0.0353823 0)
(1.09758 0.0416563 0)
(1.08294 0.0467504 0)
(1.07172 0.0504231 0)
(1.06583 0.0516905 0)
(1.06494 0.0510019 0)
(1.06943 0.0485702 0)
(1.0712 0.0468165 0)
(1.04019 0.0420914 0)
(0.916323 0.0330395 0)
(0.657736 0.0195044 0)
(0.346291 0.00655425 0)
(0.0943958 0.000766459 0)
(0.226889 0.00141539 0)
(0.593335 0.00670637 0)
(0.90168 0.013298 0)
(1.09031 0.0183809 0)
(1.15284 0.0238944 0)
(1.15476 0.0303174 0)
(1.13818 0.0375918 0)
(1.12068 0.0450608 0)
(1.10369 0.0525182 0)
(1.08751 0.0590569 0)
(1.07395 0.0622406 0)
(1.06645 0.0613979 0)
(1.06525 0.0597822 0)
(1.06867 0.0578257 0)
(1.06401 0.0539259 0)
(1.02591 0.0478163 0)
(0.888343 0.037137 0)
(0.618938 0.0214821 0)
(0.31479 0.00713267 0)
(0.0816074 0.000784439 0)
(0.242479 0.00194854 0)
(0.616222 0.00853169 0)
(0.922029 0.0178518 0)
(1.10561 0.0252388 0)
(1.16544 0.0326735 0)
(1.16674 0.0403313 0)
(1.14828 0.0491789 0)
(1.12874 0.0575396 0)
(1.10924 0.0651429 0)
(1.08935 0.0703561 0)
(1.07226 0.0720861 0)
(1.06357 0.0720529 0)
(1.06064 0.0697273 0)
(1.06142 0.0657936 0)
(1.05697 0.061989 0)
(1.00754 0.0544189 0)
(0.851991 0.041076 0)
(0.573065 0.0234995 0)
(0.279108 0.00759634 0)
(0.0675824 0.000771698 0)
(0.264684 0.00282173 0)
(0.649871 0.0123659 0)
(0.951535 0.0249324 0)
(1.12555 0.0351474 0)
(1.18077 0.043618 0)
(1.18104 0.0532664 0)
(1.16026 0.0630573 0)
(1.13787 0.0723736 0)
(1.11505 0.0805475 0)
(1.09268 0.0865723 0)
(1.07458 0.0891539 0)
(1.06278 0.086462 0)
(1.058 0.0823655 0)
(1.0589 0.07809 0)
(1.04533 0.0717237 0)
(0.985111 0.0618877 0)
(0.81328 0.046319 0)
(0.524431 0.0257843 0)
(0.2416 0.00799173 0)
(0.053272 0.000752305 0)
(0.29583 0.00371888 0)
(0.694696 0.0154305 0)
(0.990199 0.0327985 0)
(1.15209 0.046566 0)
(1.19987 0.0581368 0)
(1.19749 0.0698037 0)
(1.17304 0.0814443 0)
(1.14737 0.0916002 0)
(1.12148 0.099931 0)
(1.09521 0.104368 0)
(1.07137 0.103223 0)
(1.05758 0.0996381 0)
(1.05213 0.0952272 0)
(1.04803 0.0891198 0)
(1.03346 0.0821703 0)
(0.957803 0.0704614 0)
(0.763288 0.0509126 0)
(0.465493 0.027503 0)
(0.199286 0.00804287 0)
(0.0379822 0.000645362 0)
(0.3323 0.00709469 0)
(0.752688 0.0247634 0)
(1.03953 0.0466082 0)
(1.18441 0.0646637 0)
(1.22248 0.0775618 0)
(1.21576 0.0923616 0)
(1.1866 0.10489 0)
(1.15652 0.115198 0)
(1.12556 0.122364 0)
(1.09458 0.125278 0)
(1.06995 0.123942 0)
(1.0546 0.118987 0)
(1.04645 0.111839 0)
(1.04302 0.104489 0)
(1.01509 0.0948295 0)
(0.922881 0.079038 0)
(0.708972 0.0565215 0)
(0.405348 0.0294015 0)
(0.157216 0.00793211 0)
(0.0240623 0.00059011 0)
(0.412429 0.0107086 0)
(0.840403 0.0357088 0)
(1.10594 0.0675742 0)
(1.22484 0.0903404 0)
(1.24949 0.106626 6.1971e-34)
(1.23571 0.123139 -2.79826e-34)
(1.20018 0.135567 0)
(1.16527 0.144562 0)
(1.13045 0.15014 0)
(1.09636 0.150746 0)
(1.06666 0.145535 0)
(1.0474 0.136461 0)
(1.03782 0.127953 0)
(1.0267 0.118461 0)
(0.995055 0.106721 0)
(0.882013 0.0885316 0)
(0.640392 0.0601716 0)
(0.329877 0.0291349 0)
(0.107847 0.00736742 0)
(0.00864861 0.000758788 0)
(0.483501 0.0258867 4.53393e-20)
(0.942708 0.0599692 -3.43562e-20)
(1.17688 0.101996 0)
(1.26648 0.129191 2.67153e-20)
(1.27802 0.144769 -2.16645e-20)
(1.25489 0.163318 2.95243e-34)
(1.21249 0.173906 0)
(1.17233 0.180818 1.57728e-20)
(1.13161 0.183471 -5.18253e-20)
(1.09109 0.180566 1.05904e-20)
(1.05792 0.171932 0)
(1.0386 0.16205 -2.69452e-20)
(1.0272 0.151335 -3.24073e-20)
(1.01638 0.140138 5.67522e-20)
(0.960595 0.124818 -4.4822e-20)
(0.814773 0.0978785 0)
(0.543931 0.0631917 -1.61172e-20)
(0.242433 0.0276753 0)
(0.0582224 0.00700576 -8.90469e-20)
(-0.00789726 0.000421474 1.04945e-19)
(0.519844 0.0537937 -5.97812e-21)
(1.0082 0.102489 1.01594e-19)
(1.22824 0.152723 -5.34528e-21)
(1.30064 0.177155 -6.51197e-20)
(1.30296 0.194682 -4.57944e-20)
(1.27078 0.211394 7.4512e-20)
(1.22189 0.219147 0)
(1.17596 0.22331 0)
(1.13003 0.223356 8.23585e-20)
(1.0858 0.217698 0)
(1.05002 0.207413 9.71123e-20)
(1.02552 0.194153 2.89124e-20)
(1.00889 0.180288 5.01904e-22)
(0.982655 0.164853 -6.15813e-20)
(0.918278 0.14362 0)
(0.750023 0.112112 0)
(0.466142 0.0663292 -2.62377e-19)
(0.183211 0.0258213 6.59808e-19)
(0.0259895 0.00503307 -3.90016e-19)
(-0.0195871 -0.00141708 -4.59337e-19)
(0.527025 0.0765124 -5.53888e-20)
(1.04375 0.159689 2.14908e-20)
(1.26417 0.212891 1.19888e-20)
(1.32728 0.236368 1.13288e-19)
(1.32257 0.252469 1.45847e-20)
(1.283 0.264675 -1.93893e-19)
(1.22843 0.268394 6.62708e-20)
(1.17734 0.269016 0)
(1.12607 0.265366 -1.73965e-19)
(1.07609 0.255946 1.54893e-19)
(1.03407 0.24134 -2.62078e-19)
(1.0058 0.22375 1.22883e-19)
(0.988367 0.208071 -7.96723e-20)
(0.964908 0.192751 1.79615e-19)
(0.884577 0.16827 0)
(0.702895 0.125449 -6.54404e-20)
(0.418934 0.0712358 0)
(0.162416 0.0263292 3.60018e-19)
(0.0160794 0.00352092 -8.53081e-19)
(-0.0238616 -0.00330672 5.34107e-19)
(0.523745 0.108158 1.46163e-19)
(1.06702 0.217434 -6.47929e-20)
(1.28731 0.278661 -1.40784e-20)
(1.34479 0.301293 0)
(1.33496 0.31498 -8.40525e-20)
(1.29011 0.322025 1.03823e-19)
(1.23084 0.320924 -7.08133e-20)
(1.17468 0.317282 0)
(1.11838 0.309805 1.23569e-19)
(1.06417 0.296473 -1.0878e-19)
(1.01863 0.277134 2.26582e-19)
(0.989241 0.257591 0)
(0.967557 0.240168 -1.6925e-19)
(0.931611 0.219079 9.53911e-20)
(0.851085 0.188481 2.40042e-19)
(0.670021 0.141561 -2.11206e-19)
(0.399755 0.0804415 3.33603e-19)
(0.158906 0.0299066 -7.37824e-19)
(0.0155446 0.00310292 4.66752e-19)
(-0.0249912 -0.00508892 -5.83864e-19)
(0.51052 0.132169 -4.50891e-20)
(1.07153 0.269946 3.19815e-20)
(1.29706 0.343702 -4.69789e-20)
(1.35384 0.366947 9.61984e-20)
(1.34093 0.378722 -9.23446e-20)
(1.29251 0.380558 3.2505e-20)
(1.2296 0.374732 3.74812e-21)
(1.16972 0.366846 -1.38893e-19)
(1.10971 0.354616 -1.29192e-19)
(1.05152 0.336272 -2.33141e-19)
(1.00232 0.313482 -4.87161e-19)
(0.966911 0.291317 -1.50339e-19)
(0.943227 0.270807 2.21348e-21)
(0.914118 0.248944 -3.26463e-19)
(0.826808 0.217083 -5.2274e-21)
(0.647616 0.159697 3.07244e-19)
(0.392431 0.091761 -9.2266e-20)
(0.16332 0.0365057 -5.3429e-20)
(0.0224442 0.00394506 0)
(-0.0225455 -0.00579456 1.24138e-18)
(0.494975 0.153454 0)
(1.06895 0.321095 -7.91753e-22)
(1.30032 0.407797 -6.72169e-21)
(1.35626 0.431178 -1.29318e-20)
(1.34079 0.441455 8.83233e-20)
(1.28988 0.438992 -7.62882e-20)
(1.22428 0.428762 7.70544e-20)
(1.16132 0.416283 2.28179e-19)
(1.09793 0.399822 -7.18917e-20)
(1.03577 0.377253 1.14947e-19)
(0.981707 0.349917 2.61847e-19)
(0.946168 0.324439 3.27826e-19)
(0.920642 0.302678 -1.97561e-19)
(0.879871 0.276832 3.5362e-19)
(0.798186 0.23789 -2.80269e-19)
(0.627864 0.1811 0)
(0.38824 0.106821 -7.0064e-19)
(0.173109 0.0455433 9.4306e-19)
(0.0338106 0.00770131 7.03835e-20)
(-0.0175691 -0.00553519 -1.31326e-18)
(0.478593 0.172897 -5.10702e-21)
(1.05761 0.367459 -1.6483e-20)
(1.29611 0.467664 4.84983e-20)
(1.35337 0.493012 -7.18938e-20)
(1.33613 0.50267 7.43525e-20)
(1.28355 0.495943 -7.33193e-20)
(1.21602 0.481571 1.51997e-19)
(1.15063 0.465179 -6.79919e-20)
(1.08389 0.444474 -2.90128e-19)
(1.01746 0.417403 -2.84845e-22)
(0.961194 0.38645 -2.8491e-19)
(0.922327 0.359095 -3.52995e-19)
(0.893717 0.33275 2.18382e-19)
(0.861356 0.306769 -1.27232e-19)
(0.775877 0.268216 3.05082e-19)
(0.612356 0.200818 0)
(0.386575 0.123265 -4.35679e-19)
(0.18255 0.055881 6.43498e-19)
(0.0450283 0.0128317 1.21697e-18)
(-0.0121091 -0.00455746 -1.43119e-18)
(0.46528 0.191012 -9.15566e-20)
(1.0476 0.413601 4.03945e-20)
(1.2898 0.526169 -2.80775e-20)
(1.34681 0.552282 7.38464e-20)
(1.32792 0.560866 1.21804e-20)
(1.27398 0.550821 -1.43109e-19)
(1.20463 0.533134 -8.85973e-20)
(1.13684 0.512965 -8.77475e-20)
(1.0676 0.488503 -1.64269e-19)
(0.999427 0.457529 2.64214e-19)
(0.941223 0.422363 2.87629e-19)
(0.900254 0.390665 5.60084e-19)
(0.870275 0.3637 0)
(0.827665 0.334609 6.4898e-21)
(0.749384 0.288712 -8.39181e-19)
(0.595779 0.223511 1.96959e-19)
(0.384227 0.139844 9.45679e-19)
(0.190967 0.0674443 -2.79094e-19)
(0.055897 0.019075 5.79034e-19)
(-0.00648448 -0.00290921 -4.82448e-20)
(0.453372 0.208001 5.82914e-21)
(1.03279 0.454341 5.93129e-20)
(1.27925 0.580034 -7.24839e-21)
(1.3372 0.608691 7.24603e-20)
(1.31698 0.617124 -1.39426e-19)
(1.26196 0.603685 1.41496e-19)
(1.19138 0.582614 9.16888e-20)
(1.12231 0.559073 2.61479e-19)
(1.05127 0.530863 3.28895e-19)
(0.979801 0.495589 -3.05997e-19)
(0.918018 0.457304 0)
(0.874237 0.423182 -2.1238e-19)
(0.843409 0.392285 2.43838e-19)
(0.809756 0.36163 3.08171e-19)
(0.728681 0.318678 -1.78364e-19)
(0.580863 0.242794 -4.33655e-19)
(0.38088 0.156732 -1.29202e-19)
(0.19718 0.0791049 -1.99132e-21)
(0.0647794 0.0256849 0)
(-0.001552 -0.00103053 0)
(0.445477 0.224529 -8.46409e-20)
(1.02196 0.495818 0)
(1.26851 0.632655 8.02864e-21)
(1.32563 0.662453 -1.62541e-20)
(1.30424 0.669758 1.60428e-19)
(1.24843 0.653674 -4.03467e-20)
(1.17685 0.630075 9.31501e-20)
(1.10633 0.603482 -1.76677e-19)
(1.0333 0.572264 2.49379e-19)
(0.959969 0.534021 -1.01293e-19)
(0.896398 0.492227 1.65109e-19)
(0.852265 0.453581 6.74212e-19)
(0.819557 0.422037 1.43548e-20)
(0.776503 0.388289 -3.21716e-19)
(0.703293 0.336509 5.9587e-19)
(0.563365 0.265093 3.57235e-21)
(0.375457 0.172411 1.38228e-19)
(0.200304 0.0907161 -6.58958e-19)
(0.0708586 0.0317877 6.79056e-19)
(0.0022945 0.000790271 -7.99982e-19)
(0.437759 0.241008 2.46852e-23)
(1.008 0.532025 0)
(1.25524 0.680446 0)
(1.31245 0.713247 1.87262e-21)
(1.29018 0.720464 -4.63607e-20)
(1.23372 0.701625 6.55002e-20)
(1.16146 0.675213 -1.72214e-19)
(1.09012 0.645868 0)
(1.01555 0.611709 -3.68052e-19)
(0.939562 0.569943 4.43735e-19)
(0.872921 0.524433 4.72199e-19)
(0.825906 0.483564 -2.4757e-19)
(0.792495 0.447956 -3.0024e-19)
(0.758418 0.411892 7.04276e-19)
(0.681754 0.364649 -2.11942e-19)
(0.546188 0.281477 -2.52584e-19)
(0.366919 0.18707 -1.51029e-19)
(0.199592 0.100319 -7.12167e-19)
(0.0739107 0.0368947 1.04404e-19)
(0.00499908 0.00229163 8.66208e-19)
(0.432937 0.258632 -4.09174e-20)
(0.997995 0.569507 -5.50308e-20)
(1.24264 0.727217 2.37304e-20)
(1.29854 0.761357 -2.02418e-22)
(1.27553 0.767385 -5.14097e-20)
(1.21861 0.746419 1.03307e-19)
(1.1457 0.718104 0)
(1.0732 0.686415 1.07208e-19)
(0.996884 0.649875 -8.45343e-20)
(0.919475 0.60581 7.41103e-19)
(0.85108 0.557518 -1.06659e-19)
(0.803301 0.51283 1.22701e-19)
(0.768732 0.475235 0)
(0.725538 0.435871 -3.81486e-19)
(0.655689 0.377835 4.62404e-19)
(0.527002 0.300511 0)
(0.356691 0.199199 -3.25181e-19)
(0.196306 0.108432 9.57188e-19)
(0.0740232 0.0407843 1.13779e-19)
(0.00643727 0.00327114 -1.06783e-18)
(0.42949 0.275759 -1.01885e-19)
(0.986016 0.602123 1.29721e-19)
(1.22852 0.769258 0)
(1.28402 0.806358 2.38579e-20)
(1.26036 0.812517 0)
(1.20289 0.789408 -1.36249e-19)
(1.12948 0.758765 0)
(1.05635 0.724834 0)
(0.978802 0.68605 -1.1273e-19)
(0.898925 0.639379 -7.04662e-19)
(0.827327 0.587574 -8.73365e-19)
(0.776428 0.539796 1.43885e-19)
(0.741115 0.497905 5.1985e-19)
(0.707002 0.455453 4.20601e-19)
(0.633808 0.402406 -1.48409e-18)
(0.508111 0.311469 -5.93481e-19)
(0.344521 0.209824 3.4794e-19)
(0.190437 0.114468 0)
(0.0723785 0.0430206 9.75793e-19)
(0.0068355 0.00390867 -1.15104e-18)
(0.427684 0.291324 1.20655e-19)
(0.977494 0.63601 -1.49897e-19)
(1.21559 0.810665 0)
(1.26944 0.848861 -1.13062e-20)
(1.24514 0.853941 -3.93703e-21)
(1.18734 0.829172 0)
(1.11352 0.797122 5.32647e-20)
(1.03953 0.761461 7.49282e-20)
(0.960616 0.720944 -2.11531e-19)
(0.879507 0.672582 9.3211e-20)
(0.806177 0.61827 0)
(0.753702 0.567525 5.96374e-19)
(0.717166 0.522747 5.93433e-21)
(0.67343 0.476206 2.2701e-19)
(0.607689 0.409404 2.6935e-19)
(0.487882 0.325287 0)
(0.331876 0.216699 -5.66787e-19)
(0.183112 0.118535 1.11036e-18)
(0.0695906 0.0441627 -1.17762e-18)
(0.00655499 0.00420964 2.47878e-18)
(0.426061 0.306178 0)
(0.966874 0.66512 0)
(1.20178 0.847422 -7.39262e-20)
(1.2548 0.88834 0)
(1.22989 0.893766 0)
(1.17162 0.867393 -1.09752e-19)
(1.0975 0.833466 5.44889e-20)
(1.0232 0.796015 1.78294e-20)
(0.943307 0.753896 -4.81727e-20)
(0.859486 0.703689 0)
(0.782416 0.646862 -1.33454e-19)
(0.726349 0.592642 -4.86521e-19)
(0.687664 0.541877 -5.86501e-19)
(0.654015 0.49071 -2.36037e-19)
(0.585127 0.429309 2.91672e-19)
(0.468579 0.329016 -6.87092e-19)
(0.319175 0.221286 1.21993e-18)
(0.17554 0.119715 1.6118e-21)
(0.0663169 0.044726 -1.12669e-18)
(0.00619812 0.00448969 -1.67181e-19)
(0.424976 0.320375 0)
(0.959328 0.69594 -1.21396e-19)
(1.1894 0.883995 8.97424e-20)
(1.24046 0.925707 0)
(1.21497 0.930129 0)
(1.15652 0.902455 2.18537e-19)
(1.08228 0.867539 0)
(1.00733 0.828896 0)
(0.926105 0.785612 -4.64642e-19)
(0.840893 0.734307 1.29655e-19)
(0.762158 0.675591 -1.18333e-18)
(0.703666 0.618167 0)
(0.663342 0.565362 -6.38384e-19)
(0.618576 0.508104 1.02245e-20)
(0.557421 0.428299 -9.39095e-19)
(0.448144 0.335448 3.69493e-19)
(0.307713 0.22054 1.25225e-21)
(0.171475 0.117592 -1.26989e-18)
(0.0645628 0.043033 6.06194e-19)
(0.00429028 0.00235823 1.78824e-19)
(0.423706 0.334368 0)
(0.949963 0.722247 -1.65199e-19)
(1.17644 0.916142 9.45137e-20)
(1.22643 0.960246 1.30568e-19)
(1.20038 0.965112 -7.13289e-21)
(1.14158 0.936249 2.167e-20)
(1.0672 0.899868 -3.11183e-20)
(0.992032 0.859822 4.40201e-19)
(0.90988 0.815408 4.97035e-19)
(0.822063 0.762942 9.86767e-19)
(0.739283 0.702863 9.83165e-19)
(0.676211 0.642471 1.73207e-19)
(0.631586 0.58267 9.18233e-19)
(0.596673 0.517887 5.67888e-19)
(0.531907 0.442508 6.73925e-19)
(0.428326 0.32819 -4.04271e-19)
(0.2956 0.213338 -4.66062e-19)
(0.171613 0.114277 5.47175e-19)
(0.0717061 0.0503119 -3.25891e-19)
(0.0114081 0.0115624 5.79491e-19)
(0.422842 0.347864 2.31e-19)
(0.943433 0.75036 2.58938e-19)
(1.16494 0.948561 5.43328e-20)
(1.21286 0.993078 1.56133e-20)
(1.18632 0.996934 -1.11158e-20)
(1.12746 0.967018 -6.03486e-20)
(1.05312 0.929983 2.97402e-20)
(0.977394 0.88919 -1.92861e-20)
(0.893972 0.844077 -5.79185e-19)
(0.804836 0.791147 -1.07124e-18)
(0.720027 0.729956 6.82567e-20)
(0.653664 0.666686 0)
(0.606655 0.60574 0)
(0.557001 0.53407 -2.96354e-19)
(0.498721 0.432377 -1.1052e-18)
(0.405835 0.322842 8.70917e-19)
(0.292992 0.19503 5.10334e-19)
(0.182979 0.0937389 0)
(0.0884148 0.021052 1.04301e-18)
(0.0052597 -0.0150719 -6.17741e-19)
(0.42178 0.360962 -1.22574e-19)
(0.935183 0.773917 1.08163e-19)
(1.15292 0.976671 -1.29925e-19)
(1.19977 1.02324 -1.08651e-19)
(1.17278 1.02756 -1.97493e-20)
(1.11364 0.99676 -1.9283e-20)
(1.0392 0.958597 0)
(0.963352 0.916754 -5.53602e-19)
(0.879218 0.870908 7.01637e-20)
(0.787725 0.817316 0)
(0.698782 0.755889 0)
(0.627064 0.691519 1.1104e-19)
(0.572209 0.62316 1.49379e-19)
(0.530477 0.540785 -3.20598e-19)
(0.466298 0.44294 7.93196e-19)
(0.377142 0.300175 -9.49392e-19)
(0.275083 0.170024 -1.09469e-18)
(0.203444 0.0812481 9.70091e-19)
(0.155574 0.0724552 -3.70764e-19)
(0.110889 0.0759262 2.15693e-19)
(0.421046 0.373195 1.52388e-19)
(0.929426 0.79925 0)
(1.14232 1.0054 0)
(1.18718 1.05203 -3.04124e-20)
(1.15977 1.05532 2.46207e-20)
(1.10068 1.02363 -1.99658e-20)
(1.0264 0.985064 1.356e-19)
(0.950155 0.942859 5.66425e-19)
(0.864929 0.896727 1.05148e-18)
(0.77218 0.843214 -8.0998e-20)
(0.681022 0.781656 1.67836e-19)
(0.605424 0.715557 -9.94505e-19)
(0.54743 0.647436 -9.93623e-19)
(0.484963 0.559859 -1.7244e-19)
(0.418473 0.426151 0)
(0.34072 0.290254 -4.8421e-21)
(0.256051 0.0969333 6.04473e-19)
(0.246081 -0.0224168 -1.01473e-18)
(0.212395 -0.106346 7.71055e-19)
(0.0878902 -0.0989766 6.38204e-19)
(0.419892 0.385157 -3.36118e-19)
(0.921844 0.820034 -1.51256e-19)
(1.1311 1.02994 6.91778e-21)
(1.175 1.07847 6.06394e-20)
(1.1472 1.08234 0)
(1.08785 1.05007 -5.14637e-20)
(1.01351 1.01074 -1.96679e-19)
(0.937197 0.967883 -2.12355e-21)
(0.851415 0.921461 -5.50903e-19)
(0.756497 0.867726 -7.95642e-20)
(0.661427 0.806954 7.39029e-20)
(0.580017 0.74242 8.73846e-19)
(0.509651 0.66798 9.69217e-19)
(0.452003 0.566658 1.68406e-19)
(0.377253 0.444612 8.59465e-19)
(0.277234 0.255506 0)
(0.150581 0.0793314 0)
(-0.00893235 0.180308 6.9391e-19)
(-0.0786872 0.629942 -2.74932e-20)
(0.00926895 1.54339 -8.60556e-19)
(0.419168 0.396327 1.85416e-19)
(0.916658 0.843009 4.26663e-19)
(1.12123 1.05579 -5.89723e-19)
(1.16317 1.10426 2.99913e-19)
(1.13492 1.10725 -1.03662e-20)
(1.07561 1.07443 -2.16293e-21)
(1.00147 1.03515 0)
(0.924796 0.992521 -4.71732e-19)
(0.837943 0.946497 0)
(0.741788 0.893769 1.11843e-18)
(0.644085 0.834259 -9.0539e-20)
(0.557882 0.769404 1.01522e-19)
(0.485025 0.698438 1.11579e-18)
(0.397108 0.600358 -3.65955e-19)
(0.286427 0.429685 -4.36402e-19)
(0.185792 0.306151 0)
(0.0763001 0.467111 0)
(0.0246943 1.35598 0)
(0.0712299 2.47184 -3.93866e-19)
(0.0978384 2.91482 -2.43211e-19)
(0.417687 0.40703 0)
(0.909563 0.861269 0)
(1.1107 1.07736 2.14742e-19)
(1.15181 1.12781 -2.44077e-19)
(1.12318 1.13169 1.12766e-19)
(1.06359 1.09872 1.08699e-20)
(0.989329 1.05914 2.57615e-20)
(0.912598 1.0164 -2.0057e-20)
(0.825334 0.970756 7.82069e-20)
(0.727231 0.918603 -1.28363e-18)
(0.62582 0.860828 1.63894e-19)
(0.533886 0.800935 8.78141e-19)
(0.443711 0.727246 -1.1111e-18)
(0.359561 0.609039 -1.22703e-18)
(0.264843 0.487021 4.12222e-19)
(0.181889 0.630862 0)
(0.114396 1.58297 5.624e-19)
(0.118875 2.69992 6.08289e-19)
(0.126333 3.09015 -6.79664e-19)
(0.118968 3.22324 7.24755e-19)
(0.416718 0.417449 0)
(0.90489 0.881976 3.74051e-19)
(1.10159 1.10064 -5.38144e-20)
(1.14084 1.15094 3.38237e-19)
(1.11175 1.15408 -1.18367e-19)
(1.05223 1.12085 0)
(0.978221 1.08168 0)
(0.901212 1.03968 0)
(0.813051 0.995076 4.38005e-19)
(0.713969 0.944869 5.90186e-20)
(0.609851 0.889828 0)
(0.512725 0.830454 -8.7276e-19)
(0.426311 0.762274 0)
(0.304228 0.654725 8.7789e-19)
(0.200893 0.705178 -5.94789e-19)
(0.146335 1.46553 -4.76813e-19)
(0.150099 2.68665 -1.09935e-18)
(0.173412 3.12619 -5.77895e-19)
(0.164021 3.26561 -7.77929e-19)
(0.150991 3.30582 5.69517e-19)
(0.415113 0.426835 -1.30273e-19)
(0.898194 0.89774 1.49284e-20)
(1.09176 1.11943 -5.97063e-20)
(1.13041 1.17184 -2.62123e-19)
(1.10094 1.17615 0)
(1.04115 1.14312 0)
(0.966995 1.10401 0)
(0.889986 1.0623 3.32645e-20)
(0.801625 1.0186 -5.53957e-19)
(0.700866 0.96967 0)
(0.593917 0.917153 0)
(0.493924 0.865419 0)
(0.382508 0.792841 0)
(0.308847 0.746833 6.44329e-19)
(0.266559 1.14342 1.58131e-18)
(0.239855 2.39814 4.6473e-19)
(0.256486 3.08181 9.30731e-19)
(0.251138 3.27931 -7.1299e-19)
(0.202825 3.34473 2.61237e-19)
(0.171058 3.35785 0)
(0.413975 0.436085 1.33898e-19)
(0.893873 0.916915 -8.2849e-19)
(1.08322 1.14107 -2.23398e-19)
(1.12008 1.19321 -4.94854e-20)
(1.09016 1.19685 2.74794e-20)
(1.03049 1.16374 -1.07056e-19)
(0.956676 1.1253 -1.12025e-21)
(0.879514 1.08467 -3.65192e-19)
(0.79045 1.0425 0)
(0.689222 0.996288 -7.55493e-20)
(0.580453 0.947867 6.87279e-20)
(0.475227 0.895483 0)
(0.381853 0.836637 0)
(0.321066 0.937998 -8.07243e-19)
(0.267162 1.85278 1.00946e-19)
(0.263589 2.94473 -3.4951e-19)
(0.2882 3.28259 7.307e-19)
(0.259699 3.38081 5.24465e-19)
(0.195109 3.40535 -7.09943e-19)
(0.170688 3.41545 3.5049e-19)
(0.411901 0.445592 2.62397e-19)
(0.886551 0.931904 8.06357e-19)
(1.07291 1.15921 2.68703e-19)
(1.10946 1.21377 0)
(1.07927 1.21882 0)
(1.0194 1.18602 8.30762e-20)
(0.945505 1.1477 5.62078e-20)
(0.86854 1.10748 3.25235e-19)
(0.779645 1.0664 2.14695e-20)
(0.677242 1.02186 9.62913e-19)
(0.567044 0.976242 -1.14646e-18)
(0.456494 0.92906 0)
(0.378262 0.913536 0)
(0.333529 1.31224 -5.5057e-19)
(0.329736 2.49488 -6.6132e-19)
(0.374165 3.19486 0)
(0.399122 3.36329 -7.38908e-19)
(0.328513 3.42611 5.01992e-20)
(0.26014 3.47157 3.41981e-19)
(0.238009 3.497 -1.11694e-19)
(0.410127 0.455417 -4.98662e-19)
(0.881613 0.953137 -3.86886e-19)
(1.06328 1.18307 0)
(1.0979 1.23678 0)
(1.06734 1.24079 0)
(1.0078 1.20769 0)
(0.934552 1.16997 -6.75477e-20)
(0.857726 1.13082 2.83462e-19)
(0.768475 1.09135 0)
(0.666516 1.04988 -8.76467e-19)
(0.55611 1.00896 2.05745e-18)
(0.446225 0.969814 8.432e-20)
(0.39568 1.03513 1.13545e-19)
(0.385237 1.74366 8.97044e-19)
(0.396228 2.90169 -4.82635e-19)
(0.435899 3.31458 0)
(0.419063 3.43617 2.07681e-19)
(0.333348 3.52518 9.11895e-20)
(0.25944 3.58922 1.48523e-19)
(0.183986 3.56868 -1.44422e-20)
(0.40713 0.465797 2.36948e-19)
(0.872327 0.969032 -3.94084e-19)
(1.05097 1.20242 0)
(1.08566 1.25893 -7.24776e-20)
(1.05496 1.26454 2.5002e-19)
(0.995371 1.23163 0)
(0.922234 1.19379 0)
(0.845969 1.15488 -4.91386e-19)
(0.757487 1.11636 -5.58889e-20)
(0.655187 1.07653 8.59571e-19)
(0.541866 1.03771 -9.77429e-19)
(0.450693 1.01852 5.74199e-19)
(0.411492 1.22282 0)
(0.42007 2.18694 -4.75664e-19)
(0.462361 3.14318 3.11941e-19)
(0.527153 3.41669 1.95958e-19)
(0.518283 3.51222 0)
(0.455806 3.59407 -3.67714e-20)
(0.386857 3.63392 -4.09219e-19)
(0.306491 3.60599 -9.63198e-20)
(0.404419 0.476352 -4.71005e-19)
(0.866255 0.993293 5.64053e-19)