/*--------------------------------*- C++ -*----------------------------------*\
  =========                 |
  \\      /  F ield         | OpenFOAM: The Open Source CFD Toolbox
   \\    /   O peration     | Website:  https://openfoam.org
    \\  /    A nd           | Version:  10
     \\/     M anipulation  |
\*---------------------------------------------------------------------------*/
FoamFile
{
    format      ascii;
    class       volScalarField;
    location    "40";
    object      p;
}
// * * * * * * * * * * * * * * * * * * * * * * * * * * * * * * * * * * * * * //

dimensions      [0 2 -2 0 0 0 0];

internalField   nonuniform List<scalar> 
8800
(
0.842076
0.794287
0.755593
0.726593
0.70572
0.690876
0.680261
0.672758
0.667907
0.665806
0.667021
0.671168
0.677779
0.687068
0.699829
0.717549
0.742317
0.776252
0.818796
0.877497
0.673336
0.681014
0.688479
0.691784
0.690274
0.685185
0.678685
0.672587
0.667833
0.664949
0.66462
0.667075
0.671521
0.677434
0.684181
0.690443
0.694072
0.693329
0.6879
0.679204
0.651755
0.657913
0.662036
0.664972
0.66701
0.6676
0.666474
0.664344
0.66229
0.661332
0.662237
0.664567
0.667326
0.669475
0.670058
0.668841
0.666484
0.663081
0.658518
0.654756
0.645977
0.648625
0.651371
0.653765
0.655388
0.656533
0.657251
0.657337
0.657
0.656893
0.657581
0.658694
0.659486
0.659513
0.658874
0.657759
0.655925
0.653341
0.65093
0.649426
0.640639
0.642062
0.643835
0.645856
0.647626
0.648949
0.649911
0.650672
0.651237
0.651736
0.652312
0.652739
0.652781
0.652447
0.651712
0.650433
0.648713
0.646847
0.64553
0.644699
0.63562
0.636539
0.637773
0.639328
0.640945
0.642448
0.643704
0.644729
0.645635
0.646451
0.64705
0.647293
0.647179
0.64668
0.64575
0.644511
0.643151
0.641866
0.641033
0.640483
0.630785
0.631454
0.632409
0.633699
0.635091
0.636525
0.63793
0.639205
0.640336
0.64135
0.642061
0.642324
0.642148
0.641561
0.640691
0.639691
0.638635
0.637681
0.637083
0.636679
0.626093
0.626608
0.627385
0.628503
0.629763
0.63111
0.632518
0.633936
0.635286
0.636511
0.637382
0.637719
0.637575
0.637087
0.6364
0.635605
0.634772
0.634049
0.633602
0.633287
0.621475
0.621884
0.622534
0.623528
0.624714
0.626012
0.627413
0.628905
0.630434
0.631897
0.632976
0.633464
0.633477
0.633176
0.632684
0.632078
0.631432
0.630889
0.630549
0.630296
0.616851
0.617183
0.617744
0.618661
0.619797
0.621077
0.622505
0.624079
0.625772
0.627492
0.628842
0.629578
0.629826
0.629741
0.629446
0.629032
0.628555
0.628158
0.627901
0.627691
0.612143
0.612418
0.612918
0.613788
0.614907
0.616206
0.617696
0.619389
0.621277
0.623285
0.624984
0.626052
0.626585
0.626745
0.62666
0.626434
0.626119
0.625848
0.625657
0.625478
0.607272
0.607501
0.607962
0.608818
0.609956
0.611319
0.612916
0.614787
0.616941
0.619315
0.621443
0.6229
0.623758
0.624188
0.624328
0.624287
0.624132
0.623969
0.623831
0.623676
0.602159
0.602351
0.602791
0.603662
0.604865
0.606336
0.608094
0.610207
0.612705
0.615547
0.618198
0.620114
0.621348
0.622083
0.622472
0.622621
0.622625
0.622564
0.622472
0.622335
0.59672
0.596881
0.597317
0.598231
0.599539
0.601165
0.603146
0.605574
0.608508
0.611939
0.615225
0.617693
0.619372
0.620463
0.621136
0.621509
0.621667
0.621701
0.621649
0.621525
0.590857
0.590991
0.591438
0.592422
0.593873
0.595707
0.597978
0.600805
0.604281
0.608427
0.612498
0.615651
0.617871
0.61938
0.620379
0.620999
0.621332
0.621463
0.621448
0.621333
0.584452
0.584558
0.585027
0.58611
0.587755
0.589867
0.592522
0.595867
0.60003
0.605066
0.610094
0.614063
0.616926
0.61892
0.62028
0.621182
0.621719
0.621956
0.62198
0.621872
0.577358
0.577447
0.577944
0.579152
0.581046
0.583509
0.586645
0.590647
0.595688
0.601838
0.608027
0.612969
0.616588
0.619179
0.620997
0.622218
0.622976
0.623325
0.623386
0.623281
0.569351
0.569432
0.56999
0.57134
0.573532
0.576437
0.580183
0.584995
0.591099
0.598602
0.606215
0.612357
0.616908
0.620212
0.622593
0.624216
0.625238
0.625714
0.625813
0.625709
0.560145
0.560197
0.560825
0.562386
0.564982
0.568464
0.572986
0.578843
0.586306
0.595492
0.604833
0.612392
0.618026
0.622172
0.625231
0.627339
0.628675
0.629297
0.629437
0.62933
0.549404
0.549437
0.550161
0.552001
0.555098
0.559316
0.564836
0.572024
0.581191
0.592456
0.603871
0.613122
0.620072
0.62523
0.629063
0.63176
0.63348
0.634269
0.634447
0.634331
0.53656
0.536582
0.537435
0.539641
0.543396
0.548572
0.555391
0.564283
0.575584
0.58939
0.603316
0.614583
0.623069
0.629433
0.634209
0.637628
0.639798
0.640774
0.640984
0.640852
0.520781
0.520797
0.521856
0.524605
0.529293
0.53581
0.544408
0.555576
0.569632
0.586568
0.603434
0.616988
0.627221
0.634954
0.640822
0.645047
0.647716
0.648885
0.649119
0.648963
0.50088
0.500902
0.502301
0.50589
0.511961
0.520392
0.53144
0.54561
0.563122
0.583834
0.604147
0.620347
0.632562
0.641846
0.64892
0.654069
0.657265
0.658618
0.658863
0.658676
0.475049
0.475106
0.477104
0.482101
0.490374
0.501671
0.516226
0.534433
0.556323
0.581538
0.605764
0.624865
0.639242
0.650204
0.658584
0.66471
0.668422
0.669925
0.670162
0.669941
0.440273
0.440453
0.443687
0.4513
0.463335
0.479049
0.498619
0.52214
0.549404
0.579844
0.608414
0.630642
0.647313
0.660065
0.669833
0.676949
0.681113
0.682706
0.68291
0.682654
0.390799
0.391827
0.39834
0.411329
0.42991
0.45246
0.478954
0.509215
0.542839
0.579118
0.612323
0.637801
0.656821
0.671389
0.68263
0.690675
0.695195
0.696786
0.696925
0.696632
0.317686
0.325046
0.340184
0.363248
0.391555
0.423258
0.458243
0.4963
0.537025
0.579714
0.61799
0.647063
0.668761
0.685453
0.698376
0.707476
0.712428
0.7141
0.714238
0.713989
0.238935
0.25622
0.280742
0.314443
0.3529
0.39393
0.43752
0.483622
0.531932
0.581851
0.6263
0.66006
0.685334
0.704884
0.720171
0.730752
0.736175
0.737848
0.738029
0.737934
0.173565
0.193876
0.226228
0.268801
0.316156
0.365973
0.417884
0.471861
0.527601
0.584553
0.634914
0.673053
0.701639
0.723793
0.740959
0.752394
0.758055
0.760155
0.76039
0.760383
0.120034
0.142048
0.179832
0.22878
0.283128
0.340277
0.399528
0.460714
0.523423
0.587029
0.642947
0.685144
0.716693
0.741051
0.759683
0.772193
0.77888
0.780783
0.781062
0.781099
0.0753408
0.0984955
0.139988
0.193966
0.253974
0.317159
0.382688
0.45025
0.519289
0.589053
0.650116
0.696014
0.730205
0.756469
0.776407
0.789829
0.797032
0.79916
0.799573
0.799632
0.0371099
0.0609132
0.105219
0.163163
0.227908
0.29623
0.367205
0.440414
0.515181
0.590589
0.656393
0.70565
0.742153
0.769918
0.790725
0.804782
0.812424
0.815004
0.815534
0.815615
0.00337199
0.0275968
0.0741184
0.135363
0.204102
0.276896
0.352691
0.430978
0.510977
0.591619
0.661833
0.714152
0.752628
0.781541
0.803015
0.817521
0.825543
0.828507
0.829158
0.829246
-0.027291
-0.0027027
0.0456319
0.10972
0.181918
0.258634
0.338739
0.421654
0.506508
0.592081
0.666461
0.721605
0.761803
0.79169
0.813684
0.828592
0.836879
0.840069
0.840776
0.840843
-0.0557423
-0.0308211
0.0190155
0.0855693
0.160848
0.241053
0.325038
0.412201
0.501605
0.591881
0.670274
0.72811
0.769894
0.800635
0.823034
0.838201
0.846649
0.849977
0.850697
0.85073
-0.0826901
-0.0574025
-0.00609523
0.0625131
0.140532
0.223855
0.311363
0.402444
0.496127
0.590931
0.673264
0.733755
0.777105
0.808691
0.831533
0.846879
0.855425
0.85883
0.859574
0.859574
-0.108442
-0.0827637
-0.0302836
0.040282
0.120719
0.20684
0.297547
0.39225
0.48997
0.589157
0.675411
0.738611
0.783603
0.816099
0.839408
0.854961
0.863546
0.866882
0.867647
0.867643
-0.133366
-0.10718
-0.053727
0.0186386
0.101236
0.189869
0.283489
0.381532
0.483048
0.586479
0.676687
0.742732
0.789509
0.823029
0.846859
0.862602
0.871194
0.874489
0.875149
0.875095
-0.157563
-0.130975
-0.0764617
-0.00252884
0.0819776
0.172866
0.269128
0.370243
0.475309
0.582842
0.677057
0.746142
0.794913
0.829602
0.854025
0.869962
0.878501
0.881679
0.882242
0.882116
-0.181148
-0.154056
-0.0985881
-0.023289
0.0629114
0.155811
0.254446
0.358361
0.466727
0.578195
0.676459
0.748824
0.799861
0.835918
0.861001
0.877092
0.885482
0.888455
0.888886
0.888707
-0.204251
-0.176576
-0.120208
-0.0436705
0.044024
0.138711
0.239469
0.345908
0.457302
0.5725
0.674819
0.750716
0.804369
0.842054
0.867879
0.88405
0.89217
0.894837
0.895132
0.894914
-0.226887
-0.198559
-0.14133
-0.0636683
0.02535
0.121598
0.224244
0.33293
0.447061
0.565729
0.672061
0.751722
0.808397
0.848087
0.874794
0.890904
0.898536
0.900789
0.900933
0.900688
-0.248904
-0.219955
-0.161896
-0.0832537
0.00692262
0.104543
0.208832
0.319499
0.436062
0.557906
0.668114
0.751725
0.811843
0.854061
0.881958
0.897865
0.904641
0.906267
0.906236
0.905983
-0.270286
-0.240742
-0.181905
-0.102377
-0.0111977
0.0876062
0.193324
0.305695
0.424384
0.549063
0.662932
0.750577
0.814539
0.859933
0.889643
0.905403
0.910778
0.911298
0.910996
0.910795
-0.291105
-0.260891
-0.201333
-0.12101
-0.0289485
0.0708713
0.177808
0.291623
0.412122
0.53927
0.656476
0.748127
0.816237
0.865478
0.898011
0.914327
0.917929
0.91634
0.915255
0.915304
-0.311191
-0.280384
-0.220126
-0.139092
-0.046272
0.054421
0.162379
0.277393
0.399396
0.52863
0.648747
0.744225
0.816634
0.87022
0.906779
0.925418
0.928261
0.923774
0.920264
0.919534
-0.330643
-0.299213
-0.238306
-0.156656
-0.063204
0.0382079
0.146978
0.262944
0.386137
0.517069
0.639616
0.738603
0.815392
0.873491
0.914987
0.938489
0.943859
0.938826
0.929054
0.913325
-0.349387
-0.317374
-0.255996
-0.173902
-0.0800376
0.0218926
0.131182
0.247787
0.371796
0.503937
0.628415
0.730436
0.811862
0.87429
0.920349
0.950225
0.959206
0.948113
0.929098
0.914541
-0.367248
-0.33499
-0.273007
-0.190613
-0.096445
0.00582443
0.11522
0.232251
0.356691
0.489511
0.615265
0.719332
0.805408
0.871498
0.917991
0.94751
0.960168
0.939275
0.870096
0.838291
-0.38356
-0.353272
-0.289013
-0.206252
-0.111677
-0.0094964
0.0993966
0.216564
0.341042
0.473927
0.600134
0.705066
0.794851
0.864732
0.903563
0.925785
0.922588
0.871032
0.801037
0.757652
-0.43952
-0.369408
-0.303655
-0.221898
-0.127279
-0.025515
0.0836466
0.20045
0.324489
0.456752
0.582468
0.687172
0.77663
0.853654
0.859628
0.869576
0.828621
0.761898
0.685668
0.642961
-0.401233
-0.385269
-0.325343
-0.243279
-0.15013
-0.0485459
0.0596292
0.175722
0.298659
0.429256
0.552548
0.655026
0.736035
0.815041
0.808386
0.701615
0.59913
0.527651
0.454848
0.48772
-0.432533
-0.403237
-0.342407
-0.261104
-0.16797
-0.0666382
0.0417624
0.157206
0.279043
0.407743
0.528032
0.626362
0.699409
0.740965
0.695779
0.551964
0.426098
0.33599
0.237251
0.289592
-0.456715
-0.424477
-0.362394
-0.2809
-0.187727
-0.0865421
0.0217563
0.136354
0.256774
0.383035
0.499532
0.592112
0.655807
0.664995
0.562067
0.390731
0.238476
0.11992
-0.0111785
0.0229375
-0.480423
-0.446617
-0.383347
-0.301007
-0.20773
-0.1067
0.00108971
0.114721
0.233546
0.357039
0.468926
0.555003
0.603465
0.581375
0.426047
0.230177
0.0390018
-0.131433
-0.322689
-0.337761
-0.50355
-0.469284
-0.405127
-0.322069
-0.228626
-0.127798
-0.0206339
0.0919248
0.208921
0.329305
0.436002
0.514869
0.54543
0.488229
0.29677
0.0859353
-0.133237
-0.326115
-0.572436
-0.880324
-0.526996
-0.492716
-0.428018
-0.344492
-0.250854
-0.150173
-0.0435565
0.0679124
0.182998
0.300067
0.401405
0.471847
0.483902
0.376095
0.18465
-0.0259165
-0.232127
-0.406783
-0.474749
-0.559777
-0.551708
-0.517358
-0.452364
-0.368608
-0.274912
-0.174465
-0.0684846
0.0417347
0.154619
0.267898
0.36348
0.423638
0.411171
0.269521
0.0855964
-0.105814
-0.269542
-0.362789
-0.386648
-0.403025
-0.578
-0.54353
-0.478341
-0.394514
-0.300936
-0.200882
-0.0957705
0.0129087
0.123199
0.23208
0.321442
0.368617
0.337901
0.170618
-0.00385745
-0.169696
-0.297269
-0.335859
-0.349525
-0.350811
-0.606077
-0.571407
-0.506015
-0.422204
-0.328872
-0.229425
-0.125428
-0.0186113
0.0886738
0.192616
0.274978
0.308377
0.260603
0.078767
-0.0864242
-0.23453
-0.312944
-0.329333
-0.330644
-0.330493
-0.635999
-0.601034
-0.535408
-0.451667
-0.35873
-0.260077
-0.157452
-0.0528335
0.0510509
0.149593
0.224071
0.246551
0.163588
-0.00554526
-0.162661
-0.284068
-0.319245
-0.319866
-0.319868
-0.319304
-0.667482
-0.632268
-0.566411
-0.482812
-0.390413
-0.292774
-0.191802
-0.0897224
0.010355
0.103109
0.169425
0.176332
0.072811
-0.0840374
-0.223248
-0.300475
-0.310152
-0.312336
-0.312725
-0.312517
-0.699967
-0.664614
-0.598767
-0.515409
-0.423726
-0.327345
-0.228315
-0.129136
-0.0332472
0.0534554
0.111739
0.103706
-0.0081399
-0.152192
-0.271149
-0.297453
-0.307965
-0.308699
-0.307754
-0.307235
-0.733002
-0.697549
-0.632019
-0.549057
-0.458309
-0.363455
-0.266697
-0.170783
-0.0794705
0.00124667
0.0503295
0.0349036
-0.0819709
-0.210957
-0.306865
-0.326939
-0.311992
-0.306967
-0.305211
-0.304123
-0.765726
-0.730414
-0.665308
-0.583138
-0.493608
-0.400609
-0.306476
-0.214182
-0.127837
-0.0530025
-0.0129283
-0.0280487
-0.144264
-0.255784
-0.326148
-0.320528
-0.312243
-0.305526
-0.302189
-0.30098
-0.796552
-0.762011
-0.697709
-0.616724
-0.528835
-0.438076
-0.346959
-0.258634
-0.177565
-0.108847
-0.0718251
-0.0979343
-0.187014
-0.283355
-0.329495
-0.331976
-0.312733
-0.296335
-0.291771
-0.290385
-0.823995
-0.790453
-0.728126
-0.648659
-0.562926
-0.474866
-0.387219
-0.303225
-0.22757
-0.16574
-0.12743
-0.173242
-0.220385
-0.23374
-0.302932
-0.31641
-0.319039
-0.316561
-0.313984
-0.31197
-0.845977
-0.814183
-0.754345
-0.677542
-0.594547
-0.509758
-0.426058
-0.346786
-0.276724
-0.222663
-0.185561
-0.252306
-0.278227
-0.15847
-0.200283
-0.323083
-0.427665
-0.459719
-0.449486
-0.442104
-0.86036
-0.831208
-0.774775
-0.701445
-0.622109
-0.54129
-0.462049
-0.387858
-0.323741
-0.277758
-0.245729
-0.353947
-0.461722
-0.372731
-0.372988
-0.500726
-0.581056
-0.596381
-0.587073
-0.584736
-0.864541
-0.839352
-0.787409
-0.718562
-0.643832
-0.5678
-0.493483
-0.42468
-0.366818
-0.328729
-0.305273
-0.477381
-0.814715
-1.33001
-1.35594
-0.936128
-0.708722
-0.643723
-0.633176
-0.631158
-0.856726
-0.836228
-0.790141
-0.727249
-0.658104
-0.587547
-0.518502
-0.455045
-0.403233
-0.372825
-0.365354
-0.545442
-0.842785
-1.26314
-1.30516
-0.871218
-0.667357
-0.61223
-0.605957
-0.603498
-0.834681
-0.818837
-0.781249
-0.726232
-0.663751
-0.599164
-0.535364
-0.476465
-0.428989
-0.403011
-0.403872
-0.417438
-0.241725
0.130162
0.236646
-0.0915942
-0.402663
-0.492324
-0.497697
-0.488978
-0.80018
-0.789667
-0.761029
-0.715522
-0.660544
-0.602031
-0.54291
-0.486922
-0.441115
-0.414769
-0.414416
-0.340779
-0.152245
0.0941685
-0.101263
-0.534478
-0.632019
-0.582535
-0.516246
-0.528081
-0.75868
-0.752671
-0.733619
-0.697411
-0.650044
-0.596718
-0.540919
-0.486026
-0.437513
-0.40809
-0.419739
-0.512803
-0.86494
-1.50706
-2.05376
-2.40596
-2.33553
-2.01174
-1.68384
-1.51941
-0.718294
-0.714868
-0.704435
-0.67678
-0.635188
-0.58538
-0.530633
-0.473466
-0.418885
-0.376612
-0.372778
-0.487432
-0.819333
-1.27968
-1.68362
-1.80196
-1.64714
-1.37586
-1.13705
-1.007
-0.685839
-0.683736
-0.678454
-0.658408
-0.620944
-0.571511
-0.514714
-0.451234
-0.383521
-0.309188
-0.24089
-0.162274
-0.0905862
0.100089
0.357944
0.681982
1.00996
1.24447
1.37156
1.41987
-0.658219
-0.657348
-0.655985
-0.644116
-0.61035
-0.559368
-0.497538
-0.425496
-0.342732
-0.245893
-0.121409
0.0509307
0.345092
0.761687
1.24715
1.71656
2.09613
2.34918
2.4785
2.51645
-0.639919
-0.639436
-0.639317
-0.633209
-0.603673
-0.550196
-0.481968
-0.402351
-0.308481
-0.197695
-0.0638587
0.0782542
0.331523
0.788998
1.34445
1.86047
2.25693
2.49006
2.59525
2.6244
-0.625924
-0.625501
-0.625439
-0.623835
-0.599353
-0.543828
-0.46951
-0.383791
-0.286348
-0.172608
-0.0477525
0.092867
0.271057
0.665881
1.15071
1.58428
1.91124
2.09647
2.17822
2.20002
-0.616632
-0.61502
-0.613954
-0.615013
-0.596405
-0.538593
-0.458244
-0.36798
-0.270402
-0.160009
-0.0441176
0.0778683
0.203011
0.46656
0.838422
1.15484
1.39627
1.53316
1.59182
1.60622
-0.619177
-0.618205
-0.620218
-0.622608
-0.599752
-0.531224
-0.443114
-0.34994
-0.254387
-0.151206
-0.0512688
0.0416498
0.127681
0.295971
0.545515
0.765612
0.929509
1.02249
1.06285
1.07081
-0.618958
-0.623307
-0.631264
-0.629299
-0.593738
-0.510562
-0.416897
-0.325029
-0.236537
-0.146839
-0.0669559
-4.25241e-05
0.0590974
0.170412
0.337072
0.479132
0.582038
0.639134
0.662236
0.665846
-0.560642
-0.567804
-0.577779
-0.573333
-0.533096
-0.454706
-0.370039
-0.289689
-0.214995
-0.141901
-0.0789748
-0.0328239
0.00770397
0.078948
0.187254
0.278406
0.339811
0.372789
0.385297
0.386764
-0.412275
-0.418737
-0.425922
-0.423064
-0.396439
-0.349271
-0.295565
-0.240154
-0.185405
-0.13037
-0.0856751
-0.057145
-0.0335859
0.0182215
0.0875734
0.143138
0.178766
0.196702
0.203454
0.203409
-0.231682
-0.235055
-0.240589
-0.244818
-0.24171
-0.229654
-0.209366
-0.182949
-0.151254
-0.115796
-0.0872574
-0.0700126
-0.0554118
-0.0209239
0.0235422
0.0576339
0.0786989
0.0884905
0.0916982
0.091187
-0.0903944
-0.0921265
-0.0972502
-0.107772
-0.121234
-0.131749
-0.135216
-0.130512
-0.117419
-0.0979292
-0.0801663
-0.069639
-0.061475
-0.035834
-0.00727572
0.0127099
0.0231766
0.0273768
0.0285164
0.0277714
-0.012237
-0.0132885
-0.0181469
-0.0303022
-0.0491383
-0.068214
-0.0824928
-0.0893858
-0.0880935
-0.0794931
-0.0692582
-0.0624175
-0.0569656
-0.0374277
-0.0185496
-0.00805386
-0.00325976
-0.00156429
-0.00131134
-0.00217256
0.0190385
0.0182582
0.0142777
0.00378426
-0.0132454
-0.0320784
-0.0486836
-0.0603426
-0.0652428
-0.0629348
-0.0562067
-0.0490716
-0.0421631
-0.029697
-0.0187444
-0.0135432
-0.0110632
-0.0102481
-0.0103307
-0.0112913
0.0246862
0.0241235
0.0212634
0.0135652
0.000570437
-0.014854
-0.029699
-0.0415742
-0.0486078
-0.0493183
-0.0434617
-0.0340076
-0.0233368
-0.0146474
-0.0112913
-0.0100921
-0.00926798
-0.00882874
-0.00905032
-0.0100818
0.0190689
0.0186686
0.0167543
0.0115965
0.00259806
-0.00873041
-0.0205119
-0.0308533
-0.0379663
-0.0395223
-0.0338339
-0.0220396
-0.00884404
-0.00401308
-0.00539251
-0.00572671
-0.00515921
-0.00420554
-0.00416879
-0.00531264
0.00986476
0.00956862
0.00832842
0.00506578
-0.000819013
-0.00867788
-0.0174429
-0.0257834
-0.0323211
-0.034836
-0.0301515
-0.0183598
-0.00515254
-0.00399187
-0.00667376
-0.0065185
-0.00430369
-0.00210028
-0.00196583
-0.00328598
0.000788737
0.000549185
-0.000258481
-0.00224891
-0.00595381
-0.0112603
-0.0176753
-0.0244255
-0.0306802
-0.0346133
-0.0330891
-0.0251274
-0.0163348
-0.0182309
-0.0205412
-0.0181687
-0.013656
-0.0102595
-0.00950421
-0.0107822
-0.00651234
-0.00673005
-0.0073045
-0.00855645
-0.0109089
-0.0145273
-0.0193508
-0.0251026
-0.031391
-0.0377919
-0.0419848
-0.0425208
-0.0422888
-0.045962
-0.0452855
-0.0390161
-0.0325372
-0.0285796
-0.0279012
-0.0290904
-0.0114084
-0.0116144
-0.0120793
-0.0129631
-0.014569
-0.0172157
-0.0210961
-0.0263131
-0.0331423
-0.0423515
-0.0541046
-0.0664969
-0.0785039
-0.0835099
-0.0760753
-0.0660315
-0.0584559
-0.0548946
-0.0543428
-0.0552043
-0.0139339
-0.0141256
-0.0145337
-0.0152716
-0.016494
-0.0186028
-0.0219319
-0.0268237
-0.0339819
-0.0459205
-0.0645811
-0.088349
-0.112881
-0.115036
-0.101982
-0.0896511
-0.0829023
-0.0803594
-0.080013
-0.0804583
-0.0144755
-0.014652
-0.0150268
-0.0157207
-0.0167717
-0.0185473
-0.0213525
-0.0258277
-0.0330667
-0.0455333
-0.0674612
-0.0998797
-0.129585
-0.127886
-0.111651
-0.100144
-0.0953051
-0.09445
-0.0943053
-0.0944418
-0.0134928
-0.0136519
-0.0139727
-0.0145964
-0.015579
-0.0170084
-0.0194778
-0.0232625
-0.029443
-0.040334
-0.0600146
-0.0894912
-0.114302
-0.109549
-0.0974845
-0.091368
-0.0904529
-0.0910247
-0.0910479
-0.0911096
-0.0113791
-0.011528
-0.0117895
-0.012326
-0.0131254
-0.0143565
-0.0161721
-0.0190305
-0.0234771
-0.0307462
-0.0426921
-0.0603528
-0.0730359
-0.0688385
-0.0655917
-0.0676591
-0.0704916
-0.0721996
-0.0726108
-0.0726855
-0.00856118
-0.00866105
-0.00880222
-0.00915094
-0.00983305
-0.0109174
-0.0120163
-0.0138253
-0.0160869
-0.0187952
-0.0210623
-0.0231637
-0.0242317
-0.0218944
-0.0275006
-0.035923
-0.0408719
-0.0427598
-0.0436365
-0.0439337
-0.00564415
-0.00571311
-0.00578542
-0.00599384
-0.00645251
-0.00707723
-0.00802725
-0.00859241
-0.00910896
-0.00790483
-0.00147532
0.0120609
0.024492
0.0219707
0.00683783
-0.00632955
-0.0119429
-0.0139648
-0.0152016
-0.0156444
-0.00292897
-0.00301092
-0.00304573
-0.00310325
-0.00340494
-0.00386022
-0.00428765
-0.00464248
-0.00392393
-0.000871512
0.00883575
0.0307805
0.0555675
0.0461377
0.0228297
0.0104746
0.00729669
0.00637981
0.00438036
0.00372972
-0.000302072
-0.00038691
-0.00054416
-0.000853264
-0.00110267
-0.00124521
-0.00143749
-0.00130893
-0.000688519
0.0005936
0.00322095
0.00852646
0.0239038
0.0231052
0.0171226
0.0136279
0.00896644
0.00385989
0.00251818
0.00220096
-0.0886488
0.0829522
0.283582
0.4576
0.597291
0.7081
0.800122
0.878009
0.912952
0.88968
0.22379
0.347567
0.480495
0.595627
0.692935
0.773691
0.839025
0.885279
0.908486
0.920459
0.448346
0.533147
0.623858
0.704289
0.773499
0.831396
0.877389
0.910954
0.935143
0.953035
0.612512
0.672829
0.736428
0.794609
0.845391
0.888473
0.923815
0.95197
0.975054
0.993301
0.740329
0.784395
0.8312
0.875781
0.915183
0.949561
0.978953
1.00338
1.02395
1.04176
0.846036
0.879493
0.918157
0.95423
0.987307
1.01692
1.04278
1.06449
1.08247
1.0998
0.939489
0.968508
1.00286
1.03532
1.06556
1.09297
1.11691
1.13677
1.15236
1.16944
1.02863
1.05804
1.09228
1.12453
1.15432
1.18106
1.20404
1.22263
1.23606
1.2531
1.12428
1.15763
1.19441
1.22812
1.25828
1.28456
1.30659
1.32393
1.33585
1.35325
1.23949
1.27741
1.31614
1.35046
1.37988
1.40469
1.42511
1.44104
1.45254
1.47062
1.38456
1.42316
1.45936
1.49009
1.51581
1.53795
1.55704
1.57259
1.58504
1.60304
1.55974
1.59137
1.61759
1.64007
1.66007
1.67882
1.69655
1.71305
1.72841
1.74648
1.7484
1.76561
1.78066
1.79691
1.81284
1.82738
1.8406
1.85454
1.87209
1.89224
1.93013
1.93969
1.95124
1.96206
1.97135
1.98094
1.99173
2.00311
2.01447
2.02983
2.13741
2.14107
2.12613
2.11131
2.10504
2.11073
2.12921
2.15953
2.19171
2.21836
2.44371
2.30885
2.23222
2.18986
2.17244
2.17641
2.20381
2.26022
2.36284
2.58721
0.732674
0.730543
0.726057
0.717427
0.705196
0.693058
0.682814
0.674895
0.669244
0.665945
0.665533
0.668213
0.67327
0.680456
0.689817
0.701338
0.713976
0.725001
0.731109
0.734158
0.657138
0.662983
0.669318
0.673803
0.676264
0.675928
0.673175
0.669341
0.665796
0.663488
0.663281
0.665415
0.669027
0.673276
0.677054
0.678916
0.677964
0.67447
0.6693
0.662676
0.64874
0.651036
0.654435
0.657424
0.659489
0.660972
0.661707
0.661364
0.660301
0.659365
0.65947
0.660829
0.662588
0.663848
0.663993
0.663076
0.661508
0.659157
0.655883
0.652958
0.643262
0.644349
0.646177
0.648547
0.650559
0.651971
0.652968
0.653688
0.654045
0.654208
0.654621
0.655349
0.65588
0.655893
0.655437
0.654556
0.653061
0.650957
0.648857
0.647469
0.638104
0.638767
0.63987
0.641566
0.643334
0.644948
0.646217
0.647197
0.648028
0.648748
0.649387
0.649844
0.649956
0.649723
0.649102
0.648005
0.646543
0.644974
0.643638
0.642854
0.633185
0.633645
0.634427
0.635716
0.637189
0.638686
0.640122
0.641378
0.642455
0.643427
0.644233
0.644686
0.644732
0.644374
0.643608
0.642563
0.641393
0.640226
0.639289
0.638767
0.628428
0.628772
0.629379
0.630438
0.631717
0.633068
0.634475
0.635874
0.63718
0.638363
0.639342
0.639892
0.639942
0.639559
0.638871
0.638021
0.637111
0.636201
0.635502
0.635119
0.623783
0.624051
0.624541
0.62544
0.626594
0.627866
0.629224
0.63066
0.632124
0.63353
0.63472
0.635413
0.635554
0.635296
0.63479
0.634135
0.63341
0.632712
0.632189
0.631897
0.619173
0.619386
0.619792
0.620582
0.621655
0.622876
0.62422
0.625693
0.627272
0.628891
0.630333
0.631245
0.631585
0.631532
0.631224
0.630761
0.630219
0.629696
0.629306
0.629076
0.614517
0.614688
0.615036
0.615753
0.616781
0.617978
0.619342
0.620884
0.622597
0.624438
0.626177
0.627395
0.628014
0.628207
0.628113
0.627844
0.627482
0.627111
0.62683
0.626648
0.609737
0.609874
0.61018
0.610854
0.611866
0.613085
0.614509
0.616164
0.618061
0.620173
0.622279
0.623884
0.624833
0.625305
0.62545
0.625381
0.625193
0.624963
0.624772
0.624626
0.604754
0.604863
0.60514
0.605796
0.606826
0.608113
0.609642
0.611465
0.613618
0.616082
0.618643
0.620712
0.622047
0.622833
0.623239
0.623383
0.623365
0.62327
0.623156
0.623039
0.599489
0.599573
0.599833
0.600495
0.601582
0.602977
0.604663
0.606718
0.609204
0.612131
0.615261
0.617878
0.619663
0.620815
0.621512
0.621892
0.622053
0.622085
0.622039
0.621947
0.593851
0.593913
0.594164
0.594854
0.59603
0.597577
0.599476
0.60183
0.604725
0.60821
0.612036
0.615338
0.61768
0.619272
0.620311
0.620963
0.621322
0.621489
0.621507
0.621434
0.587731
0.587772
0.58802
0.588756
0.59006
0.591812
0.593997
0.596744
0.600172
0.604366
0.609048
0.613173
0.616176
0.618282
0.61971
0.620657
0.621253
0.62156
0.621643
0.621589
0.58101
0.581022
0.58127
0.582076
0.583547
0.585563
0.588113
0.591361
0.595464
0.600534
0.606268
0.611402
0.6152
0.617922
0.619811
0.621103
0.62197
0.622434
0.622585
0.622548
0.573483
0.573488
0.573748
0.574637
0.576321
0.578659
0.581677
0.585558
0.59051
0.596692
0.603724
0.61005
0.614796
0.618254
0.620714
0.622441
0.623614
0.624253
0.624473
0.624452
0.564896
0.564865
0.565169
0.566185
0.568133
0.570885
0.574489
0.579161
0.585156
0.592669
0.601279
0.609106
0.615013
0.619356
0.622506
0.624774
0.626318
0.627164
0.627465
0.627458
0.554961
0.554905
0.555249
0.556438
0.558724
0.562022
0.566388
0.572093
0.579453
0.588691
0.59924
0.608798
0.616044
0.621427
0.625392
0.628292
0.630275
0.631368
0.631754
0.631758
0.543226
0.543143
0.543559
0.544976
0.547689
0.551677
0.55701
0.564016
0.57306
0.584384
0.597288
0.608984
0.617871
0.624517
0.62946
0.633121
0.635649
0.63703
0.637508
0.637517
0.528993
0.528884
0.52942
0.531155
0.534452
0.53938
0.546028
0.55478
0.566037
0.580014
0.595765
0.609921
0.620671
0.628757
0.634849
0.6394
0.642563
0.64427
0.64484
0.644845
0.511265
0.511134
0.511866
0.514088
0.518246
0.52452
0.532998
0.544096
0.558208
0.575463
0.594607
0.611643
0.624532
0.634273
0.641678
0.647221
0.651086
0.653134
0.653786
0.653778
0.488572
0.488428
0.489499
0.492501
0.497997
0.50629
0.517394
0.531712
0.549538
0.570833
0.593976
0.614275
0.629556
0.641111
0.649956
0.656621
0.661233
0.663613
0.664328
0.664298
0.458572
0.458456
0.460151
0.464551
0.472329
0.483819
0.498817
0.517592
0.540208
0.566403
0.594128
0.618028
0.635892
0.649403
0.65977
0.66763
0.672972
0.675631
0.676378
0.676318
0.417162
0.417218
0.420306
0.427607
0.439601
0.456328
0.477109
0.501895
0.530492
0.562423
0.595253
0.623021
0.643591
0.659134
0.671122
0.68022
0.68621
0.689046
0.689772
0.689676
0.356626
0.357841
0.365434
0.379178
0.398899
0.423952
0.452876
0.485337
0.521033
0.559388
0.597658
0.629401
0.65272
0.670307
0.683894
0.694141
0.700695
0.703546
0.704135
0.703998
0.284362
0.28621
0.300701
0.324437
0.355034
0.389896
0.427741
0.468449
0.511827
0.557366
0.60208
0.638918
0.666004
0.686524
0.7023
0.714083
0.721429
0.724462
0.725143
0.72513
0.209763
0.21608
0.237455
0.271353
0.312205
0.356628
0.403379
0.45238
0.503535
0.556403
0.607804
0.649983
0.680993
0.704633
0.723053
0.736651
0.744673
0.747377
0.747884
0.747971
0.148991
0.157509
0.183559
0.224455
0.273196
0.325714
0.380452
0.4372
0.495764
0.555683
0.61347
0.660651
0.695291
0.721683
0.742115
0.756956
0.76533
0.768513
0.769546
0.769705
0.0994756
0.10858
0.138144
0.184184
0.238992
0.298014
0.359465
0.423025
0.488326
0.554789
0.618551
0.670374
0.70829
0.737099
0.759296
0.775292
0.78457
0.788454
0.789704
0.789885
0.0578053
0.0671762
0.0991379
0.149121
0.208866
0.273275
0.340418
0.409907
0.481229
0.553673
0.622938
0.679018
0.71989
0.750775
0.774382
0.791305
0.801413
0.805807
0.807245
0.807427
0.0215852
0.0310615
0.0648198
0.11796
0.181795
0.250794
0.322899
0.397627
0.474372
0.552281
0.62664
0.686631
0.730132
0.762712
0.787296
0.804854
0.815625
0.820459
0.82205
0.822271
-0.010781
-0.00127348
0.0338491
0.0896955
0.156968
0.229923
0.30641
0.385843
0.467542
0.550525
0.62966
0.693295
0.739129
0.773118
0.798481
0.816598
0.827813
0.833019
0.834697
0.834932
-0.0404832
-0.0309398
0.00528496
0.0634693
0.133711
0.210161
0.290539
0.374238
0.460514
0.548276
0.631964
0.69905
0.747031
0.782248
0.808272
0.826776
0.838244
0.843725
0.845471
0.845703
-0.0682937
-0.0587064
-0.0214655
0.0386586
0.11156
0.191118
0.274987
0.362578
0.453109
0.545407
0.6335
0.703944
0.753989
0.790363
0.816994
0.835805
0.84743
0.853037
0.854784
0.855036
-0.0946935
-0.0850492
-0.0469149
0.0149254
0.0901963
0.172515
0.259539
0.350692
0.445188
0.541813
0.634214
0.708009
0.76014
0.797704
0.82497
0.844108
0.855886
0.861525
0.863259
0.863384
-0.120128
-0.110332
-0.0713754
-0.00800076
0.0693837
0.154168
0.244041
0.338457
0.436656
0.537405
0.634048
0.711263
0.765588
0.804449
0.832417
0.851887
0.863786
0.869378
0.871054
0.87118
-0.144798
-0.134776
-0.095115
-0.0302775
0.0489706
0.135953
0.228405
0.325806
0.427439
0.532118
0.63295
0.713705
0.77041
0.810722
0.839489
0.859321
0.871312
0.876846
0.878416
0.878515
-0.168788
-0.158562
-0.118149
-0.0520029
0.0288765
0.11782
0.212587
0.312702
0.417505
0.525895
0.630864
0.715315
0.774642
0.816616
0.846304
0.866523
0.878545
0.88393
0.885363
0.885399
-0.192242
-0.181719
-0.140595
-0.0732524
0.0090709
0.0997541
0.196584
0.299148
0.406851
0.518719
0.627725
0.716029
0.778279
0.822197
0.852955
0.873556
0.885524
0.890679
0.891905
0.891865
-0.215133
-0.204326
-0.162498
-0.0940614
-0.0104428
0.0817728
0.180437
0.285183
0.395503
0.510579
0.623482
0.715758
0.781269
0.827502
0.859545
0.880515
0.892254
0.897018
0.898008
0.897904
-0.237521
-0.2264
-0.183811
-0.114405
-0.0296416
0.0639133
0.164191
0.270871
0.383515
0.501496
0.618092
0.714407
0.78351
0.832522
0.866206
0.887562
0.898816
0.902953
0.903636
0.903471
-0.259229
-0.247861
-0.204532
-0.134241
-0.0484748
0.0462511
0.147917
0.256282
0.370961
0.491532
0.611538
0.711878
0.784859
0.837177
0.873074
0.895021
0.905462
0.908519
0.908738
0.908517
-0.280401
-0.268677
-0.224649
-0.153554
-0.0669087
0.0288293
0.131708
0.241503
0.357934
0.480771
0.603838
0.708065
0.785122
0.841268
0.880179
0.903377
0.912853
0.914077
0.913333
0.913012
-0.300876
-0.288827
-0.244134
-0.172299
-0.0848653
0.0117335
0.115648
0.226653
0.344546
0.469286
0.595042
0.70288
0.784088
0.844466
0.887276
0.913037
0.922298
0.921073
0.91803
0.916726
-0.320717
-0.308353
-0.262936
-0.190425
-0.102308
-0.00496672
0.09982
0.211816
0.330911
0.45722
0.585232
0.69625
0.781548
0.846317
0.893655
0.923677
0.935129
0.932988
0.925855
0.916449
-0.339842
-0.327222
-0.281156
-0.208092
-0.119451
-0.0215568
0.0838797
0.196578
0.316567
0.444053
0.573853
0.687569
0.776934
0.846274
0.898284
0.934009
0.951138
0.951123
0.940929
0.933299