/*--------------------------------*- C++ -*----------------------------------*\
  =========                 |
  \\      /  F ield         | OpenFOAM: The Open Source CFD Toolbox
   \\    /   O peration     | Website:  https://openfoam.org
    \\  /    A nd           | Version:  10
     \\/     M anipulation  |
\*---------------------------------------------------------------------------*/
FoamFile
{
    format      ascii;
    class       surfaceScalarField;
    location    "40";
    object      phi;
}
// * * * * * * * * * * * * * * * * * * * * * * * * * * * * * * * * * * * * * //

dimensions      [0 3 -1 0 0 0 0];

internalField   nonuniform List<scalar> 
17370
(
-0.0916071
0.0960071
0.284611
-0.0775908
0.0594146
0.364952
-0.0430368
0.0316179
0.427587
-0.0223138
0.0162604
0.505305
-0.0116652
0.00878902
0.602278
-0.00657624
0.00509297
0.720541
-0.00386242
0.00299041
0.863779
-0.00222618
0.00165359
1.03602
-0.00112556
0.000706181
1.24292
-0.000295553
-9.68862e-05
1.49158
0.000483118
-0.000890925
1.4916
0.00129246
-0.00179728
1.2432
0.00235073
-0.00309911
1.03639
0.00396255
-0.00518761
0.864132
0.00666561
-0.00886956
0.721261
0.0117342
-0.0163137
0.603794
0.0223524
-0.0316412
0.508728
0.0430446
-0.0594123
0.432536
0.07759
-0.0960047
0.36519
0.0916198
0.197391
-0.127087
0.0880177
0.0390694
-0.36435
0.354024
-0.0714788
0.0818048
-0.446655
0.454247
-0.0791685
0.0715761
-0.521009
0.529106
-0.0637269
0.0556299
-0.612987
0.620758
-0.0482426
0.0404717
-0.72716
0.73368
-0.0338583
0.0273381
-0.86758
0.87242
-0.0221399
0.0173004
-1.03856
1.04189
-0.0136158
0.0102889
-1.24472
1.24711
-0.00774573
0.00534587
-1.49284
1.49485
-0.00338643
0.00137677
-1.49269
1.49451
0.000441458
-0.00225896
-1.24411
1.24602
0.00422986
-0.00613944
-1.03761
1.04009
0.00847716
-0.0109619
-0.866189
0.869826
0.0142286
-0.0178662
-0.724596
0.729758
0.0226627
-0.0278246
-0.609068
0.615641
0.0343038
-0.0408765
-0.515126
0.522465
0.0485995
-0.0559389
-0.43988
0.447665
0.0639675
-0.0717523
-0.374712
0.377358
0.079257
-0.0819029
-0.256904
0.224447
0.0715547
-0.0390978
-0.0688005
0.0591861
0.00961438
-0.0521226
0.0589577
-0.374832
0.367996
-0.0581133
0.0542741
-0.45394
0.457779
-0.048788
0.0442287
-0.527607
0.532167
-0.0396777
0.0357819
-0.62079
0.624686
-0.0315725
0.0275867
-0.73465
0.738636
-0.0232461
0.0193752
-0.873947
0.877818
-0.0153456
0.0118992
-1.04335
1.0468
-0.00838955
0.00536488
-1.24864
1.25166
-0.00216485
-0.000811611
-1.49694
1.49992
0.00376714
-0.0069106
-1.49742
1.50056
0.00985573
-0.0132612
-1.25007
1.25348
0.0166057
-0.0205251
-1.04566
1.04958
0.0243044
-0.0285565
-0.877145
0.881397
0.0324682
-0.0365974
-0.738992
0.743121
0.0404206
-0.0448966
-0.625984
0.63046
0.0493942
-0.054821
-0.535027
0.540453
0.058595
-0.0593621
-0.458087
0.458854
0.0524254
-0.0320498
-0.336781
0.316405
0.0096687
-0.0686744
0.0590057
-0.053394
0.0492795
0.00411451
-0.0332647
0.0436975
-0.35854
0.348107
-0.0473795
0.0467966
-0.459563
0.460146
-0.0438707
0.0406594
-0.536113
0.539325
-0.0369832
0.0336304
-0.628374
0.631726
-0.0300025
0.0267732
-0.742013
0.745243
-0.02334
0.0201615
-0.881313
0.884492
-0.0165875
0.013251
-1.05022
1.05355
-0.00956877
0.00617821
-1.25492
1.25831
-0.00240012
-0.00120734
-1.50327
1.50687
0.00478691
-0.00848373
-1.50406
1.50776
0.0117638
-0.0152979
-1.25704
1.26058
0.0184863
-0.0218967
-1.05329
1.0567
0.0249379
-0.0282386
-0.885005
0.888305
0.0313583
-0.0348725
-0.746806
0.75032
0.0381227
-0.0416874
-0.634587
0.638152
0.0448019
-0.0476215
-0.544604
0.547423
0.0480971
-0.0442678
-0.45698
0.453151
0.0336569
-0.0163615
-0.297104
0.279808
0.00417337
-0.0531611
0.0489878
-0.0461063
0.0435472
0.00255915
-0.0230725
0.0334351
-0.337503
0.32714
-0.0391805
0.0401371
-0.459886
0.45893
-0.0388924
0.0365684
-0.541971
0.544295
-0.03393
0.0313894
-0.63468
0.637221
-0.0284239
0.0255932
-0.74832
0.751151
-0.0223786
0.0193849
-0.887543
0.890537
-0.0160524
0.0129344
-1.05672
1.05984
-0.0093969
0.00601549
-1.26169
1.26508
-0.00212507
-0.00165569
-1.5106
1.51438
0.00540082
-0.00918306
-1.51154
1.51532
0.0124189
-0.0157618
-1.26405
1.26739
0.0186841
-0.0217977
-1.05991
1.06302
0.0246034
-0.0276329
-0.891499
0.894528
0.0303115
-0.0331209
-0.753502
0.756311
0.0355225
-0.0380139
-0.641117
0.643609
0.0402127
-0.0412957
-0.549271
0.550354
0.0401748
-0.0341929
-0.448044
0.442062
0.023573
-0.0103512
-0.264644
0.251422
0.00263174
-0.0457507
0.043119
-0.0414252
0.0396209
0.00180436
-0.0169725
0.0262736
-0.317256
0.307955
-0.0328854
0.0350169
-0.457355
0.455224
-0.0345916
0.0329001
-0.546309
0.548001
-0.0306788
0.0285585
-0.639514
0.641635
-0.0261336
0.023774
-0.753742
0.756101
-0.0209859
0.0182642
-0.893385
0.896106
-0.0151057
0.0120946
-1.06286
1.06587
-0.00865519
0.00536326
-1.26838
1.27167
-0.00154725
-0.00218101
-1.51813
1.52186
0.00586337
-0.00954205
-1.51907
1.52275
0.0126476
-0.015837
-1.27067
1.27386
0.0185949
-0.0214677
-1.06606
1.06893
0.02394
-0.0264823
-0.897316
0.899858
0.0286431
-0.0308681
-0.758755
0.76098
0.0328137
-0.0348495
-0.645847
0.647883
0.036364
-0.0365726
-0.550951
0.55116
0.0341917
-0.0272373
-0.435501
0.428546
0.0175941
-0.00744316
-0.23988
0.229729
0.00189282
-0.0409186
0.0390258
-0.0380675
0.0367118
0.00135574
-0.012974
0.02099
-0.299299
0.291283
-0.0277775
0.0307155
-0.452654
0.449716
-0.0309355
0.0298213
-0.549426
0.55054
-0.0278296
0.0259137
-0.643677
0.645593
-0.0237215
0.0216058
-0.758331
0.760447
-0.019131
0.0166921
-0.898635
0.901074
-0.0138025
0.0109751
-1.06875
1.07157
-0.00767778
0.00449303
-1.27488
1.27807
-0.000796393
-0.00280133
-1.52551
1.5291
0.00634097
-0.00986486
-1.52636
1.52988
0.012816
-0.0158009
-1.27698
1.27997
0.0183145
-0.0208499
-1.07165
1.07419
0.0229771
-0.0251365
-0.902171
0.904331
0.0269915
-0.0289248
-0.763031
0.764964
0.0306217
-0.0323964
-0.64977
0.651544
0.033257
-0.0327355
-0.551015
0.550493
0.0294435
-0.0221898
-0.421389
0.414135
0.013737
-0.00573044
-0.220754
0.212748
0.00146328
-0.0373768
0.0359135
-0.0355272
0.0344819
0.00104532
-0.0101471
0.0169372
-0.283903
0.277113
-0.0234769
0.0268833
-0.44652
0.443113
-0.027691
0.02702
-0.551417
0.552088
-0.0252775
0.0235175
-0.647461
0.649221
-0.0214861
0.0195126
-0.7625
0.764473
-0.0171897
0.0149059
-0.903379
0.905663
-0.0122177
0.00958205
-1.07424
1.07687
-0.00648141
0.00345138
-1.28114
1.28417
9.60131e-05
-0.00354978
-1.53261
1.53606
0.0069337
-0.0102652
-1.53332
1.53665
0.0130063
-0.0157224
-1.28285
1.28557
0.0179722
-0.0202209
-1.07659
1.07884
0.022112
-0.0240324
-0.906368
0.908289
0.0256748
-0.0273827
-0.766763
0.768471
0.0288721
-0.0303173
-0.653169
0.654615
0.0306708
-0.02945
-0.549636
0.548415
0.0255609
-0.0184128
-0.406913
0.399765
0.0110777
-0.00458694
-0.205572
0.199081
0.00117565
-0.0346125
0.0334369
-0.0335638
0.0327478
0.000815918
-0.00805126
0.0137666
-0.270889
0.265174
-0.0198322
0.0234479
-0.439593
0.435977
-0.0247424
0.0243208
-0.552663
0.553084
-0.0228502
0.0212002
-0.650971
0.652621
-0.0192695
0.0173954
-0.766404
0.768278
-0.0151906
0.0130221
-0.907826
0.909995
-0.0104659
0.00796419
-1.07936
1.08186
-0.00503065
0.0021643
-1.28706
1.28993
0.00119006
-0.00445507
-1.53941
1.54267
0.00763382
-0.0107261
-1.53987
1.54296
0.0132358
-0.0156933
-1.28818
1.29064
0.0177151
-0.0197262
-1.08098
1.083
0.0214088
-0.0231181
-0.910102
0.911811
0.0245857
-0.0261179
-0.77007
0.771602
0.0274339
-0.0285262
-0.655866
0.656958
0.0285288
-0.0266658
-0.546883
0.54502
0.0224132
-0.0155743
-0.392769
0.38593
0.00918598
-0.00378653
-0.193188
0.187789
0.000974271
-0.0323766
0.0314023
-0.032031
0.0313924
0.000638673
-0.00643273
0.0112259
-0.259949
0.255155
-0.0167063
0.0203369
-0.432354
0.428724
-0.0219789
0.0218068
-0.553419
0.553591
-0.0205982
0.0190325
-0.654275
0.655841
-0.0171795
0.0153685
-0.770121
0.771932
-0.0132322
0.01113
-0.912051
0.914154
-0.00865562
0.00624265
-1.08424
1.08665
-0.00342594
0.000691953
-1.29267
1.29541
0.0024843
-0.00555663
-1.5458
1.54888
0.00852221
-0.0113793
-1.54594
1.54879
0.0136827
-0.0159278
-1.29302
1.29527
0.0177643
-0.019576
-1.08494
1.08675
0.0210758
-0.0225868
-0.913425
0.914936
0.0238805
-0.0252309
-0.773026
0.774377
0.0263954
-0.0270884
-0.657832
0.658525
0.0267329
-0.0243419
-0.542918
0.540527
0.0198869
-0.0134358
-0.379297
0.372846
0.00781556
-0.00321497
-0.182831
0.17823
0.000831399
-0.0305133
0.0296819
-0.0308354
0.0303406
0.000494801
-0.00512635
0.00912039
-0.250791
0.246797
-0.0139636
0.0174498
-0.425179
0.421693
-0.0192843
0.0193139
-0.553706
0.553677
-0.0183176
0.0168022
-0.657439
0.658955
-0.0149893
0.0132115
-0.773715
0.775493
-0.0111184
0.00906914
-0.916139
0.918188
-0.00666996
0.00434025
-1.08894
1.09127
-0.00162862
-0.000990633
-1.29802
1.30064
0.00401579
-0.00691249
-1.55183
1.55472
0.00967922
-0.0123145
-1.55154
1.55417
0.014407
-0.0164152
-1.29743
1.29944
0.0180359
-0.0196192
-1.08848
1.09006
0.020926
-0.0222452
-0.916374
0.917694
0.023385
-0.0245842
-0.775629
0.776828
0.0255826
-0.0259206
-0.659007
0.659345
0.0252041
-0.0223989
-0.537951
0.535146
0.017866
-0.0118185
-0.366619
0.360572
0.00681135
-0.00280233
-0.173962
0.169953
0.000729254
-0.0289152
0.028186
-0.0299154
0.0295427
0.000372711
-0.00402522
0.00731208
-0.243184
0.239897
-0.0115022
0.0147347
-0.418359
0.415126
-0.01664
0.016837
-0.553626
0.553429
-0.0159392
0.0145083
-0.660505
0.661936
-0.0127073
0.0109346
-0.777249
0.779022
-0.00885519
0.00683076
-0.920112
0.922137
-0.00447306
0.0021953
-1.09347
1.09574
0.000434245
-0.00295949
-1.30314
1.30566
0.00584176
-0.00856114
-1.55749
1.56021
0.0111227
-0.0135298
-1.55669
1.5591
0.0154156
-0.0172023
-1.30138
1.30316
0.0186261
-0.0200026
-1.09158
1.09296
0.0211304
-0.0222683
-0.918945
0.920083
0.0232515
-0.0242757
-0.777932
0.778956
0.0250287
-0.0250947
-0.659545
0.659611
0.0240027
-0.0208478
-0.53219
0.529035
0.0162953
-0.0106152
-0.354736
0.349056
0.0060862
-0.00251208
-0.166196
0.162622
0.000660019
-0.0275057
0.0268456
-0.0292315
0.0289684
0.000263055
-0.00305125
0.00569253
-0.236958
0.234317
-0.00921916
0.0121055
-0.412095
0.409208
-0.0139677
0.0142758
-0.553242
0.552934
-0.0134636
0.0121219
-0.663403
0.664745
-0.0103401
0.00855731
-0.780771
0.782554
-0.0064561
0.00441407
-0.92405
0.926092
-0.00205222
-0.000204412
-1.09791
1.10016
0.00279622
-0.0052485
-1.30807
1.31053
0.00801507
-0.0105906
-1.5628
1.56538
0.0129736
-0.0151611
-1.56138
1.56357
0.0168343
-0.0183835
-1.30487
1.30642
0.0196044
-0.0207766
-1.09427
1.09544
0.0217278
-0.0226801
-0.921159
0.922112
0.0234933
-0.024302
-0.779894
0.780702
0.0247802
-0.0245771
-0.659508
0.659305
0.0231079
-0.0196456
-0.525758
0.522295
0.0151027
-0.00973612
-0.343573
0.338207
0.00557263
-0.00231347
-0.159242
0.155982
0.000615057
-0.0262249
0.0256098
-0.0287629
0.0286043
0.000158592
-0.00214014
0.00416768
-0.232006
0.229979
-0.00701744
0.00947809
-0.406568
0.404108
-0.0111755
0.011499
-0.552699
0.552375
-0.0107192
0.00940952
-0.666162
0.667471
-0.00760552
0.00578131
-0.784312
0.786136
-0.00363846
0.0015708
-0.928011
0.930079
0.000799345
-0.00305381
-1.10231
1.10456
0.00560839
-0.00800135
-1.31286
1.31526
0.01066
-0.0130825
-1.56783
1.57025
0.0152699
-0.0172249
-1.56563
1.56758
0.0186723
-0.0199678
-1.3079
1.30919
0.0209514
-0.0218642
-1.09654
1.09745
0.0225918
-0.0233214
-0.922983
0.923713
0.0239521
-0.0245859
-0.781432
0.782066
0.0247734
-0.0242753
-0.658881
0.658383
0.0224535
-0.0187332
-0.51875
0.515029
0.0142158
-0.00910727
-0.333022
0.327913
0.00521898
-0.00218367
-0.152875
0.14984
0.000588117
-0.0250266
0.0244384
-0.0285029
0.02845
5.28837e-05
-0.0012395
0.00266055
-0.228273
0.226852
-0.00481449
0.00678698
-0.401932
0.399959
-0.00822425
0.00848696
-0.552194
0.551931
-0.00769406
0.00637966
-0.6689
0.670215
-0.00452424
0.00264378
-0.787928
0.789809
-0.000441717
-0.00167324
-0.932005
0.93412
0.0040889
-0.00636971
-1.10669
1.10897
0.00893006
-0.0112909
-1.31754
1.3199
0.0138582
-0.0161339
-1.57254
1.57481
0.018125
-0.0198335
-1.56939
1.5711
0.0210449
-0.022075
-1.3104
1.31143
0.022815
-0.023459
-1.09827
1.09892
0.0239393
-0.0244104
-0.924374
0.924845
0.0248398
-0.0252924
-0.782617
0.783069
0.0251755
-0.0243413
-0.657597
0.656763
0.022153
-0.0181689
-0.511257
0.507273
0.0136461
-0.00871716
-0.322963
0.318034
0.00501595
-0.0021213
-0.146921
0.144026
0.000580619
-0.0238758
0.0232951
-0.0284542
0.0285101
-5.59033e-05
-0.00031081
0.00111044
-0.22575
0.224951
-0.00252889
0.00393597
-0.398308
0.396901
-0.00501197
0.00515253
-0.551864
0.551724
-0.00433439
0.00301142
-0.671671
0.672994
-0.00111033
-0.000854325
-0.791652
0.793617
0.00317726
-0.00540558
-0.936114
0.938342
0.00793314
-0.0102886
-1.11114
1.1135
0.0128889
-0.0152407
-1.32215
1.3245
0.0177399
-0.0198877
-1.57695
1.5791
0.0216845
-0.0231364
-1.57266
1.57411
0.0240843
-0.0248204
-1.31236
1.3131
0.0252904
-0.0256478
-1.09949
1.09985
0.0258682
-0.0260666
-0.925251
0.92545
0.0262657
-0.0264028
-0.783243
0.78338
0.0260142
-0.0247237
-0.655588
0.654298
0.0221292
-0.017874
-0.503266
0.499011
0.0133271
-0.00851689
-0.313254
0.308443
0.00493112
-0.00210977
-0.141223
0.138401
0.000586519
-0.0227358
0.0221492
-0.0286327
0.0288172
-0.000184493
0.000653418
-0.000530333
-0.22447
0.224347
-9.28271e-05
0.000851273
-0.395846
0.395088
-0.00143739
0.00133777
-0.55187
0.551969
-0.000399835
-0.00103161
-0.674524
0.675956
0.00305019
-0.00514304
-0.79556
0.797653
0.00760607
-0.00995054
-0.940437
0.942781
0.0125878
-0.0150228
-1.11573
1.11816
0.0176789
-0.0200403
-1.32674
1.3291
0.022483
-0.0244981
-1.58111
1.58312
0.0260791
-0.0272408
-1.57539
1.57655
0.0278933
-0.0282637
-1.3137
1.31407
0.0284026
-0.0284095
-1.1001
1.10011
0.0283303
-0.0282213
-0.925572
0.925463
0.0281547
-0.0279538
-0.783159
0.782958
0.0272544
-0.0254437
-0.652712
0.650902
0.0224544
-0.0179277
-0.494779
0.490252
0.0133099
-0.00853142
-0.303758
0.298979
0.0049787
-0.00215692
-0.135643
0.132821
0.000608945
-0.0215795
0.0209705
-0.0290747
0.0294076
-0.000332913
0.00176372
-0.00228322
-0.224551
0.225071
0.00253857
-0.00253771
-0.394702
0.394701
0.002572
-0.00302196
-0.552493
0.552943
0.00416954
-0.00576412
-0.677658
0.679253
0.00795455
-0.0102072
-0.799711
0.801963
0.0128456
-0.0153466
-0.944973
0.947474
0.018149
-0.0207184
-1.12047
1.12304
0.0234843
-0.0258879
-1.33135
1.33375
0.0282831
-0.0301393
-1.58497
1.58683
0.0314766
-0.0323091
-1.5775
1.57834
0.0326468
-0.0326416
-1.3143
1.31429
0.03242
-0.0320391
-1.09996
1.09958
0.0316094
-0.031134
-0.925213
0.924738
0.0307544
-0.0301352
-0.782332
0.781713
0.0290406
-0.0266805
-0.648899
0.646539
0.0232384
-0.0183636
-0.48576
0.480886
0.0135977
-0.0087573
-0.294302
0.289462
0.005155
-0.00226054
-0.130039
0.127144
0.000647246
-0.0203751
0.0197279
-0.0298082
0.0303129
-0.000504741
0.0030405
-0.00437426
-0.226009
0.227343
0.00556478
-0.00638379
-0.395067
0.395886
0.00714172
-0.00800126
-0.553913
0.554772
0.00936928
-0.01113
-0.681163
0.682924
0.0135327
-0.0160203
-0.804193
0.806681
0.0189462
-0.0217113
-0.949851
0.952616
0.0247813
-0.0275557
-1.1255
1.12827
0.0304863
-0.0329675
-1.33604
1.33852
0.0353475
-0.0370751
-1.58852
1.59025
0.0381624
-0.0386299
-1.57894
1.5794
0.0385867
-0.0381556
-1.3141
1.31367
0.037538
-0.0367323
-1.09898
1.09817
0.0359273
-0.0350353
-0.924041
0.923149
0.03427
-0.0331039
-0.780579
0.779413
0.0314807
-0.0284805
-0.644041
0.641041
0.0245146
-0.0192256
-0.476063
0.470774
0.0142276
-0.00921175
-0.284697
0.279681
0.00546366
-0.00241792
-0.124265
0.121219
0.000698944
-0.0190919
0.0183929
-0.0308984
0.0316321
-0.000733695
0.00458593
-0.00682495
-0.229105
0.231344
0.00908982
-0.0108331
-0.39713
0.398874
0.0124465
-0.0138746
-0.556312
0.55774
0.0156321
-0.0176814
-0.685093
0.687142
0.0204149
-0.0232287
-0.809153
0.811967
0.026522
-0.0296094
-0.955265
0.958353
0.0329991
-0.0360138
-1.13094
1.13396
0.0391276
-0.0416831
-1.34086
1.34342
0.0440169
-0.0455586
-1.59177
1.59331
0.046326
-0.0463608
-1.57959
1.57962
0.0458668
-0.0449531
-1.31297
1.31206
0.0438722
-0.0425609
-1.09708
1.09576
0.0413128
-0.0399504
-0.92195
0.920587
0.0387283
-0.0369905
-0.777708
0.77597
0.0347516
-0.0310401
-0.637933
0.634221
0.0264851
-0.0206699
-0.465558
0.459743
0.0153034
-0.00995548
-0.274704
0.269356
0.00593611
-0.00263859
-0.118157
0.11486
0.000764703
-0.0177044
0.0169396
-0.0324429
0.0334668
-0.00102388
0.00646487
-0.00976202
-0.234015
0.237312
0.0132603
-0.0160544
-0.401159
0.403953
0.0186317
-0.0207558
-0.560042
0.562166
0.0230929
-0.0256065
-0.689741
0.692254
0.028838
-0.0320852
-0.814772
0.818019
0.0358239
-0.0392834
-0.961309
0.964769
0.0430372
-0.0463311
-1.13685
1.14015
0.0496681
-0.0523201
-1.34583
1.34848
0.0546055
-0.055929
-1.5946
1.59593
0.0563266
-0.0558566
-1.57932
1.57885
0.0548447
-0.0533193
-1.31078
1.30925
0.0517054
-0.0498181
-1.09406
1.09218
0.0480611
-0.0461704
-0.918826
0.916935
0.0444393
-0.0420941
-0.773663
0.771318
0.0391774
-0.034663
-0.63045
0.625935
0.0293848
-0.0228659
-0.453994
0.447475
0.0169524
-0.0110694
-0.263994
0.258111
0.00661464
-0.0029365
-0.111504
0.107826
0.000846672
-0.0161837
0.0153371
-0.034554
0.0359625
-0.0014085
0.00885621
-0.0134326
-0.241008
0.245585
0.0183579
-0.0223291
-0.407434
0.411405
0.0259786
-0.0289007
-0.565412
0.568335
0.0319543
-0.0350782
-0.695447
0.698571
0.0389797
-0.0428096
-0.821268
0.825098
0.0471514
-0.051122
-0.968121
0.972091
0.0553731
-0.0590349
-1.14334
1.147
0.062643
-0.0653874
-1.35097
1.35371
0.0675626
-0.0685696
-1.59695
1.59795
0.0684906
-0.0674003
-1.57798
1.57689
0.0657804
-0.0635714
-1.30726
1.30505
0.0613409
-0.0588241
-1.08979
1.08728
0.0565279
-0.054072
-0.914561
0.912105
0.051748
-0.0487334
-0.768402
0.765387
0.0450393
-0.0395701
-0.621363
0.615894
0.0334137
-0.0259866
-0.441021
0.433594
0.0192945
-0.0126129
-0.252143
0.245462
0.00752456
-0.00332095
-0.10404
0.0998362
0.000948131
-0.014496
0.0135478
-0.037412
0.0393673
-0.00195526
0.0121038
-0.0182915
-0.250496
0.256683
0.0249103
-0.0302472
-0.416355
0.421692
0.0351549
-0.0390487
-0.572705
0.576599
0.0429903
-0.0468982
-0.7025
0.706408
0.0516817
-0.0562809
-0.828939
0.833538
0.0614099
-0.0660214
-0.975998
0.98061
0.0708525
-0.0748899
-1.15055
1.15459
0.0787088
-0.0814379
-1.35622
1.35895
0.0833564
-0.0838901
-1.59856
1.5991
0.0831549
-0.0812698
-1.57529
1.57341
0.0789142
-0.0759238
-1.30231
1.29932
0.0730352
-0.0698422
-1.08412
1.08093
0.0669628
-0.0638847
-0.909026
0.905947
0.0608601
-0.0570829
-0.761758
0.757981
0.0524758
-0.0458954
-0.610377
0.603797
0.0386806
-0.030073
-0.426228
0.41762
0.0223108
-0.0145375
-0.238629
0.230856
0.00862229
-0.00376845
-0.0954895
0.0906357
0.00106153
-0.0126066
0.0115451
-0.0413226
0.0441204
-0.00279784
0.0168278
-0.0251283
-0.263138
0.271438
0.0338234
-0.0408148
-0.428536
0.435528
0.0472714
-0.0523936
-0.58239
0.587513
0.0576048
-0.0626668
-0.711292
0.716354
0.0685748
-0.0740836
-0.838143
0.843652
0.0800657
-0.0852968
-0.985146
0.990377
0.0906001
-0.0948558
-1.15843
1.16268
0.0986567
-0.101132
-1.36131
1.36379
0.102498
-0.102278
-1.59909
1.59887
0.100631
-0.0977159
-1.5709
1.56798
0.0944408
-0.0905032
-1.2957
1.29176
0.0868158
-0.0828497
-1.07697
1.07301
0.079363
-0.0756602
-0.902048
0.898346
0.0719739
-0.0672904
-0.753438
0.748755
0.0616701
-0.0537808
-0.597165
0.589276
0.0452212
-0.0350527
-0.409043
0.398875
0.0258804
-0.0167246
-0.222898
0.213742
0.00982207
-0.00423844
-0.0856365
0.0800529
0.0011758
-0.0104972
0.00932139
-0.04684
0.0510778
-0.0042378
0.0242708
-0.0354931
-0.280032
0.291254
0.046923
-0.0561208
-0.445036
0.454233
0.0644597
-0.071057
-0.595138
0.601736
0.0778959
-0.0844364
-0.722411
0.728951
0.091594
-0.097958
-0.849126
0.85549
0.104612
-0.110216
-0.995409
1.00101
0.115659
-0.119795
-1.16655
1.17069
0.12319
-0.125047
-1.36569
1.36755
0.125458
-0.124118
-1.59789
1.59655
0.121243
-0.117026
-1.56431
1.56009
0.112622
-0.107539
-1.28711
1.28203
0.10292
-0.0980722
-1.06816
1.06331
0.0939298
-0.089563
-0.893524
0.889157
0.0852162
-0.0795087
-0.743128
0.73742
0.0726258
-0.0630559
-0.581195
0.571626
0.0527717
-0.0406475
-0.388699
0.376575
0.0297498
-0.0189756
-0.204469
0.193695
0.010985
-0.00465993
-0.0743923
0.0680672
0.00126703
-0.00817872
0.0069117
-0.0550334
0.0623302
-0.00729684
0.0376194
-0.0531869
-0.30332
0.318888
0.0684391
-0.0805063
-0.46733
0.479398
0.0907838
-0.098809
-0.611443
0.619469
0.107257
-0.115051
-0.736177
0.743972
0.123104
-0.12988
-0.861603
0.868378
0.136641
-0.142066
-1.00616
1.01158
0.147046
-0.15051
-1.17416
1.17762
0.152928
-0.153643
-1.36856
1.36927
0.152596
-0.149739
-1.59421
1.59136
0.14535
-0.139623
-1.55496
1.54923
0.133941
-0.12757
-1.27616
1.26979
0.121863
-0.115965
-1.05747
1.05157
0.110987
-0.105758
-0.883335
0.878106
0.100614
-0.0934927
-0.730464
0.723343
0.0849547
-0.0732541
-0.561565
0.549865
0.0608731
-0.0464797
-0.364377
0.349984
0.0336577
-0.0211614
-0.18303
0.170533
0.0120463
-0.00500402
-0.0618679
0.0548256
0.0013195
-0.00571253
0.00439303
-0.0691733
0.0732052
-0.00403195
0.0285704
-0.041999
-0.337002
0.350431
0.055483
-0.0663323
-0.49662
0.507469
0.0760371
-0.0852571
-0.630938
0.640158
0.0956868
-0.104927
-0.751439
0.760679
0.115141
-0.124197
-0.874312
0.883369
0.133737
-0.142098
-1.01607
1.02444
0.150631
-0.157698
-1.17999
1.18706
0.164316
-0.169073
-1.36879
1.37355
0.172443
-0.173415
-1.58724
1.58821
0.171908
-0.1684
-1.54237
1.53887
0.163864
-0.157954
-1.26253
1.25662
0.152275
-0.145484
-1.04459
1.0378
0.139516
-0.132839
-0.871064
0.864387
0.125979
-0.116183
-0.714505
0.704709
0.103911
-0.0875991
-0.537306
0.520995
0.0708992
-0.0519256
-0.335223
0.316249
0.0360088
-0.0214965
-0.158482
0.14397
0.0116082
-0.00455354
-0.0484559
0.0414012
0.00110781
-0.00322448
0.00211667
-0.0802973
0.0783672
0.00193014
0.00683878
-0.015574
-0.366723
0.375458
0.0257699
-0.0334698
-0.523035
0.530734
0.0412746
-0.0492205
-0.651683
0.659629
0.0587575
-0.06747
-0.769637
0.77835
0.076679
-0.0850834
-0.891921
0.900326
0.0939427
-0.101393
-1.03255
1.04
0.109175
-0.115242
-1.19395
1.20002
0.120821
-0.124463
-1.37795
1.38159
0.126276
-0.12577
-1.58817
1.58766
0.122685
-0.117509
-1.53424
1.52907
0.111317
-0.103719
-1.2499
1.2423
0.0965598
-0.0885276
-1.02996
1.02192
0.0811642
-0.0730632
-0.854407
0.846305
0.0655937
-0.0569755
-0.690911
0.682292
0.0476695
-0.0362666
-0.502554
0.491152
0.0258456
-0.0161107
-0.29691
0.287175
0.00958338
-0.00482582
-0.130159
0.125402
0.00221294
-0.000740767
-0.0348904
0.0334182
0.000168352
-0.000998789
0.000830437
-0.0815623
0.0786588
0.00290347
-0.00213612
-0.00282438
-0.386696
0.391657
0.00969505
-0.0154604
-0.542521
0.548286
0.0215066
-0.0283682
-0.669434
0.676296
0.036629
-0.044216
-0.786243
0.793831
0.0525077
-0.0599439
-0.908058
0.915494
0.0675556
-0.074309
-1.04732
1.05407
0.0811363
-0.0865198
-1.20566
1.21105
0.0909807
-0.0935914
-1.38451
1.38712
0.0946033
-0.0931939
-1.58629
1.58488
0.0892796
-0.083342
-1.52302
1.51708
0.0766303
-0.0687506
-1.2343
1.22642
0.061049
-0.0528085
-1.01321
1.00497
0.0453142
-0.0370346
-0.83703
0.82875
0.0295826
-0.0214269
-0.669612
0.661457
0.0137331
-0.00543949
-0.477511
0.469218
-2.35868e-05
0.00312503
-0.276387
0.273286
-0.00395018
0.00345896
-0.119502
0.119993
-0.00240175
0.00115316
-0.0314774
0.0327259
-0.000321831
-0.000556254
0.000878085
-0.0802397
0.0775072
0.00273247
-0.00558457
0.00325023
-0.399929
0.402263
0.00109265
-0.00556435
-0.557216
0.561688
0.0108416
-0.0166828
-0.684157
0.689998
0.0238395
-0.0304662
-0.800909
0.807535
0.0376919
-0.0441855
-0.922479
0.928972
0.0511988
-0.0570093
-1.06043
1.06624
0.0630583
-0.0673808
-1.21604
1.22036
0.0712466
-0.0734386
-1.38953
1.39172
0.0740126
-0.0722693
-1.58312
1.58138
0.0686928
-0.0633686
-1.51085
1.50552
0.0573037
-0.049775
-1.21858
1.21105
0.0425748
-0.0345033
-0.996326
0.988254
0.026549
-0.0176737
-0.818995
0.81012
0.00920297
-0.000806142
-0.649241
0.640844
-0.00559214
0.0107584
-0.459254
0.454087
-0.01267
0.0120367
-0.267449
0.268082
-0.0101514
0.0072886
-0.119046
0.121909
-0.00469564
0.00216541
-0.033229
0.0357592
-0.00062467
-0.00103186
0.00165653
-0.0787239
0.0763257
0.00239819
-0.00661366
0.00582364
-0.408752
0.409542
-0.00258297
-0.000688374
-0.569227
0.572498
0.00513777
-0.0105405
-0.696677
0.702079
0.016662
-0.022598
-0.813564
0.8195
0.0289757
-0.0347049
-0.935084
0.940813
0.0408006
-0.046039
-1.07194
1.07718
0.0512396
-0.0553129
-1.22458
1.22865
0.0587697
-0.0607731
-1.39366
1.39567
0.0614083
-0.0600181
-1.57974
1.57835
0.0570592
-0.0523613
-1.49996
1.49526
0.0470645
-0.0404062
-1.20384
1.19718
0.0336359
-0.0254954
-0.979729
0.971589
0.0174158
-0.00811596
-0.799797
0.790497
-0.000275277
0.00815077
-0.629539
0.621663
-0.013504
0.01688
-0.446466
0.44309
-0.0174057
0.0153186
-0.265052
0.267139
-0.0123142
0.00874869
-0.123171
0.126737
-0.00557143
0.00255047
-0.0375053
0.0405263
-0.00075941
-0.00209157
0.00285098
-0.0773498
0.0753002
0.00204967
-0.00646949
0.00616941
-0.414785
0.415085
-0.00426335
0.00151403
-0.578566
0.581315
0.00281396
-0.00750978
-0.707503
0.712199
0.0128901
-0.0181488
-0.824725
0.829984
0.0239071
-0.0290843
-0.946242
0.951419
0.0347103
-0.0393574
-1.08217
1.08681
0.0441256
-0.0479178
-1.2325
1.23629
0.0511651
-0.0531422
-1.39754
1.39952
0.0539371
-0.0532567
-1.57712
1.57644
0.0507434
-0.0467259
-1.49043
1.48642
0.0418392
-0.0355231
-1.19048
1.18416
0.0291984
-0.0211205
-0.963169
0.955091
0.0132053
-0.00446469
-0.780527
0.771786
-0.00314238
0.0100143
-0.611886
0.605014
-0.0142901
0.0169776
-0.437159
0.434471
-0.0169914
0.0148624
-0.265497
0.267626
-0.011997
0.00846405
-0.128657
0.13219
-0.0053389
0.00245969
-0.0424685
0.0453477
-0.000737407
-0.00331396
0.00405136
-0.0763174
0.0747189
0.00159857
-0.00560026
0.00564058
-0.419214
0.419174
-0.0041236
0.00203
-0.586807
0.588901
0.00203811
-0.00633296
-0.717033
0.721328
0.0114962
-0.0160941
-0.834888
0.839486
0.0212069
-0.0258325
-0.956589
0.961215
0.0312009
-0.03548
-1.09151
1.09579
0.0398189
-0.0435384
-1.23996
1.24368
0.0471183
-0.0491635
-1.40163
1.40368
0.0502874
-0.0498
-1.57553
1.57504
0.0478601
-0.0438677
-1.48227
1.47827
0.0393529
-0.0334169
-1.17767
1.17173
0.027219
-0.0197557
-0.946966
0.939503
0.0123929
-0.004331
-0.762541
0.754479
-0.00215377
0.00814392
-0.596636
0.590645
-0.0118805
0.0137921
-0.429647
0.427735
-0.0139576
0.0124541
-0.26653
0.268033
-0.0100666
0.00707854
-0.133842
0.13683
-0.00446189
0.00207722
-0.0469774
0.0493621
-0.00063921
-0.00441961
0.00505882
-0.0757803
0.0745214
0.00125888
-0.00454442
0.00472865
-0.422657
0.422473
-0.00340831
0.00144196
-0.593968
0.595935
0.00242257
-0.00626909
-0.725675
0.729522
0.010728
-0.0151709
-0.844039
0.848482
0.0199091
-0.0246675
-0.965665
0.970423
0.0293342
-0.0334723
-1.10018
1.10432
0.038014
-0.0415945
-1.24734
1.25092
0.0448437
-0.0474268
-1.40572
1.4083
0.048843
-0.048675
-1.57466
1.57449
0.0468526
-0.043309
-1.47443
1.47088
0.0390011
-0.0333386
-1.16543
1.15977
0.0276118
-0.0207866
-0.931947
0.925122
0.0142804
-0.00746511
-0.746473
0.739658
0.00165493
0.00339594
-0.583541
0.57849
-0.00657904
0.00853706
-0.423366
0.421408
-0.00901919
0.00810387
-0.26688
0.267795
-0.00658653
0.00461961
-0.137655
0.139622
-0.00293973
0.00139188
-0.0503911
0.0519389
-0.000449922
-0.00529278
0.0057427
-0.0757586
0.0747095
0.00104913
-0.00327578
0.00323353
-0.425674
0.425716
-0.00212281
0.000228105
-0.600497
0.602392
0.00332125
-0.00699856
-0.733701
0.737378
0.0112431
-0.0152567
-0.8527
0.856713
0.0200854
-0.0240609
-0.974623
0.978599
0.0287149
-0.0327161
-1.10864
1.11264
0.037215
-0.0410647
-1.25453
1.25838
0.0446784
-0.0471045
-1.4107
1.41313
0.0488642
-0.0490247
-1.57424
1.5744
0.0477009
-0.0443117
-1.46715
1.46376
0.04034
-0.0350724
-1.15416
1.1489
0.0298675
-0.0236912
-0.918181
0.912005
0.0180775
-0.0120762
-0.73271
0.726708
0.00706501
-0.00246956
-0.572542
0.567947
-0.000698807
0.00259826
-0.417144
0.415245
-0.00344673
0.00336051
-0.266049
0.266136
-0.00289562
0.00202173
-0.139504
0.140377
-0.00127082
0.000636897
-0.0521262
0.0527601
-0.000219173
-0.005785
0.00600417
-0.076012
0.0752875
0.000724414
-0.00210434
0.00164053
-0.428767
0.429231
-0.000731033
-0.00131935
-0.606135
0.608186
0.00443956
-0.00792935
-0.741097
0.744587
0.0119409
-0.0160344
-0.860565
0.864658
0.0202255
-0.0243549
-0.982785
0.986914
0.0289944
-0.0328315
-1.11709
1.12092
0.0374765
-0.0413344
-1.26208
1.26593
0.0450503
-0.0480057
-1.41598
1.41894
0.0502024
-0.0505493
-1.57457
1.57492
0.0493501
-0.046551
-1.46047
1.45767
0.0430692
-0.0382079
-1.1435
1.13864
0.0333992
-0.0280391
-0.905841
0.90048
0.022711
-0.0175184
-0.720512
0.715319
0.013013
-0.008646
-0.562827
0.55846
0.00558347
-0.00315054
-0.410962
0.408529
0.00182458
-0.00101211
-0.263832
0.263019
0.00060504
-0.00030768
-0.139249
0.138951
5.8615e-05
9.18351e-05
-0.0522463
0.0520958
-8.44352e-05
-0.00585766
0.00594209
-0.0766899
0.0761238
0.000566038
-0.00110082
0.00073218
-0.432078
0.432447
0.000746416
-0.00266636
-0.611805
0.613725
0.00586709
-0.00917106
-0.747875
0.751179
0.0129657
-0.0166195
-0.868398
0.872052
0.0209096
-0.0247302
-0.991055
0.994876
0.0293448
-0.0336453
-1.12523
1.12953
0.0379784
-0.0421929
-1.26987
1.27408
0.0463366
-0.0493649
-1.42181
1.42484
0.0518696
-0.0529045
-1.57545
1.57648
0.0520564
-0.0498139
-1.45471
1.45247
0.046535
-0.0421945
-1.13382
1.12947
0.0379237
-0.0329464
-0.894788
0.889811
0.0282285
-0.0234162
-0.709659
0.704846
0.0192242
-0.0149443
-0.553488
0.549208
0.0116737
-0.00886977
-0.404371
0.401567
0.00676269
-0.00506373
-0.259996
0.258297
0.00365396
-0.00224817
-0.136925
0.135519
0.00116449
-0.000357955
-0.0508442
0.0500377
3.04504e-05
-0.00558148
0.00555103
-0.0776455
0.0772641
0.000381415
-4.78747e-05
-0.000572982
-0.435519
0.436139
0.00197816
-0.00415353
-0.617039
0.619214
0.00721451
-0.0103086
-0.754295
0.757389
0.0141261
-0.0175905
-0.875661
0.879125
0.0217083
-0.025656
-0.999178
1.00313
0.0301967
-0.0344895
-1.13371
1.138
0.0390674
-0.0433197
-1.27824
1.28249
0.047639
-0.0513727
-1.42815
1.43188
0.0542548
-0.0555119
-1.57743
1.57868
0.0552879
-0.0533344
-1.45009
1.44814
0.0506186
-0.0468617
-1.12508
1.12132
0.0427571
-0.0381546
-0.884598
0.879996
0.0337767
-0.0291099
-0.699666
0.694999
0.0251577
-0.0208458
-0.544621
0.540309
0.0174185
-0.0140146
-0.397181
0.393777
0.0113231
-0.00868887
-0.254463
0.251829
0.00627489
-0.00394032
-0.132573
0.130238
0.00216937
-0.000807676
-0.0482067
0.046845
0.000154744
-0.00508201
0.00492726
-0.078837
0.0785925
0.00024446