/*--------------------------------*- C++ -*----------------------------------*\
  =========                 |
  \\      /  F ield         | OpenFOAM: The Open Source CFD Toolbox
   \\    /   O peration     | Website:  https://openfoam.org
    \\  /    A nd           | Version:  10
     \\/     M anipulation  |
\*---------------------------------------------------------------------------*/
FoamFile
{
    format      ascii;
    class       volVectorField;
    location    "40";
    object      U;
}
// * * * * * * * * * * * * * * * * * * * * * * * * * * * * * * * * * * * * * //

dimensions      [0 1 -1 0 0 0 0];

internalField   nonuniform List<vector> 
8800
(
(0.980152 -0.0915212 0)
(1.00234 -0.058724 0)
(0.999601 -0.0321253 0)
(0.999993 -0.0165178 0)
(1.00006 -0.00883339 0)
(1.00006 -0.00508541 0)
(1.00004 -0.00299218 0)
(1.00001 -0.00169554 0)
(0.999993 -0.000799708 0)
(1.00006 -0.000102683 0)
(0.999989 0.000600097 0)
(1 0.00134998 0)
(1.00001 0.00237999 0)
(1.00002 0.00399277 0)
(1.00003 0.006744 0)
(0.999986 0.0120469 0)
(0.999798 0.0230942 0)
(0.999037 0.0431584 0)
(1.00723 0.0790278 0)
(0.775023 0.0478396 0)
(0.358978 -0.014749 0)
(1.04649 -0.0724924 0)
(1.08848 -0.066029 0)
(1.04946 -0.0509226 0)
(1.02554 -0.0377019 0)
(1.01271 -0.0258935 0)
(1.00654 -0.0167084 0)
(1.00361 -0.0102424 0)
(1.00218 -0.00562562 0)
(1.00151 -0.00204188 0)
(1.00138 0.00116607 0)
(1.00174 0.00446893 0)
(1.00271 0.00835972 0)
(1.00473 0.0136842 0)
(1.00896 0.0213767 0)
(1.01794 0.0318767 0)
(1.03579 0.0446533 0)
(1.06741 0.0580995 0)
(1.09471 0.0699644 0)
(0.84565 0.0555048 0)
(0.217762 -0.00138155 0)
(1.07567 -0.0506659 0)
(1.09942 -0.0489521 0)
(1.06438 -0.0400369 0)
(1.03986 -0.0325753 0)
(1.02376 -0.0253653 0)
(1.01399 -0.0181716 0)
(1.00849 -0.0115741 0)
(1.00564 -0.00583305 0)
(1.00447 -0.000555681 0)
(1.00479 0.00454555 0)
(1.00664 0.00983023 0)
(1.01057 0.0158097 0)
(1.01788 0.0225841 0)
(1.0305 0.0297071 0)
(1.05049 0.0368026 0)
(1.08004 0.0445824 0)
(1.10567 0.0519142 0)
(0.943313 0.0409996 0)
(0.217229 0.00140379 0)
(0.176603 -0.000629333 0)
(1.01936 -0.0354806 0)
(1.1057 -0.0414346 0)
(1.07796 -0.036421 0)
(1.0524 -0.030375 0)
(1.03516 -0.0245055 0)
(1.02332 -0.01874 0)
(1.01552 -0.0127704 0)
(1.01092 -0.00670084 0)
(1.0089 -0.000483037 0)
(1.00944 0.00566239 0)
(1.01252 0.0115699 0)
(1.01847 0.0173434 0)
(1.02806 0.0229398 0)
(1.04227 0.0285153 0)
(1.06309 0.0343125 0)
(1.09388 0.0402055 0)
(1.09447 0.0417431 0)
(0.83031 0.0227605 0)
(0.175691 0.000646916 0)
(0.154675 -0.00046327 0)
(0.958086 -0.0257119 0)
(1.10437 -0.0351526 0)
(1.08805 -0.032712 0)
(1.06119 -0.02821 0)
(1.04312 -0.0232647 0)
(1.03076 -0.0179977 0)
(1.02218 -0.0124828 0)
(1.01664 -0.00660161 0)
(1.01401 -0.00017832 0)
(1.01467 0.00625949 0)
(1.01847 0.0121241 0)
(1.02524 0.0174513 0)
(1.03537 0.022486 0)
(1.05014 0.0273414 0)
(1.07208 0.0318004 0)
(1.10106 0.0356881 0)
(1.06979 0.0339148 0)
(0.742756 0.0144284 0)
(0.153314 0.000482993 0)
(0.139971 -0.000335355 0)
(0.901 -0.0193512 0)
(1.09672 -0.0302701 0)
(1.09614 -0.0294075 0)
(1.06885 -0.0256379 0)
(1.05 -0.0215756 0)
(1.03706 -0.0169191 0)
(1.0281 -0.0117101 0)
(1.02218 -0.0060285 0)
(1.01922 0.000291663 0)
(1.01987 0.00664231 0)
(1.02389 0.0122796 0)
(1.03092 0.0172618 0)
(1.04142 0.0217567 0)
(1.05682 0.0257435 0)
(1.07963 0.0292856 0)
(1.10341 0.0320185 0)
(1.03812 0.0280477 0)
(0.676102 0.0102718 0)
(0.138057 0.000358703 0)
(0.12921 -0.000254048 0)
(0.851036 -0.0149561 0)
(1.0843 -0.0261806 0)
(1.10177 -0.0265501 0)
(1.07563 -0.023248 0)
(1.05626 -0.0196306 0)
(1.04289 -0.0154903 0)
(1.03357 -0.0106769 0)
(1.02738 -0.00522925 0)
(1.02422 0.000883676 0)
(1.02477 0.00699436 0)
(1.02882 0.0123413 0)
(1.03601 0.0169123 0)
(1.04681 0.0208178 0)
(1.0626 0.0241969 0)
(1.08587 0.0272703 0)
(1.10273 0.0291208 0)
(1.00364 0.0234665 0)
(0.624291 0.00785547 0)
(0.126625 0.000282363 0)
(0.121001 -0.000195404 0)
(0.80844 -0.0117696 0)
(1.06887 -0.0225897 0)
(1.10519 -0.0239415 0)
(1.08178 -0.0211159 0)
(1.06196 -0.0177441 0)
(1.04834 -0.0138943 0)
(1.03876 -0.00941828 0)
(1.03231 -0.00426961 0)
(1.02892 0.00159295 0)
(1.02934 0.00742999 0)
(1.03338 0.012413 0)
(1.04065 0.0165259 0)
(1.05157 0.0199665 0)
(1.06762 0.022949 0)
(1.09127 0.0257067 0)
(1.09919 0.0266536 0)
(0.968844 0.0198349 0)
(0.582857 0.00626861 0)
(0.1176 0.000229669 0)
(0.11463 -0.000151073 0)
(0.772508 -0.00938313 0)
(1.05189 -0.0194264 0)
(1.10743 -0.0215195 0)
(1.08754 -0.0190726 0)
(1.06731 -0.0158672 0)
(1.05342 -0.0122116 0)
(1.04366 -0.00797508 0)
(1.037 -0.00310131 0)
(1.03339 0.00245888 0)
(1.03363 0.00794617 0)
(1.03757 0.012522 0)
(1.0448 0.0162077 0)
(1.05576 0.0192672 0)
(1.07207 0.0219331 0)
(1.09547 0.0243817 0)
(1.09295 0.0245565 0)
(0.93514 0.016991 0)
(0.548819 0.00516786 0)
(0.110237 0.000192687 0)
(0.10965 -0.000116114 0)
(0.742324 -0.00752807 0)
(1.0344 -0.0166107 0)
(1.10867 -0.0192557 0)
(1.09297 -0.0171642 0)
(1.07243 -0.0140901 0)
(1.05827 -0.0105427 0)
(1.04833 -0.00644191 0)
(1.04147 -0.00177301 0)
(1.0376 0.00349441 0)
(1.03762 0.00862322 0)
(1.04139 0.0128176 0)
(1.04851 0.0161614 0)
(1.05948 0.0188975 0)
(1.07605 0.0212535 0)
(1.09843 0.0233319 0)
(1.08438 0.0227716 0)
(0.90316 0.0147765 0)
(0.520157 0.00438241 0)
(0.104052 0.000166821 0)
(0.105772 -8.71264e-05 0)
(0.717099 -0.00602769 0)
(1.01728 -0.0140657 0)
(1.10901 -0.017027 0)
(1.09821 -0.0152403 0)
(1.07742 -0.0122094 0)
(1.06299 -0.00873536 0)
(1.05283 -0.00475997 0)
(1.04575 -0.00026395 0)
(1.04162 0.00474474 0)
(1.04133 0.00953212 0)
(1.04485 0.0133462 0)
(1.05182 0.0163022 0)
(1.0628 0.0186838 0)
(1.07956 0.0207641 0)
(1.10007 0.0224849 0)
(1.07391 0.0212454 0)
(0.873115 0.0130654 0)
(0.495462 0.00381589 0)
(0.0987069 0.000148775 0)
(0.102807 -6.20244e-05 0)
(0.696209 -0.00476105 0)
(1.00116 -0.0117275 0)
(1.10866 -0.0148302 0)
(1.10328 -0.0132669 0)
(1.08235 -0.0102301 0)
(1.06758 -0.00678663 0)
(1.05717 -0.00288148 0)
(1.04982 0.00148833 0)
(1.04535 0.00625281 0)
(1.04469 0.0106838 0)
(1.04791 0.0141282 0)
(1.0547 0.016732 0)
(1.06568 0.0187852 0)
(1.08264 0.0205787 0)
(1.10081 0.0219038 0)
(1.06192 0.0200187 0)
(0.844937 0.0117706 0)
(0.473697 0.00341531 0)
(0.0939524 0.000137876 0)
(0.100636 -3.87705e-05 0)
(0.679215 -0.0036383 0)
(0.986499 -0.00951199 0)
(1.10774 -0.0125612 0)
(1.10806 -0.0111873 0)
(1.08728 -0.00817217 0)
(1.07216 -0.00469769 0)
(1.06145 -0.000784869 0)
(1.05375 0.00350066 0)
(1.04885 0.00807301 0)
(1.04774 0.0121965 0)
(1.0506 0.0152554 0)
(1.05718 0.0174874 0)
(1.06815 0.0192182 0)
(1.08525 0.0207053 0)
(1.10049 0.0216026 0)
(1.04863 0.0190573 0)
(0.818417 0.010807 0)
(0.454084 0.00313769 0)
(0.089598 0.000131999 0)
(0.0992003 -1.58895e-05 0)
(0.665852 -0.00258899 0)
(0.973717 -0.007347 0)
(1.1066 -0.0101384 0)
(1.11264 -0.00883745 0)
(1.09225 -0.00578412 0)
(1.07678 -0.00224257 0)
(1.0657 0.00168595 0)
(1.05756 0.00590909 0)
(1.05213 0.0103007 0)
(1.05048 0.0140881 0)
(1.05292 0.0167413 0)
(1.05925 0.0185439 0)
(1.07016 0.0198694 0)
(1.08727 0.0210414 0)
(1.09913 0.0215314 0)
(1.03424 0.0183194 0)
(0.793308 0.010108 0)
(0.436029 0.00295396 0)
(0.085496 0.000129728 0)
(0.0984854 8.52629e-06 0)
(0.655982 -0.00155406 0)
(0.963154 -0.00516231 0)
(1.10562 -0.00753589 0)
(1.11724 -0.00621474 0)
(1.09736 -0.00309206 0)
(1.08147 0.000548137 0)
(1.06997 0.00454608 0)
(1.06135 0.00877454 0)
(1.05527 0.0130118 0)
(1.05294 0.0164582 0)
(1.05482 0.0186802 0)
(1.06079 0.0200421 0)
(1.07167 0.0209335 0)
(1.08883 0.0217441 0)
(1.09665 0.0217517 0)
(1.01891 0.0178895 0)
(0.76929 0.00966255 0)
(0.419035 0.00285963 0)
(0.0815232 0.000132359 0)
(0.0985063 2.80737e-05 0)
(0.649608 -0.000489006 0)
(0.955116 -0.00287814 0)
(1.10504 -0.00466294 0)
(1.12192 -0.00329353 0)
(1.10264 -0.000106469 0)
(1.08631 0.00373179 0)
(1.07431 0.00790982 0)
(1.06505 0.0122035 0)
(1.05818 0.0163219 0)
(1.05503 0.0194333 0)
(1.05627 0.0211902 0)
(1.06182 0.0220612 0)
(1.07256 0.0224831 0)
(1.08954 0.0228415 0)
(1.09285 0.0222919 0)
(1.00257 0.0176914 0)
(0.746051 0.00942095 0)
(0.402687 0.00283474 0)
(0.0775651 0.0001376 0)
(0.0993444 6.80693e-05 0)
(0.646873 0.000629702 0)
(0.949966 -0.000429688 0)
(1.10524 -0.00140705 0)
(1.1268 0.000190105 0)
(1.1082 0.00354671 0)
(1.09141 0.00762254 0)
(1.07878 0.0119757 0)
(1.06872 0.0163549 0)
(1.06086 0.0203766 0)
(1.0567 0.0231261 0)
(1.05715 0.0243406 0)
(1.06223 0.0246127 0)
(1.0728 0.024476 0)
(1.08921 0.0243465 0)
(1.08758 0.0231338 0)
(0.985264 0.0178032 0)
(0.723233 0.00940952 0)
(0.386577 0.00288868 0)
(0.0735221 0.000146738 0)
(0.101156 9.79684e-05 0)
(0.648112 0.00183047 0)
(0.948052 0.00221563 0)
(1.10678 0.0022381 0)
(1.13224 0.00420373 0)
(1.11415 0.00786111 0)
(1.09679 0.0122278 0)
(1.08345 0.0168491 0)
(1.07248 0.0214088 0)
(1.06344 0.0253409 0)
(1.05805 0.0276628 0)
(1.05749 0.0283067 0)
(1.0619 0.0279313 0)
(1.07225 0.0271713 0)
(1.08787 0.0264093 0)
(1.0808 0.0244318 0)
(0.966841 0.0182787 0)
(0.700413 0.00962873 0)
(0.370301 0.00301932 0)
(0.0692864 0.000159564 0)
(0.104027 0.00014483 0)
(0.653768 0.00330958 0)
(0.949855 0.00521494 0)
(1.11 0.00640076 0)
(1.13836 0.00875792 0)
(1.12063 0.0127931 0)
(1.10264 0.0176262 0)
(1.08843 0.0226836 0)
(1.07627 0.0275085 0)
(1.06574 0.0314116 0)
(1.05883 0.0333155 0)
(1.05712 0.0332842 0)
(1.06073 0.0321832 0)
(1.07073 0.0307628 0)
(1.0852 0.0292251 0)
(1.07223 0.0262695 0)
(0.947024 0.0191531 0)
(0.677129 0.0101025 0)
(0.353438 0.00322581 0)
(0.0647575 0.0001745 0)
(0.108256 0.00020962 0)
(0.66426 0.00504068 0)
(0.955744 0.00870468 0)
(1.1153 0.0112891 0)
(1.14526 0.0142824 0)
(1.12783 0.0188934 0)
(1.10913 0.0243249 0)
(1.09378 0.0299073 0)
(1.08013 0.0350305 0)
(1.06777 0.0388524 0)
(1.05905 0.0402063 0)
(1.05595 0.0393965 0)
(1.05859 0.0374566 0)
(1.06806 0.0352458 0)
(1.08095 0.0328795 0)
(1.06153 0.0287596 0)
(0.925545 0.0205995 0)
(0.652766 0.0108977 0)
(0.335493 0.00352415 0)
(0.0598477 0.000190637 0)
(0.114189 0.000295151 0)
(0.680217 0.00712671 0)
(0.966479 0.0128393 0)
(1.12342 0.0169849 0)
(1.15357 0.020908 0)
(1.13607 0.0263808 0)
(1.11643 0.0325391 0)
(1.09969 0.0387179 0)
(1.08422 0.0442049 0)
(1.06966 0.0479445 0)
(1.05873 0.0486683 0)
(1.05393 0.0469214 0)
(1.05538 0.0440114 0)
(1.06422 0.0408699 0)
(1.07509 0.0376619 0)
(1.04851 0.0322371 0)
(0.901841 0.0227786 0)
(0.626498 0.0121095 0)
(0.315818 0.00393486 0)
(0.0544545 0.00020777 0)
(0.122256 0.000411747 0)
(0.702356 0.00976859 0)
(0.982584 0.0178261 0)
(1.13492 0.0237221 0)
(1.16378 0.028781 0)
(1.1456 0.0354222 0)
(1.12463 0.0425646 0)
(1.10606 0.0495609 0)
(1.08827 0.0554958 0)
(1.07097 0.059056 0)
(1.05748 0.0589568 0)
(1.05071 0.0561096 0)
(1.05086 0.0520842 0)
(1.05899 0.0479787 0)
(1.0675 0.0438143 0)
(1.03275 0.0368937 0)
(0.87523 0.0258653 0)
(0.597258 0.0138127 0)
(0.293623 0.0044687 0)
(0.0484532 0.000227407 0)
(0.133157 0.000582055 0)
(0.731767 0.0133318 0)
(1.00502 0.024142 0)
(1.15035 0.0321147 0)
(1.17641 0.0385741 0)
(1.1569 0.0467634 0)
(1.13417 0.0551831 0)
(1.11323 0.0631405 0)
(1.09251 0.0694283 0)
(1.07192 0.0725643 0)
(1.05542 0.071349 0)
(1.04637 0.0671572 0)
(1.045 0.0619519 0)
(1.05229 0.0567495 0)
(1.05793 0.0514537 0)
(1.01382 0.0428518 0)
(0.844912 0.0299375 0)
(0.563803 0.0159679 0)
(0.268163 0.00509454 0)
(0.0417405 0.000247613 0)
(0.148079 0.000851918 0)
(0.770273 0.0184543 0)
(1.03532 0.0326014 0)
(1.17072 0.0431863 0)
(1.19226 0.0517639 0)
(1.1704 0.0617733 0)
(1.14512 0.0716132 0)
(1.12088 0.0803653 0)
(1.09642 0.086634 0)
(1.07194 0.0888762 0)
(1.05205 0.0860891 0)
(1.04059 0.0802241 0)
(1.03762 0.0735665 0)
(1.04384 0.0671382 0)
(1.04594 0.0606503 0)
(0.991227 0.0502845 0)
(0.809763 0.0349742 0)
(0.524927 0.0184614 0)
(0.23893 0.00575653 0)
(0.0342796 0.000266303 0)
(0.169155 0.00132133 0)
(0.820995 0.0263565 0)
(1.07637 0.0449214 0)
(1.19729 0.0588207 0)
(1.21213 0.0702348 0)
(1.18626 0.0820679 0)
(1.15717 0.0930752 0)
(1.12863 0.102073 0)
(1.09968 0.107697 0)
(1.07077 0.108371 0)
(1.0472 0.103468 0)
(1.03319 0.0955316 0)
(1.02857 0.0871484 0)
(1.03347 0.0794297 0)
(1.03117 0.0716453 0)
(0.964015 0.0591097 0)
(0.76846 0.040723 0)
(0.479864 0.0210945 0)
(0.205955 0.00636346 0)
(0.0261869 0.000276082 0)
(0.199785 0.00237224 0)
(0.889608 0.0398604 0)
(1.13086 0.064891 0)
(1.23042 0.0823268 0)
(1.2359 0.0965721 0)
(1.20383 0.109627 0)
(1.16952 0.120864 0)
(1.13571 0.129113 0)
(1.10163 0.133139 0)
(1.06789 0.131422 0)
(1.04048 0.123838 0)
(1.02386 0.113516 0)
(1.01769 0.103132 0)
(1.0211 0.0938806 0)
(1.01309 0.0844333 0)
(0.930736 0.0689056 0)
(0.719932 0.0468378 0)
(0.428887 0.0236987 0)
(0.170385 0.00687814 0)
(0.0179066 0.000269766 0)
(0.241531 0.0086176 4.65803e-20)
(0.980175 0.0671283 4.06826e-20)
(1.19648 0.0988057 -1.42184e-20)
(1.26722 0.117502 0)
(1.26067 0.13437 -3.61459e-34)
(1.22109 0.146805 5.27952e-21)
(1.18078 0.156629 -9.4892e-21)
(1.14116 0.162896 0)
(1.10152 0.164356 1.94178e-34)
(1.06256 0.159539 -1.16831e-20)
(1.03093 0.148844 0)
(1.01131 0.136086 -1.38304e-20)
(1.0032 0.123884 -4.07614e-20)
(1.00479 0.113128 -1.92493e-20)
(0.989361 0.101769 -5.79047e-21)
(0.88749 0.0826409 -3.44015e-21)
(0.658697 0.0550232 0)
(0.36932 0.0271739 2.41207e-21)
(0.133081 0.00816001 2.84946e-21)
(0.010115 0.000467053 5.12398e-20)
(0.270429 0.024069 3.42238e-20)
(1.05455 0.109778 5.2033e-22)
(1.24978 0.147463 3.80584e-21)
(1.30047 0.166285 0)
(1.28235 0.182591 -1.84335e-20)
(1.23594 0.192998 -2.09132e-20)
(1.18971 0.200767 -9.60432e-21)
(1.14411 0.204813 -3.41452e-20)
(1.09844 0.20362 0)
(1.05345 0.195571 4.99158e-20)
(1.01658 0.18142 4.9459e-20)
(0.993093 0.165753 1.47088e-20)
(0.98195 0.151364 5.35336e-20)
(0.978726 0.138679 7.51097e-20)
(0.953223 0.124853 0)
(0.829411 0.100905 1.06098e-19)
(0.586987 0.0656818 1.52444e-19)
(0.308948 0.0321289 1.69435e-19)
(0.0997378 0.00978396 -1.9386e-19)
(0.00356156 0.000381492 -3.6367e-21)
(0.271028 0.0397145 0)
(1.10115 0.165231 6.07294e-21)
(1.28565 0.207473 0)
(1.32622 0.22602 -2.414e-20)
(1.29932 0.238939 0)
(1.24723 0.245786 -4.12315e-20)
(1.19548 0.250142 1.96787e-20)
(1.14407 0.250834 -6.89172e-20)
(1.09252 0.246105 -1.56598e-21)
(1.0416 0.234293 2.59258e-20)
(0.99947 0.216708 1.09169e-19)
(0.972191 0.198472 -3.01205e-22)
(0.958484 0.182507 -3.902e-20)
(0.951871 0.168814 -7.12157e-20)
(0.917568 0.152019 8.44734e-20)
(0.785751 0.121642 -1.49635e-19)
(0.548229 0.0791393 -1.98023e-20)
(0.287175 0.0397707 0)
(0.0932579 0.012595 4.5019e-24)
(0.00267359 0.000408326 0)
(0.264529 0.0533072 7.93705e-20)
(1.12593 0.223977 -3.88354e-20)
(1.30806 0.272241 -2.99833e-20)
(1.3432 0.290885 1.14358e-20)
(1.31023 0.299889 -1.9251e-20)
(1.25393 0.302611 8.66027e-20)
(1.19753 0.302858 4.11883e-20)
(1.14103 0.299501 0)
(1.08419 0.290816 -1.30293e-19)
(1.0279 0.275279 0)
(0.981027 0.254956 -5.74836e-20)
(0.950146 0.235146 -7.0944e-20)
(0.933722 0.218039 -4.26668e-20)
(0.923129 0.202069 -5.19104e-20)
(0.882627 0.180629 0)
(0.753123 0.144798 0)
(0.531002 0.0971659 -1.29962e-19)
(0.288259 0.0517436 2.57004e-20)
(0.100146 0.0178423 -1.50515e-20)
(0.00480482 0.000907766 -1.75973e-20)
(0.257079 0.0653826 -3.15922e-20)
(1.13661 0.28251 0)
(1.32066 0.337973 6.13609e-20)
(1.35258 0.357085 3.22416e-20)
(1.3153 0.362383 4.45639e-20)
(1.25584 0.36091 0)
(1.19569 0.356873 4.03679e-20)
(1.13497 0.3493 7.65533e-20)
(1.07372 0.336639 6.68368e-20)
(1.01293 0.317613 1.22688e-19)
(0.962006 0.294805 0)
(0.927725 0.273303 -1.53393e-19)
(0.907644 0.254339 -9.24518e-20)
(0.891704 0.235253 -5.46397e-20)
(0.847345 0.209886 3.36573e-19)
(0.727304 0.17067 4.01872e-20)
(0.523861 0.118796 1.8933e-19)
(0.297033 0.0669084 -8.9509e-19)
(0.112595 0.0255145 5.31258e-19)
(0.0087707 0.00209461 -6.40273e-19)
(0.250047 0.0763063 -1.48082e-20)
(1.13824 0.338941 5.76174e-21)
(1.32599 0.402694 -6.58223e-21)
(1.35595 0.422674 -3.25635e-20)
(1.3155 0.424523 -3.75856e-20)
(1.25352 0.418931 1.75688e-21)
(1.19031 0.410697 -4.37551e-20)
(1.12623 0.39905 7.92343e-20)
(1.06139 0.382609 -1.43945e-19)
(0.996881 0.360174 0)
(0.94245 0.334493 -6.95139e-20)
(0.904826 0.310421 -1.61437e-21)
(0.88058 0.288707 -1.01261e-19)
(0.859482 0.266624 0)
(0.814045 0.23879 -7.29673e-20)
(0.704722 0.198124 -1.73888e-19)
(0.519168 0.1423 4.66418e-19)
(0.306537 0.0840049 -4.58473e-19)
(0.124828 0.0345769 6.52262e-19)
(0.0127264 0.00369496 -6.77768e-19)
(0.244184 0.086427 -4.11454e-22)
(1.13417 0.392627 -1.78159e-21)
(1.32599 0.465371 -1.77073e-20)
(1.35454 0.486517 1.2935e-20)
(1.31175 0.485189 -1.88664e-20)
(1.24772 0.475655 0)
(1.18207 0.463458 -4.06858e-20)
(1.11528 0.448031 -8.2932e-20)
(1.0475 0.428032 -7.48016e-20)
(0.979795 0.402108 0)
(0.922144 0.372957 -7.21108e-20)
(0.881246 0.345598 -8.93924e-20)
(0.853072 0.320793 1.09858e-19)
(0.828029 0.296245 -6.68087e-20)
(0.783182 0.266997 -3.18382e-19)
(0.683875 0.225263 1.90507e-19)
(0.513384 0.166061 5.71946e-20)
(0.313182 0.101397 0)
(0.134363 0.0439932 -6.30677e-19)
(0.0159456 0.0054164 -2.31248e-20)
(0.239552 0.0960508 1.10213e-21)
(1.1266 0.4434 -8.87915e-22)
(1.32196 0.525571 8.12525e-21)
(1.34944 0.547924 4.62219e-20)
(1.30487 0.543714 -6.91552e-20)
(1.2392 0.530531 8.20458e-20)
(1.17162 0.514715 8.74866e-20)
(1.10265 0.495853 -1.32398e-19)
(1.03235 0.472506 4.61843e-20)
(0.96172 0.442958 -3.01679e-19)
(0.900994 0.409931 -8.15874e-20)
(0.857074 0.378996 0)
(0.825628 0.351312 1.19065e-19)
(0.797859 0.324934 1.42659e-19)
(0.754099 0.294984 1.71052e-19)
(0.662652 0.252058 -2.06709e-19)
(0.504977 0.189462 -6.12355e-20)
(0.314889 0.118332 7.20316e-20)
(0.139742 0.0528952 0)
(0.018127 0.00702726 -5.01271e-20)
(0.236053 0.105333 -3.47618e-20)
(1.1171 0.491401 1.54418e-20)
(1.31516 0.583587 -6.87922e-21)
(1.3415 0.606581 2.7533e-20)
(1.29554 0.599777 -3.08055e-20)
(1.22861 0.583265 -4.05772e-21)
(1.15954 0.564248 -9.54567e-20)
(1.08875 0.542316 -4.78639e-20)
(1.01621 0.5158 -1.29821e-19)
(0.942782 0.482566 2.47721e-22)
(0.879101 0.445505 -2.55093e-19)
(0.832465 0.411024 2.15435e-19)
(0.798514 0.380717 -1.30605e-19)
(0.769106 0.352813 1.56998e-19)
(0.726591 0.322005 0)
(0.640777 0.277306 -1.11763e-19)
(0.493263 0.211268 -5.51562e-22)
(0.311576 0.133329 -3.13122e-19)
(0.140181 0.0601807 -4.60314e-20)
(0.0189564 0.00822055 0)
(0.233564 0.114421 0)
(1.10667 0.536907 2.02083e-20)
(1.30612 0.63861 -3.106e-21)
(1.33137 0.662363 -2.45789e-20)
(1.28434 0.653229 -3.9325e-20)
(1.21651 0.633755 0)
(1.14628 0.611949 -4.3167e-20)
(1.07393 0.587285 -1.1594e-21)
(0.999307 0.557794 2.77847e-19)
(0.923163 0.520915 -4.13396e-20)
(0.856619 0.47985 -1.84118e-19)
(0.807574 0.441936 1.11961e-19)
(0.771717 0.409121 -2.08971e-21)
(0.741303 0.379618 1.66713e-19)
(0.699758 0.347366 1.03084e-19)
(0.618268 0.300212 -2.41224e-19)
(0.478533 0.230143 2.86394e-19)
(0.303457 0.145484 8.47451e-20)
(0.136841 0.0653113 3.49604e-19)
(0.0186803 0.0088881 -9.35e-19)
(0.232051 0.123444 -1.59536e-20)
(1.09601 0.580082 1.89418e-20)
(1.29566 0.690719 -1.07198e-20)
(1.31958 0.715218 1.79029e-20)
(1.27176 0.704009 0)
(1.20334 0.681968 -3.69795e-20)
(1.13222 0.657766 1.44754e-19)
(1.05851 0.630674 1.04471e-19)
(0.981894 0.59841 0)
(0.90307 0.55803 -5.94865e-19)
(0.833736 0.513099 4.97263e-19)
(0.782494 0.471845 0)
(0.745124 0.436499 1.52155e-19)
(0.714027 0.405176 -2.05579e-21)
(0.673132 0.371065 -3.28486e-19)
(0.5946 0.320906 1.28777e-19)
(0.460686 0.246082 0)
(0.291085 0.154556 4.56651e-19)
(0.12988 0.0681058 0)
(0.0173426 0.00895918 -4.41622e-19)
(0.231332 0.13249 2.04674e-20)
(1.08558 0.62114 2.82909e-20)
(1.28419 0.739962 -9.72731e-21)
(1.30664 0.765173 0)
(1.25824 0.75214 -3.22087e-20)
(1.18949 0.727914 0)
(1.11768 0.701661 -1.42289e-19)
(1.04273 0.672419 -4.83113e-20)
(0.9642 0.637605 4.87964e-20)
(0.882733 0.593948 -2.94053e-19)
(0.810622 0.545341 5.12817e-20)
(0.757281 0.500789 0)
(0.718614 0.462783 -3.24584e-19)
(0.686993 0.429343 2.07674e-21)
(0.646472 0.392895 0)
(0.569863 0.339103 2.03226e-21)
(0.439871 0.258624 4.16241e-19)
(0.274858 0.160057 -3.94453e-19)
(0.120034 0.0686646 1.16222e-19)
(0.0153343 0.00858186 0)
(0.231105 0.14142 0)
(1.07575 0.660163 3.65392e-20)
(1.27205 0.786471 1.98308e-20)
(1.29294 0.812282 -2.41046e-21)
(1.24414 0.797676 -1.00793e-20)
(1.17525 0.771616 -8.21604e-20)
(1.10292 0.743614 5.3259e-20)
(1.02682 0.712473 -5.70341e-20)
(0.946452 0.675347 2.17697e-19)
(0.862357 0.628702 -4.6904e-19)
(0.787428 0.57664 -3.56684e-21)
(0.731969 0.528793 -1.4215e-19)
(0.69207 0.487937 5.26095e-19)
(0.659971 0.452033 -2.43002e-21)
(0.619558 0.412718 -2.54267e-19)
(0.543907 0.35455 -4.55166e-19)
(0.41644 0.267671 0)
(0.255422 0.162047 0)
(0.107912 0.0669533 1.25608e-19)
(0.0129033 0.0077468 -7.35625e-20)
(0.2315 0.150391 3.15959e-20)
(1.06652 0.697013 -8.58836e-20)
(1.25961 0.83034 -2.15461e-20)
(1.27885 0.856613 0)
(1.22974 0.840675 -1.58313e-21)
(1.16088 0.813099 -7.40374e-20)
(1.08815 0.783612 1.2781e-19)
(1.011 0.750803 2.23735e-19)
(0.928851 0.711626 2.82299e-19)
(0.842147 0.662321 -3.82477e-19)
(0.764314 0.607063 -4.25742e-19)
(0.706595 0.555926 3.79885e-19)
(0.665392 0.511981 0)
(0.632768 0.473206 -1.15321e-19)
(0.59222 0.430469 -2.75135e-19)
(0.516768 0.367136 -3.2671e-19)
(0.390704 0.273021 -3.88322e-19)
(0.233526 0.160552 1.14879e-19)
(0.0941084 0.0630032 -6.75635e-20)
(0.01011 0.0064846 2.82041e-22)
(0.232046 0.159296 0)
(1.05804 0.73222 0)
(1.24712 0.871675 2.59346e-21)
(1.26461 0.898277 0)
(1.21528 0.881225 1.92875e-20)
(1.14657 0.8524 4.91527e-20)
(1.07353 0.821652 0)
(0.995429 0.787393 2.63894e-20)
(0.911582 0.746435 4.69871e-19)
(0.822294 0.694832 -8.78503e-19)
(0.741433 0.636683 0)
(0.68122 0.582294 -2.44032e-19)
(0.638501 0.534994 -2.9441e-21)
(0.605214 0.492876 -2.37828e-21)
(0.564323 0.446045 2.93682e-19)
(0.488466 0.376682 -3.61001e-22)
(0.362722 0.274587 -8.35667e-19)
(0.209574 0.155549 2.47116e-19)
(0.079708 0.0573381 7.30359e-20)
(0.00729486 0.00498256 0)
(0.23266 0.168058 -1.33323e-19)
(1.05007 0.765801 -6.21733e-20)
(1.23471 0.910561 -7.45856e-20)
(1.25045 0.937395 5.27517e-20)
(1.20097 0.919394 1.80096e-20)
(1.1325 0.889557 0)
(1.05922 0.857744 7.61903e-20)
(0.980251 0.82224 -5.87426e-20)
(0.894802 0.779781 3.8757e-21)
(0.802978 0.726261 6.46597e-20)
(0.718943 0.665574 5.49641e-19)
(0.655919 0.60804 -8.55202e-20)
(0.61133 0.557142 -3.23418e-19)
(0.57711 0.511087 -1.34215e-19)
(0.53568 0.45928 1.59853e-19)
(0.459089 0.382884 -1.78755e-22)
(0.333451 0.272246 2.25299e-19)
(0.184878 0.147505 -5.31513e-19)
(0.0653843 0.0504072 6.28491e-19)
(0.00461051 0.00336689 9.16049e-20)
(0.233154 0.176556 5.17249e-20)
(1.04258 0.797849 -3.58295e-20)
(1.22253 0.94711 6.20971e-21)
(1.23652 0.974099 4.04208e-20)
(1.18695 0.955283 2.99655e-21)
(1.11876 0.924615 -8.3897e-20)
(1.04533 0.891906 2.17226e-20)
(0.965587 0.855345 -2.44188e-19)
(0.878648 0.811655 -5.15558e-19)
(0.784342 0.756609 -5.21971e-19)
(0.697004 0.693798 0)
(0.630789 0.633317 -3.74751e-19)
(0.583843 0.57865 4.65443e-19)
(0.548208 0.527947 0)
(0.505988 0.46994 -3.41989e-19)
(0.428672 0.385222 2.04867e-19)
(0.303559 0.265672 -2.42018e-19)
(0.160658 0.13677 -2.86148e-19)
(0.0520441 0.0427725 -5.06264e-19)
(0.00223026 0.00178025 -3.94694e-19)
(0.23397 0.184919 -5.95426e-20)
(1.03541 0.828337 3.83624e-20)
(1.21065 0.981413 8.60138e-20)
(1.22294 1.00848 6.30305e-20)
(1.17332 0.988974 -2.71232e-21)
(1.10546 0.957637 -4.32094e-20)
(1.03194 0.924166 7.25301e-20)
(0.951528 0.886735 -2.49851e-19)
(0.863211 0.842074 -3.04535e-19)
(0.766517 0.785883 5.44724e-19)
(0.675763 0.721405 1.20356e-18)
(0.605967 0.658281 0)
(0.55605 0.599789 0)
(0.518209 0.543706 -1.54427e-19)
(0.474687 0.477814 0)
(0.396977 0.382813 4.4099e-19)
(0.273998 0.254027 5.21034e-19)
(0.13875 0.123443 0)
(0.0409617 0.0350437 0)
(0.000321808 0.000427748 4.24263e-19)
(0.234428 0.192839 6.89164e-20)
(1.02859 0.857249 5.54783e-20)
(1.19915 1.0136 6.31411e-20)
(1.20977 1.04067 -6.5727e-20)
(1.16017 1.02056 -1.04526e-20)
(1.09267 0.988678 4.1556e-20)
(1.01913 0.954565 -9.87555e-20)
(0.938142 0.916425 -1.42995e-23)
(0.848579 0.871037 -5.02439e-21)
(0.749602 0.814075 -5.35501e-21)
(0.655384 0.748422 6.19013e-19)
(0.581629 0.68306 0)
(0.528042 0.620861 4.69581e-19)
(0.486845 0.558773 3.28878e-19)
(0.440892 0.482991 7.98255e-19)
(0.363099 0.374552 2.37259e-19)
(0.245522 0.235167 -2.81031e-19)
(0.122726 0.105605 -1.64986e-19)
(0.0368264 0.0265352 0)
(0.000352155 -0.000155048 4.55946e-19)
(0.235174 0.200759 -1.5789e-19)
(1.02205 0.8847 0)
(1.18801 1.04372 7.7019e-20)
(1.19707 1.07076 -5.77781e-20)
(1.14756 1.05014 2.28403e-20)
(1.08043 1.01781 -3.92321e-20)
(1.00693 0.983145 1.8858e-19)
(0.925474 0.944445 -2.07822e-20)
(0.834798 0.898552 0)
(0.73368 0.841152 -5.9848e-19)
(0.636018 0.774844 -1.34207e-18)
(0.557981 0.707763 5.49646e-20)
(0.500032 0.642153 6.45388e-19)
(0.454005 0.573716 0)
(0.403517 0.486176 5.3809e-19)
(0.324747 0.359912 0)
(0.216104 0.204938 0)
(0.115842 0.0717534 -1.78862e-19)
(0.0591544 0.00615652 0)
(0.0269019 0.0108978 1.22214e-19)
(0.235533 0.208071 -1.78622e-19)
(1.01573 0.910968 0)
(1.17723 1.07199 1.30368e-19)
(1.18479 1.09899 0)
(1.13545 1.07795 -1.66792e-20)
(1.06868 1.0453 0)
(0.995304 1.01021 8.86424e-21)
(0.91344 0.971133 3.39843e-20)
(0.821765 0.924983 3.79441e-20)
(0.718608 0.867505 -6.5488e-19)
(0.617523 0.801104 4.01656e-20)
(0.534859 0.732978 4.41605e-19)
(0.471748 0.664349 6.28607e-19)
(0.419024 0.589431 8.4902e-20)
(0.360762 0.489051 4.21215e-19)
(0.277419 0.340481 0)
(0.174458 0.161894 5.9433e-19)
(0.0896706 0.0139201 -3.48218e-19)
(0.0435795 0.0440574 4.03269e-19)
(-0.0691622 0.430222 -4.75467e-19)
(0.235863 0.215177 1.49202e-19)
(1.0094 0.93586 2.27307e-19)
(1.16671 1.09872 0)
(1.1728 1.1258 5.16788e-21)
(1.12365 1.10458 5.43529e-20)
(1.05717 1.07183 2.97151e-20)
(0.983944 1.03656 6.33806e-20)
(0.901651 0.99743 0)
(0.808969 0.951421 2.50308e-19)
(0.703737 0.894428 -3.40448e-20)
(0.599008 0.828651 0)
(0.51112 0.760445 0)
(0.441683 0.689201 5.61038e-19)
(0.380152 0.607332 -2.62133e-19)
(0.309655 0.494278 -4.25383e-19)
(0.216265 0.321446 0)
(0.101256 0.152259 2.99519e-19)
(0.00639613 0.436297 -3.46932e-19)
(0.0354098 1.87705 -1.89977e-19)
(0.065347 2.80439 -2.42813e-19)
(0.235995 0.221432 -1.13615e-19)
(1.00322 0.959549 -2.9448e-19)
(1.15646 1.12391 7.91501e-20)
(1.16109 1.15104 6.19726e-20)
(1.1122 1.12978 0)
(1.04598 1.0971 8.95217e-21)
(0.973047 1.06187 8.34932e-20)
(0.890293 1.0229 -1.62471e-20)
(0.796671 0.977345 3.72807e-20)
(0.689441 0.921303 6.21574e-19)
(0.58107 0.856818 6.73918e-19)
(0.487731 0.789747 4.90815e-19)
(0.410852 0.716499 5.62014e-19)
(0.339261 0.626169 -6.11954e-19)
(0.256166 0.504799 -6.39892e-19)
(0.142768 0.350503 0)
(0.0500069 0.826785 0)
(0.106331 2.54277 1.65194e-19)
(0.107418 3.19552 0)
(0.110406 3.38568 3.96047e-19)
(0.238676 0.227125 0)
(0.997762 0.982219 0)
(1.14625 1.1474 0)
(1.14941 1.17453 1.94447e-20)
(1.10079 1.15332 5.21063e-20)
(1.03487 1.12097 -7.45609e-21)
(0.962512 1.08603 5.23461e-20)
(0.879325 1.04743 -1.57345e-20)
(0.784841 1.00262 3.09843e-19)
(0.67575 0.947992 -9.72765e-21)
(0.563862 0.885494 1.32659e-18)
(0.465064 0.820726 -5.64039e-20)
(0.379637 0.747118 6.77881e-20)
(0.298802 0.64332 8.81145e-20)
(0.194061 0.523714 -2.48599e-21)
(0.109729 0.959057 1.78854e-21)
(0.147221 2.70189 -8.60156e-19)
(0.1574 3.28836 -3.24875e-19)
(0.145007 3.42577 1.68343e-19)
(0.13087 3.44857 -1.87161e-19)
(0.156723 0.183762 6.83528e-20)
(0.987101 1.00662 0)
(1.13578 1.16942 -1.64158e-19)
(1.13832 1.19672 -1.72123e-19)
(1.09024 1.176 1.34824e-19)
(1.02477 1.14412 1.33391e-20)
(0.952249 1.10916 -5.19261e-20)
(0.86886 1.07117 1.70479e-19)
(0.773672 1.02739 -2.5229e-19)
(0.662976 0.974626 0)
(0.547793 0.914863 6.49483e-19)
(0.443719 0.853248 -3.98194e-19)
(0.348531 0.784044 0)
(0.257026 0.663034 8.1518e-20)
(0.160852 0.798978 1.95358e-19)
(0.162324 2.46465 -2.3216e-19)
(0.224399 3.32184 2.61413e-19)
(0.202369 3.4409 1.40856e-19)
(0.167855 3.46277 1.59523e-19)
(0.144987 3.47318 2.52447e-19)
(0.282007 0.265964 -1.24001e-19)
(0.97229 1.01675 0)
(1.11752 1.1944 1.80481e-19)
(1.12347 1.22822 1.95538e-19)
(1.07347 1.2092 -1.57292e-19)
(1.00759 1.1781 -3.80521e-20)
(0.93433 1.14472 4.07368e-20)
(0.850369 1.10781 1.33694e-20)
(0.75386 1.06594 2.38232e-19)
(0.640473 1.01665 5.30859e-19)
(0.520316 0.962645 3.64608e-20)
(0.407753 0.907843 3.51911e-19)
(0.29393 0.84324 6.29527e-20)
(0.220392 0.96771 -7.98188e-20)
(0.2366 2.31249 -1.83456e-19)
(0.300269 3.32585 1.75703e-19)
(0.283935 3.47278 -1.94175e-19)
(0.247026 3.49463 -1.12461e-19)
(0.208809 3.52213 -9.31722e-20)
(0.156312 3.51561 -1.10535e-20)
(0.269981 0.262882 0)
(0.970159 1.03948 5.38115e-20)
(1.10939 1.21759 -3.777e-20)
(1.11311 1.25148 -2.38771e-20)
(1.06296 1.23237 -1.12352e-19)
(0.997261 1.2017 4.252e-20)
(0.923743 1.16854 -1.77151e-20)
(0.839658 1.13235 1.18272e-20)
(0.742744 1.09182 -2.46585e-19)
(0.62831 1.04513 -1.42196e-20)
(0.505893 0.995602 -1.16599e-18)
(0.389664 0.946435 5.00227e-20)
(0.282205 0.910822 -5.93177e-20)
(0.260895 1.47623 -7.36774e-20)
(0.337599 3.08643 1.78135e-20)
(0.360057 3.47079 8.04317e-22)
(0.319087 3.52941 2.74182e-19)
(0.280845 3.5542 1.31935e-19)
(0.230966 3.57807 -2.83406e-20)
(0.170703 3.57373 -4.95433e-20)
(0.25365 0.261286 1.38011e-19)
(0.966461 1.06488 3.69285e-19)
(1.10081 1.24289 -1.08873e-19)
(1.1022 1.27612 -9.0478e-20)
(1.05191 1.25689 0)
(0.986504 1.22647 9.208e-20)
(0.913012 1.19358 -1.02389e-20)
(0.82908 1.15809 1.01763e-20)
(0.732079 1.11898 -2.74578e-20)
(0.617107 1.07508 -4.75116e-19)
(0.493193 1.03031 -5.35426e-19)
(0.375066 0.987464 -4.0991e-19)
(0.283551 1.03867 -4.45266e-19)
(0.329447 2.16513 4.6121e-19)
(0.424716 3.37587 3.83664e-19)
(0.404783 3.53111 0)
(0.35792 3.57555 0)
(0.320005 3.61733 -2.09997e-20)
(0.266761 3.67812 0)
(0.182806 3.65327 -1.7157e-20)
(0.242819 0.263129 -2.08843e-19)
(0.96078 1.09135 -3.16131e-19)
(1.09084 1.26939 0)
(1.08999 1.30156 6.1734e-21)
(1.03964 1.28203 -1.27639e-19)
(0.974638 1.2517 1.58266e-19)
(0.901495 1.21911 2.57939e-21)
(0.817919 1.18423 5.18316e-21)
(0.721066 1.14644 -1.70741e-19)
(0.605947 1.10528 2.35519e-20)
(0.481331 1.06539 0)
(0.363295 1.03179 0)
(0.309703 1.28057 -4.05423e-19)
(0.413014 2.84398 1.64757e-19)
(0.497555 3.48824 2.08114e-19)
(0.451019 3.56489 0)
(0.410466 3.62693 2.71174e-21)
(0.373612 3.68883 -6.34945e-20)
(0.327327 3.67533 -1.26153e-19)