/*--------------------------------*- C++ -*----------------------------------*\
  =========                 |
  \\      /  F ield         | OpenFOAM: The Open Source CFD Toolbox
   \\    /   O peration     | Website:  https://openfoam.org
    \\  /    A nd           | Version:  10
     \\/     M anipulation  |
\*---------------------------------------------------------------------------*/
FoamFile
{
    format      ascii;
    class       volScalarField;
    location    "75";
    object      p;
}
// * * * * * * * * * * * * * * * * * * * * * * * * * * * * * * * * * * * * * //

dimensions      [0 2 -2 0 0 0 0];

internalField   nonuniform List<scalar> 
8800
(
0.859064
0.811279
0.772593
0.743604
0.722748
0.707931
0.697353
0.689901
0.68512
0.683117
0.684442
0.688681
0.695362
0.704704
0.717503
0.735249
0.760035
0.793982
0.836537
0.895239
0.690304
0.697983
0.705465
0.708777
0.707281
0.702214
0.695743
0.68969
0.685002
0.682206
0.681986
0.684548
0.689081
0.695058
0.70185
0.708145
0.711797
0.711066
0.705655
0.69697
0.668693
0.674855
0.678986
0.681937
0.683997
0.684616
0.683531
0.681457
0.679485
0.678636
0.679662
0.682098
0.684938
0.687148
0.687776
0.686593
0.684262
0.680878
0.676323
0.672562
0.66286
0.665512
0.668269
0.67068
0.672327
0.673505
0.67427
0.674421
0.674174
0.67419
0.675014
0.676244
0.677129
0.677228
0.676643
0.67557
0.673767
0.671206
0.668809
0.667305
0.657447
0.658873
0.660658
0.6627
0.664497
0.665857
0.666873
0.66771
0.66838
0.669019
0.669752
0.670316
0.670468
0.67022
0.669552
0.668325
0.666646
0.66481
0.663509
0.662677
0.65233
0.653251
0.654499
0.656077
0.657725
0.659271
0.660588
0.6617
0.662728
0.663708
0.664493
0.664901
0.664921
0.664529
0.663683
0.66251
0.661203
0.659958
0.659142
0.65859
0.647372
0.648043
0.649012
0.650327
0.651754
0.653237
0.654713
0.656087
0.65736
0.658569
0.659502
0.659965
0.659955
0.659503
0.65874
0.657825
0.656839
0.655933
0.655355
0.654949
0.642526
0.643043
0.643834
0.644978
0.646277
0.647679
0.649167
0.650699
0.652213
0.653668
0.654807
0.655392
0.655456
0.655141
0.654591
0.653906
0.653165
0.652503
0.652077
0.651758
0.637717
0.638128
0.638792
0.639815
0.641044
0.642405
0.643898
0.645524
0.647245
0.64898
0.650383
0.651178
0.65145
0.651366
0.651048
0.650582
0.650052
0.649586
0.649271
0.649012
0.632858
0.633192
0.633768
0.634714
0.635898
0.63725
0.638786
0.640519
0.642442
0.644485
0.646228
0.647338
0.647905
0.648089
0.648013
0.647781
0.647452
0.64715
0.64692
0.646702
0.627857
0.628134
0.62865
0.629552
0.630723
0.632104
0.633722
0.635607
0.637774
0.640175
0.642346
0.643861
0.644781
0.645272
0.645463
0.64547
0.645344
0.645186
0.645025
0.644835
0.622624
0.622856
0.623333
0.624222
0.625419
0.626875
0.628618
0.63071
0.633188
0.636033
0.638727
0.640728
0.642063
0.642908
0.643399
0.643648
0.643733
0.643711
0.643607
0.643437
0.617062
0.617259
0.617717
0.618623
0.619888
0.621462
0.623386
0.625754
0.628628
0.632026
0.635354
0.637933
0.639755
0.641005
0.641836
0.642356
0.642664
0.64277
0.642713
0.642556
0.611067
0.611235
0.611692
0.612642
0.614017
0.615762
0.617934
0.620657
0.624031
0.628111
0.632206
0.635477
0.637874
0.639594
0.640813
0.641659
0.642191
0.642422
0.642406
0.642256
0.604513
0.604658
0.605128
0.606154
0.607684
0.609659
0.612158
0.615334
0.619333
0.624247
0.629269
0.633367
0.636446
0.638722
0.640386
0.641585
0.642378
0.64274
0.642762
0.642615
0.59726
0.59738
0.597879
0.599009
0.600747
0.603022
0.605936
0.609685
0.61446
0.620392
0.626531
0.631615
0.6355
0.638431
0.640622
0.642234
0.643317
0.643814
0.64387
0.643722
0.589114
0.589223
0.589759
0.591028
0.593029
0.595684
0.599128
0.603595
0.609327
0.6165
0.623982
0.630238
0.635075
0.638776
0.641601
0.643694
0.645105
0.645743
0.645831
0.645677
0.579839
0.579937
0.580536
0.581968
0.584306
0.587453
0.591566
0.59693
0.603844
0.612525
0.621616
0.62926
0.635221
0.639826
0.643401
0.64606
0.647839
0.648626
0.648741
0.648578
0.569115
0.569194
0.569879
0.571542
0.574319
0.578093
0.583048
0.589534
0.597909
0.608424
0.619435
0.628712
0.635992
0.641665
0.646092
0.649424
0.651614
0.652555
0.652692
0.652516
0.556553
0.556618
0.557405
0.559379
0.562715
0.567294
0.573323
0.58123
0.591419
0.604159
0.617448
0.628634
0.637437
0.644351
0.649777
0.653876
0.656511
0.6576
0.657751
0.657559
0.54158
0.541633
0.542565
0.544956
0.549034
0.554668
0.562096
0.571818
0.584272
0.59971
0.615677
0.629069
0.63961
0.647941
0.65452
0.659474
0.662572
0.663795
0.663948
0.663736
0.523402
0.523443
0.524591
0.527572
0.532665
0.539727
0.549016
0.561096
0.576394
0.595086
0.614171
0.630068
0.64257
0.652492
0.660329
0.666235
0.669784
0.671105
0.671243
0.671011
0.500827
0.500867
0.502367
0.506238
0.512796
0.521866
0.533707
0.548897
0.567769
0.590355
0.613012
0.631694
0.646353
0.658028
0.667228
0.674109
0.678049
0.679409
0.679511
0.67926
0.472059
0.472121
0.47422
0.479528
0.488375
0.500395
0.515836
0.535157
0.55849
0.585664
0.612332
0.634034
0.65099
0.664512
0.675171
0.682967
0.687167
0.688477
0.688521
0.688254
0.433979
0.434148
0.437485
0.445449
0.458156
0.474709
0.495284
0.52003
0.548818
0.581266
0.612306
0.637178
0.656513
0.671907
0.684035
0.692567
0.696815
0.697966
0.697934
0.69766
0.380619
0.381641
0.388291
0.401737
0.421167
0.44474
0.472405
0.504008
0.539216
0.577506
0.613126
0.641212
0.662917
0.680159
0.693588
0.70255
0.706567
0.707459
0.707351
0.707081
0.302833
0.310356
0.325767
0.349501
0.378945
0.411917
0.448245
0.48773
0.530033
0.57461
0.615089
0.646567
0.670802
0.689995
0.704593
0.713712
0.717314
0.717938
0.717782
0.717551
0.219262
0.237035
0.262001
0.296636
0.3365
0.37899
0.424003
0.4715
0.521211
0.572638
0.618723
0.654209
0.681373
0.70279
0.718572
0.727291
0.730061
0.730389
0.730256
0.730097
0.14954
0.170497
0.203338
0.247219
0.296254
0.347701
0.401129
0.456469
0.513414
0.571439
0.622778
0.661907
0.691584
0.714631
0.730724
0.738657
0.740878
0.741142
0.741062
0.740933
0.0924224
0.115062
0.153521
0.20394
0.260212
0.319184
0.380046
0.442572
0.506293
0.570559
0.626815
0.669263
0.701097
0.725323
0.741543
0.749002
0.750951
0.751207
0.751163
0.751063
0.0449012
0.0687381
0.111047
0.166641
0.228725
0.293908
0.361144
0.43005
0.49997
0.570073
0.63098
0.676553
0.710402
0.735776
0.752181
0.759329
0.761116
0.761389
0.761386
0.761308
0.00470708
0.0291923
0.074409
0.134095
0.201067
0.271537
0.344317
0.418906
0.494496
0.570066
0.635415
0.684001
0.719841
0.746339
0.763039
0.770101
0.771931
0.772189
0.772214
0.772151
-0.030221
-0.00532987
0.0421665
0.105234
0.176343
0.251419
0.329127
0.408864
0.489698
0.570436
0.640081
0.691655
0.729493
0.757161
0.77436
0.781654
0.783449
0.78371
0.783753
0.783704
-0.0614089
-0.0361772
0.0131717
0.0791236
0.153812
0.232938
0.315083
0.399539
0.485279
0.570965
0.644804
0.699352
0.739225
0.768193
0.786075
0.793631
0.795503
0.795754
0.795782
0.795753
-0.0898604
-0.0643344
-0.0134095
0.0550406
0.132879
0.21561
0.301762
0.390573
0.480947
0.571406
0.64938
0.706902
0.748851
0.779133
0.797741
0.805627
0.807612
0.807842
0.807857
0.807843
-0.116409
-0.0905506
-0.0382434
0.0324228
0.11308
0.199044
0.28884
0.381684
0.47644
0.57153
0.653616
0.71413
0.758139
0.789758
0.809052
0.817264
0.819377
0.819616
0.8196
0.819582
-0.141458
-0.115272
-0.0616316
0.0108803
0.0940771
0.182952
0.276066
0.372648
0.471556
0.571168
0.657361
0.720878
0.766926
0.79982
0.819745
0.828246
0.830441
0.830647
0.830595
0.830571
-0.16549
-0.138888
-0.0841999
-0.00982782
0.0756223
0.16712
0.263262
0.363304
0.466146
0.570166
0.660495
0.727072
0.77515
0.809214
0.829645
0.838317
0.840536
0.840714
0.840627
0.840591
-0.188649
-0.161593
-0.105974
-0.0299073
0.0575539
0.151412
0.250305
0.353546
0.460093
0.568409
0.66293
0.732672
0.782804
0.817938
0.838681
0.847416
0.849592
0.849727
0.849606
0.849556
-0.211094
-0.183665
-0.127023
-0.0494866
0.0397823
0.135755
0.23713
0.343296
0.453317
0.565803
0.664583
0.737666
0.789947
0.826055
0.84693
0.85552
0.857615
0.857708
0.857556
0.857494
-0.232968
-0.205074
-0.147475
-0.0686241
0.0222517
0.120114
0.223713
0.332534
0.445778
0.562273
0.665377
0.742039
0.796689
0.833769
0.854562
0.862786
0.864683
0.8647
0.864536
0.864464
-0.254354
-0.225889
-0.167419
-0.0873442
0.00496517
0.104486
0.210066
0.321268
0.437462
0.557755
0.665227
0.745777
0.803138
0.841289
0.86179
0.869355
0.870895
0.870824
0.870639
0.870562
-0.275123
-0.246115
-0.186803
-0.105645
-0.0120711
0.0889097
0.196222
0.309541
0.428392
0.552234
0.664043
0.748821
0.809356
0.84889
0.868985
0.875495
0.876376
0.876141
0.875968
0.875899
-0.295258
-0.265732
-0.205632
-0.123496
-0.0288219
0.0734246
0.182248
0.297403
0.418617
0.545703
0.661745
0.751051
0.815345
0.856827
0.876673
0.881759
0.881426
0.880782
0.880658
0.880661
-0.31484
-0.28472
-0.223902
-0.140881
-0.0452396
0.0580968
0.168213
0.284939
0.408205
0.538196
0.658252
0.752301
0.820979
0.865201
0.885458
0.889179
0.886906
0.885149
0.88502
0.885417
-0.333719
-0.303071
-0.241566
-0.15776
-0.0612779
0.0429973
0.154199
0.272246
0.397252
0.52978
0.653513
0.752359
0.826001
0.873814
0.895662
0.899059
0.894946
0.890924
0.88962
0.889922
-0.35199
-0.320786
-0.258651
-0.174168
-0.0769739
0.0280816
0.140151
0.259268
0.385695
0.520386
0.64739
0.750944
0.830138
0.882288
0.907012
0.91216
0.907978
0.900489
0.893269
0.88031
-0.369589
-0.337855
-0.275273
-0.190305
-0.0926039
0.0130328
0.125674
0.245552
0.373038
0.509431
0.639305
0.747378
0.83299
0.890186
0.918294
0.927087
0.923152
0.908819
0.887214
0.877888
-0.386356
-0.354448
-0.291251
-0.205984
-0.107813
-0.00181373
0.11098
0.231405
0.359557
0.497126
0.62923
0.74105
0.833499
0.896202
0.925503
0.934557
0.931504
0.904935
0.838126
0.80852
-0.401643
-0.371855
-0.306293
-0.220733
-0.121795
-0.0159543
0.0963897
0.217053
0.345463
0.483575
0.617042
0.731522
0.829944
0.899399
0.922949
0.926948
0.909388
0.851546
0.781963
0.739531
-0.455899
-0.387166
-0.319852
-0.23569
-0.136249
-0.0309081
0.0818253
0.202196
0.33036
0.468274
0.60205
0.717943
0.818113
0.894897
0.893374
0.88954
0.831635
0.756705
0.678471
0.634952
-0.417427
-0.401488
-0.340048
-0.254778
-0.157629
-0.0523021
0.0594142
0.179215
0.306541
0.443347
0.575717
0.690788
0.784724
0.867779
0.846838
0.724161
0.613392
0.536383
0.460926
0.488711
-0.447304
-0.418348
-0.356069
-0.27165
-0.174557
-0.0693439
0.0426782
0.16188
0.288203
0.423337
0.553119
0.664055
0.748024
0.791785
0.737244
0.579697
0.446546
0.351587
0.251088
0.298501
-0.470262
-0.438396
-0.375057
-0.290525
-0.193318
-0.0882166
0.0237355
0.14212
0.267076
0.399866
0.525993
0.630587
0.705243
0.713819
0.600101
0.421367
0.264237
0.142098
0.00911149
0.0405084
-0.492627
-0.459318
-0.394893
-0.309479
-0.212211
-0.107276
0.00413892
0.121559
0.244928
0.374939
0.496352
0.59262
0.651233
0.627938
0.462304
0.261146
0.0675413
-0.102703
-0.292341
-0.312837
-0.514373
-0.480678
-0.415433
-0.32929
-0.231918
-0.127235
-0.0164972
0.0998146
0.221307
0.348083
0.463955
0.55161
0.590126
0.528914
0.33082
0.116124
-0.103689
-0.294535
-0.53703
-0.831533
-0.536391
-0.502729
-0.437014
-0.350445
-0.252934
-0.148461
-0.0383436
0.076804
0.196278
0.319491
0.429359
0.508418
0.524338
0.411014
0.216105
0.00227845
-0.204605
-0.37853
-0.449544
-0.527298
-0.559616
-0.52594
-0.459983
-0.373254
-0.275746
-0.171589
-0.0621965
0.0515945
0.1687
0.287762
0.391134
0.458742
0.448741
0.30146
0.113801
-0.0809857
-0.24677
-0.341534
-0.366037
-0.381777
-0.584353
-0.550598
-0.484506
-0.39779
-0.300481
-0.196824
-0.0884123
0.0236993
0.137986
0.252192
0.348575
0.401139
0.372965
0.199446
0.0208485
-0.148733
-0.278024
-0.318054
-0.330815
-0.332106
-0.6108
-0.576872
-0.510649
-0.424047
-0.327089
-0.224173
-0.117012
-0.006934
0.10407
0.212806
0.301226
0.338759
0.289332
0.105192
-0.0643021
-0.216212
-0.294199
-0.311312
-0.312713
-0.312529
-0.639014
-0.604821
-0.53844
-0.452025
-0.355589
-0.253625
-0.148
-0.0403209
0.0669642
0.169685
0.249185
0.274461
0.187937
0.0190829
-0.141857
-0.267108
-0.304595
-0.302917
-0.302008
-0.301428
-0.668711
-0.634285
-0.56778
-0.481644
-0.385897
-0.285132
-0.181349
-0.076435
0.0267105
0.122948
0.193406
0.201136
0.0961927
-0.0606258
-0.203218
-0.281539
-0.291865
-0.294459
-0.295118
-0.294845
-0.699345
-0.664789
-0.598414
-0.512683
-0.417833
-0.318539
-0.21691
-0.115144
-0.0165002
0.0729657
0.134386
0.126731
0.0140752
-0.128122
-0.248393
-0.280443
-0.289208
-0.290652
-0.290387
-0.290081
-0.73046
-0.695811
-0.629887
-0.544753
-0.451057
-0.353533
-0.254407
-0.15616
-0.0623732
0.0204601
0.0712852
0.056331
-0.0608328
-0.182735
-0.279085
-0.297437
-0.28817
-0.286868
-0.28673
-0.28648
-0.761158
-0.726664
-0.661368
-0.577252
-0.485036
-0.389647
-0.293393
-0.199002
-0.110427
-0.0339027
0.00695313
-0.00783917
-0.12577
-0.223203
-0.28189
-0.290236
-0.286916
-0.285491
-0.284854
-0.284597
-0.789932
-0.756174
-0.691889
-0.609271
-0.519019
-0.426191
-0.333224
-0.242989
-0.159854
-0.0895148
-0.0522187
-0.0779812
-0.177008
-0.258329
-0.264774
-0.283031
-0.286826
-0.285273
-0.284668
-0.284225
-0.815173
-0.782464
-0.720345
-0.639676
-0.551988
-0.462245
-0.373045
-0.287276
-0.209528
-0.145496
-0.108149
-0.145239
-0.220213
-0.272294
-0.292923
-0.289708
-0.290247
-0.290285
-0.289939
-0.289546
-0.834778
-0.803817
-0.744557
-0.66708
-0.582667
-0.496703
-0.411783
-0.330847
-0.258327
-0.200524
-0.165401
-0.199673
-0.255079
-0.303597
-0.325735
-0.307919
-0.298836
-0.297313
-0.296529
-0.296269
-0.846564
-0.818308
-0.762874
-0.689555
-0.609599
-0.528265
-0.448276
-0.372509
-0.305207
-0.253013
-0.220481
-0.244711
-0.276644
-0.322008
-0.311055
-0.302753
-0.298779
-0.297391
-0.297121
-0.297166
-0.847963
-0.823727
-0.773261
-0.705372
-0.631107
-0.555521
-0.481216
-0.411036
-0.349023
-0.301608
-0.266199
-0.280584
-0.282897
-0.303337
-0.296616
-0.296526
-0.296418
-0.295895
-0.295706
-0.295471
-0.836714
-0.817227
-0.773572
-0.712987
-0.645768
-0.57704
-0.509279
-0.445162
-0.388565
-0.345259
-0.303948
-0.304004
-0.280007
-0.277217
-0.286546
-0.291408
-0.29529
-0.29685
-0.297225
-0.297183
-0.811038
-0.796454
-0.762071
-0.711164
-0.652598
-0.59186
-0.531339
-0.473582
-0.422524
-0.383248
-0.337543
-0.320692
-0.291647
-0.264534
-0.27171
-0.290246
-0.299353
-0.303149
-0.30438
-0.304838
-0.773521
-0.76414
-0.739641
-0.700072
-0.651609
-0.599723
-0.546762
-0.495293
-0.449406
-0.414138
-0.383214
-0.353451
-0.327826
-0.322214
-0.335739
-0.328402
-0.324504
-0.323122
-0.322636
-0.322751
-0.73082
-0.72548
-0.711082
-0.68253
-0.64471
-0.601417
-0.555664
-0.509831
-0.467733
-0.435387
-0.407854
-0.388626
-0.388816
-0.430171
-0.421483
-0.390288
-0.355514
-0.336951
-0.33144
-0.330296
-0.692529
-0.689283
-0.68243
-0.663855
-0.634778
-0.598769
-0.55911
-0.517357
-0.476772
-0.442817
-0.417551
-0.385767
-0.361023
-0.37171
-0.344807
-0.276665
-0.262377
-0.271115
-0.278964
-0.277528
-0.664934
-0.662911
-0.659404
-0.648183
-0.625599
-0.594773
-0.55895
-0.519222
-0.477243
-0.436991
-0.41006
-0.361085
-0.285508
-0.187624
-0.18222
-0.298196
-0.414368
-0.434162
-0.395443
-0.392676
-0.643994
-0.643241
-0.642084
-0.636541
-0.619685
-0.592172
-0.557453
-0.517177
-0.472123
-0.424612
-0.385659
-0.345603
-0.330189
-0.394398
-0.504761
-0.573461
-0.646425
-0.667916
-0.625339
-0.603902
-0.63173
-0.631476
-0.630888
-0.628356
-0.616685
-0.59094
-0.555571
-0.513149
-0.464568
-0.408486
-0.361673
-0.32525
-0.318147
-0.369807
-0.501066
-0.65093
-0.705145
-0.64537
-0.544078
-0.50114
-0.623193
-0.623027
-0.622503
-0.621632
-0.614722
-0.591267
-0.554528
-0.509212
-0.455157
-0.39019
-0.325129
-0.256362
-0.180695
-0.105826
-0.0411094
0.00355867
0.101858
0.240563
0.353877
0.405586
-0.617796
-0.617734
-0.617533
-0.617654
-0.613328
-0.593334
-0.555434
-0.506167
-0.44582
-0.373012
-0.284168
-0.195024
-0.0135524
0.254359
0.557214
0.859536
1.12662
1.31123
1.40575
1.43676
-0.613601
-0.61364
-0.613652
-0.613448
-0.612257
-0.596789
-0.558668
-0.505241
-0.439492
-0.357235
-0.257019
-0.15574
0.0510171
0.391124
0.795361
1.17979
1.49376
1.68433
1.76443
1.7841
-0.610365
-0.610417
-0.610268
-0.609498
-0.608803
-0.601277
-0.56467
-0.50772
-0.437481
-0.351008
-0.248965
-0.141129
0.0234435
0.36267
0.728782
1.06165
1.32701
1.48221
1.54351
1.55723
-0.608964
-0.609702
-0.611481
-0.614199
-0.617425
-0.611291
-0.572901
-0.512794
-0.441845
-0.355456
-0.257459
-0.157205
-0.0324303
0.244323
0.537853
0.789877
0.981111
1.08799
1.1284
1.13636
-0.605824
-0.607845
-0.614029
-0.627831
-0.644329
-0.629955
-0.578144
-0.519668
-0.453327
-0.369015
-0.276694
-0.184805
-0.0886424
0.113723
0.327046
0.498735
0.624318
0.689987
0.713096
0.716388
-0.616196
-0.61748
-0.618187
-0.609726
-0.594668
-0.578196
-0.559896
-0.529
-0.470101
-0.387259
-0.30194
-0.221869
-0.146763
-0.00682741
0.133561
0.240285
0.311665
0.345732
0.359489
0.362742
-0.658647
-0.657758
-0.647915
-0.593689
-0.513673
-0.486395
-0.540237
-0.545863
-0.49257
-0.409265
-0.328738
-0.25797
-0.196869
-0.097953
-0.00577181
0.0567766
0.091464
0.106479
0.115845
0.119232
-0.714521
-0.711759
-0.714271
-0.700634
-0.684379
-0.656843
-0.661456
-0.612233
-0.526409
-0.432681
-0.352784
-0.293469
-0.24706
-0.170931
-0.102799
-0.0565806
-0.0293599
-0.0147199
-0.00665995
-0.00432739
-0.850593
-0.867918
-0.922996
-0.993656
-1.01951
-0.982914
-0.886546
-0.718753
-0.571061
-0.452934
-0.370782
-0.318788
-0.283945
-0.217752
-0.15629
-0.110973
-0.0780285
-0.0610976
-0.0541055
-0.053107
-1.00908
-1.04
-1.10025
-1.1551
-1.17734
-1.13546
-1.00385
-0.781121
-0.594137
-0.458396
-0.374153
-0.329581
-0.300154
-0.242304
-0.185045
-0.140305
-0.105991
-0.0864898
-0.0794284
-0.0798103
-1.01133
-1.03299
-1.07466
-1.11494
-1.13224
-1.09422
-0.950728
-0.738649
-0.563406
-0.435394
-0.359209
-0.320472
-0.293468
-0.243588
-0.193946
-0.153712
-0.123883
-0.106557
-0.100471
-0.100802
-0.799133
-0.820841
-0.859936
-0.903485
-0.926107
-0.891131
-0.763469
-0.610257
-0.478945
-0.382931
-0.322226
-0.289008
-0.265752
-0.228503
-0.19074
-0.159883
-0.136839
-0.123466
-0.119338
-0.120308
-0.446829
-0.462272
-0.492793
-0.531871
-0.562672
-0.558786
-0.506407
-0.43527
-0.36733
-0.311399
-0.27115
-0.24492
-0.224923
-0.200841
-0.176889
-0.157199
-0.141957
-0.13341
-0.131137
-0.132442
-0.109896
-0.118189
-0.137515
-0.171646
-0.212203
-0.244027
-0.259889
-0.261834
-0.252728
-0.233676
-0.213923
-0.196108
-0.183206
-0.172264
-0.161417
-0.152515
-0.145211
-0.141578
-0.141066
-0.142457
0.101
0.0963892
0.0823826
0.0539844
0.0100354
-0.0440553
-0.094138
-0.131485
-0.154084
-0.162028
-0.158718
-0.151049
-0.145977
-0.145512
-0.146324
-0.147423
-0.149443
-0.152333
-0.153786
-0.154666
0.184078
0.181218
0.170884
0.147433
0.107446
0.0544756
-0.000635778
-0.0491643
-0.0844664
-0.10498
-0.110965
-0.110612
-0.112291
-0.118934
-0.128265
-0.138561
-0.148239
-0.155423
-0.157933
-0.158283
0.191212
0.189218
0.181665
0.164018
0.133234
0.0912619
0.0443812
-0.00119117
-0.0382901
-0.062915
-0.072349
-0.0732306
-0.0762708
-0.0893235
-0.105516
-0.120582
-0.133326
-0.141478
-0.143829
-0.143976
0.166335
0.16502
0.159819
0.147507
0.12575
0.0952194
0.0590291
0.0219221
-0.0104535
-0.0341739
-0.0439274
-0.0429685
-0.0441839
-0.0613472
-0.0801691
-0.0954233
-0.106589
-0.112425
-0.114068
-0.114352
0.132201
0.131435
0.128063
0.119879
0.105151
0.0839288
0.0575576
0.0290188
0.00250703
-0.0180438
-0.0281727
-0.0279339
-0.0294433
-0.045445
-0.0605235
-0.070609
-0.0767466
-0.0791671
-0.0800161
-0.0804963
0.0974962
0.0972231
0.0952089
0.090045
0.0804641
0.0662314
0.0478912
0.0273502
0.00686292
-0.0113957
-0.0247453
-0.032952
-0.0387126
-0.0457757
-0.0496787
-0.051568
-0.0518897
-0.0515634
-0.0518652
-0.0525103
0.0651928
0.065081
0.0640562
0.0610673
0.0552408
0.0463087
0.034439
0.0206962
0.0060443
-0.00921796
-0.0262642
-0.0472099
-0.0580713
-0.0521584
-0.0443656
-0.0394235
-0.0361994
-0.0346722
-0.034616
-0.0351822
0.0351781
0.0352228
0.0348988
0.0335391
0.0306291
0.025974
0.0195968
0.0120299
0.00334003
-0.00689344
-0.0222067
-0.0461374
-0.0581202
-0.0457877
-0.0338484
-0.0279307
-0.025273
-0.0242505
-0.023993
-0.0242587
0.0062464
0.00636003
0.00653397
0.00699175
0.00714636
0.00662855
0.00541024
0.00380297
0.00207843
0.000348838
-0.00347348
-0.0107003
-0.018982
-0.0155152
-0.0144025
-0.0135657
-0.0127663
-0.0120175
-0.0106086
-0.00949095
-0.0690307
0.0958101
0.287668
0.455031
0.587925
0.69153
0.776588
0.849087
0.882454
0.859289
0.227529
0.346514
0.474284
0.58434
0.676646
0.752633
0.814076
0.857776
0.879656
0.891929
0.442196
0.523617
0.610882
0.687704
0.753579
0.808638
0.852457
0.884539
0.907866
0.925981
0.600285
0.65864
0.718925
0.775081
0.823761
0.865133
0.899178
0.926408
0.948964
0.967344
0.723818
0.766195
0.8115
0.854598
0.892727
0.926058
0.954636
0.978479
0.998716
1.0166
0.826946
0.859392
0.897058
0.932168
0.964437
0.993402
1.01875
1.04008
1.05784
1.07521
0.918756
0.9472
0.980873
1.01275
1.04248
1.06948
1.09309
1.11272
1.12816
1.14525
1.0069
1.03595
1.06978
1.10167
1.13114
1.15762
1.1804
1.19882
1.21215
1.22919
1.10194
1.13505
1.17159
1.20508
1.23505
1.26117
1.28306
1.3003
1.31214
1.32954
1.21678
1.25455
1.29313
1.32732
1.35662
1.38132
1.40166
1.41753
1.42897
1.44704
1.36163
1.40014
1.43624
1.46689
1.49254
1.51461
1.53364
1.54915
1.56157
1.57956
1.53664
1.56825
1.59441
1.61683
1.63679
1.65549
1.6732
1.68966
1.705
1.72307
1.72522
1.74241
1.75744
1.77365
1.78955
1.80407
1.81727
1.83119
1.84873
1.86888
1.90692
1.91645
1.92799
1.93879
1.94807
1.95765
1.96842
1.97979
1.99114
2.0065
2.11414
2.1178
2.10285
2.08804
2.08176
2.08743
2.10591
2.13622
2.16839
2.19505
2.42046
2.2856
2.20895
2.16656
2.14913
2.1531
2.18049
2.23691
2.33953
2.56389
0.749659
0.747532
0.74305
0.73443
0.722212
0.710094
0.699879
0.692005
0.686417
0.683204
0.682899
0.685684
0.690824
0.698073
0.707479
0.719031
0.731691
0.742731
0.748846
0.751903
0.6741
0.679947
0.686283
0.690781
0.693259
0.692945
0.690223
0.686435
0.682957
0.680739
0.680644
0.682891
0.686593
0.690909
0.694736
0.696633
0.695706
0.692232
0.687072
0.680452
0.665653
0.667949
0.671356
0.674358
0.676442
0.677951
0.678723
0.678431
0.67744
0.676604
0.676835
0.678316
0.680173
0.68151
0.681712
0.680838
0.6793
0.676973
0.673715
0.670797
0.66011
0.661196
0.663033
0.665418
0.667452
0.668894
0.669934
0.670714
0.671154
0.671429
0.671984
0.672852
0.673497
0.673599
0.673212
0.672383
0.670927
0.668854
0.666775
0.665395
0.654865
0.655528
0.656639
0.658353
0.660146
0.661794
0.663113
0.664161
0.665088
0.66594
0.666743
0.667365
0.667613
0.667487
0.666951
0.66592
0.66451
0.66298
0.66167
0.660893
0.649836
0.650296
0.651086
0.652393
0.653894
0.65543
0.656922
0.658257
0.659445
0.660572
0.661574
0.662224
0.662434
0.66221
0.661551
0.66059
0.659487
0.658371
0.657466
0.656951
0.644941
0.645285
0.645899
0.646978
0.648289
0.649685
0.651154
0.652643
0.654076
0.655439
0.656652
0.657442
0.657698
0.657483
0.656931
0.656191
0.655368
0.654522
0.653862
0.653486
0.640124
0.640391
0.640888
0.641809
0.642997
0.644319
0.645749
0.647288
0.648899
0.650515
0.651985
0.652972
0.653369
0.653324
0.652989
0.652475
0.651862
0.651249
0.650772
0.650486
0.635302
0.635513
0.635928
0.636739
0.63785
0.639128
0.640555
0.642148
0.643901
0.645771
0.647546
0.648817
0.649472
0.649682
0.64959
0.649307
0.648909
0.648493
0.648158
0.647934
0.630384
0.630554
0.630909
0.631649
0.632717
0.633979
0.635439
0.637125
0.639049
0.64119
0.643333
0.644985
0.645984
0.646499
0.646675
0.646634
0.646458
0.646223
0.646006
0.645828
0.625279
0.625415
0.62573
0.626427
0.627482
0.628772
0.630307
0.63213
0.634278
0.636751
0.639342
0.641467
0.64288
0.64375
0.644231
0.644452
0.644497
0.644439
0.644323
0.644181
0.619894
0.620003
0.62029
0.620969
0.622046
0.623412
0.625065
0.627079
0.629522
0.632414
0.635555
0.638249
0.640151
0.641434
0.642262
0.642768
0.643052
0.64317
0.643144
0.643028
0.61413
0.614216
0.614487
0.615172
0.616307
0.61779
0.619617
0.621893
0.624709
0.628128
0.631942
0.635321
0.637803
0.639565
0.640788
0.641631
0.642179
0.642467
0.64252
0.642425
0.607873
0.607938
0.608202
0.608916
0.610147
0.611795
0.613861
0.616476
0.619768
0.623841
0.628475
0.632676
0.635849
0.638177
0.639856
0.641078
0.641917
0.642393
0.642522
0.642443
0.600989
0.601033
0.601298
0.602064
0.603431
0.6053
0.607678
0.610727
0.614618
0.619496
0.625126
0.630313
0.634307
0.637304
0.639522
0.641172
0.642351
0.643028
0.643232
0.643166
0.593322
0.593343
0.59361
0.594452
0.595999
0.598152
0.600928
0.604528
0.609165
0.615032
0.621868
0.628235
0.633201
0.636987
0.639845
0.642007
0.64357
0.644467
0.644746
0.644689
0.584636
0.584648
0.584933
0.585874
0.587654
0.590157
0.593444
0.597738
0.603302
0.610381
0.618674
0.626449
0.632566
0.637279
0.640891
0.643671
0.645674
0.64681
0.647162
0.647111
0.574653
0.574636
0.57497
0.576057
0.57813
0.581096
0.585029
0.590192
0.596907
0.605472
0.615523
0.624968
0.632442
0.638249
0.642746
0.646243
0.648757
0.650153
0.650578
0.650529
0.563054
0.563011
0.563394
0.564675
0.567118
0.570679
0.575432
0.581692
0.589847
0.600236
0.612397
0.623815
0.632872
0.639957
0.645493
0.649813
0.652913
0.654583
0.655075
0.655022
0.549335
0.549265
0.54973
0.551264
0.554195
0.558527
0.56434
0.572007
0.581974
0.594605
0.609292
0.623021
0.633904
0.642454
0.649202
0.65447
0.658211
0.660159
0.660706
0.660643
0.532825
0.532726
0.533319
0.535209
0.538793
0.544157
0.551374
0.560874
0.573145
0.588537
0.606227
0.622627
0.635591
0.645803
0.653914
0.660247
0.66468
0.66689
0.667469
0.667389
0.512552
0.512427
0.513226
0.515637
0.520142
0.526941
0.536074
0.548015
0.563244
0.582031
0.603255
0.622694
0.637988
0.650049
0.659642
0.667157
0.672285
0.674708
0.675286
0.675181
0.487054
0.486914
0.488054
0.491273
0.497177
0.506076
0.517931
0.533192
0.552237
0.575165
0.600489
0.623317
0.641144
0.655201
0.666406
0.675151
0.680905
0.683447
0.683979
0.683842
0.453946
0.453832
0.455597
0.460222
0.468457
0.480645
0.496496
0.516313
0.540239
0.568137
0.598111
0.624617
0.645117
0.661267
0.674135
0.684092
0.690303
0.692821
0.693255
0.693083
0.408962
0.409021
0.412171
0.419736
0.4323
0.449859
0.471639
0.497603
0.527604
0.56129
0.596371
0.626729
0.649967
0.668219
0.682746
0.693749
0.700116
0.702418
0.702709
0.702507
0.344098
0.345365
0.353082
0.367218
0.387727
0.413839
0.443975
0.477773
0.51496
0.555082
0.595536
0.629775
0.655696
0.67598
0.691968
0.703651
0.709828
0.711678
0.711793
0.711578
0.267257
0.269123
0.28391
0.308226
0.33986
0.376049
0.415272
0.457372
0.502189
0.549301
0.59584
0.634708
0.663925
0.686656
0.704244
0.716451
0.722144
0.723594
0.723654
0.723519
0.188043
0.194447
0.216292
0.251049
0.293227
0.33921
0.387469
0.437896
0.490391
0.544543
0.59724
0.640753
0.67318
0.698298
0.717538
0.729618
0.734322
0.735232
0.73523
0.735157
0.12318
0.131995
0.158468
0.200378
0.250808
0.305115
0.361504
0.419711
0.479508
0.540399
0.598925
0.646713
0.681982
0.70891
0.728926
0.740648
0.744878
0.745678
0.745711
0.745688
0.0704298
0.0798511
0.109939
0.157165
0.213816
0.274822
0.338075
0.403139
0.469587
0.536767
0.600776
0.652562
0.690433
0.718992
0.739611
0.751119
0.75504
0.755781
0.755859
0.755883
0.0263413
0.0360486
0.0686212
0.119895
0.181649
0.248213
0.317285
0.388343
0.460778
0.533767
0.602957
0.658548
0.698892
0.72903
0.750346
0.761784
0.76545
0.766241
0.766392
0.766462
-0.0114628
-0.00165428
0.0327683
0.0872738
0.153258
0.224568
0.298719
0.375099
0.452975
0.531366
0.60548
0.664768
0.707564
0.739281
0.761325
0.772873
0.776609
0.777452
0.777631
0.777739
-0.0446845
-0.0348613
0.000969586
0.0581981
0.127734
0.203144
0.281802
0.36299
0.445881
0.529351
0.608203
0.671125
0.716372
0.749718
0.772652
0.78461
0.788507
0.789372
0.789526
0.789646
-0.0746378
-0.0648033
-0.0278294
0.0317479
0.104336
0.183345
0.266027
0.351597
0.439148
0.527453
0.610909
0.677426
0.725148
0.760181
0.784111
0.796594
0.800691
0.801582
0.801712
0.801809
-0.102248
-0.0923949
-0.0544489
0.00721369
0.0824865
0.164696
0.250992
0.340573
0.432484
0.525411
0.613377
0.683482
0.733693
0.770436
0.795385
0.808387
0.81271
0.813604
0.813689
0.813769
-0.128111
-0.118211
-0.0793713
-0.0159643
0.0617444
0.146823
0.236392
0.329654
0.425642
0.523004
0.615422
0.689128
0.741817
0.780224
0.806163
0.819634
0.824215
0.82511
0.825142
0.825181
-0.152728
-0.142736
-0.103033
-0.0381103
0.0418085
0.129458
0.221994
0.318634
0.418444
0.52007
0.616894
0.694236
0.749421
0.789444
0.816268
0.830114
0.834833
0.835716
0.835706
0.83571
-0.176423
-0.166254
-0.125804
-0.0594247
0.0224669
0.112412
0.207636
0.307379
0.410757
0.516474
0.617672
0.69873
0.756455
0.798041
0.82562
0.839699
0.844472
0.845281
0.845236
0.845209
-0.199312
-0.188958
-0.147853
-0.0800652
0.00356881
0.0955813
0.193224
0.295796
0.402487
0.512104
0.617655
0.702557
0.762931
0.806061
0.834202
0.848327
0.853012
0.853786
0.853713
0.853658
-0.221604
-0.211006
-0.169199
-0.100143
-0.0149614
0.0788983
0.178707
0.283839
0.393583
0.5069
0.616755
0.705665
0.768888
0.813618
0.842186
0.856156
0.860617
0.861302
0.861177
0.861104
-0.24328
-0.232437
-0.189971
-0.119733
-0.0331533
0.0623447
0.164083
0.271507
0.384032
0.500808
0.614891
0.707993
0.774382
0.820888
0.849765
0.863303
0.867364
0.867884
0.867717
0.867632
-0.264402
-0.253298
-0.210135
-0.138845
-0.0510119
0.0459265
0.149365
0.25883
0.373851
0.493813
0.61199
0.709469
0.779431
0.828041
0.85723
0.870026
0.87339
0.87364
0.873433
0.873342
-0.284863
-0.273553
-0.229694
-0.15745
-0.0685123
0.0296932
0.134599
0.245854
0.363086
0.48594
0.608
0.709996
0.78399
0.835231
0.864973
0.876775
0.878963
0.878667
0.878406
0.878351
-0.304786
-0.293173
-0.248657
-0.175545
-0.0856401
0.0136668
0.119857
0.232638
0.3518
0.477241
0.602894
0.709446
0.78794
0.842497
0.873393
0.884288
0.884765
0.883294
0.882775
0.882861
-0.324031
-0.312136
-0.267009
-0.193104
-0.102329
-0.00208004
0.105208
0.219291
0.340087
0.467757
0.59668
0.70768
0.791076
0.8497
0.882693
0.893473
0.892228
0.888698
0.886914
0.886629
-0.342669
-0.330506
-0.284706
-0.210088
-0.118555
-0.0174874
0.0907251
0.205879
0.328045
0.457608
0.589398
0.704553
0.793123
0.856488
0.89256
0.904781
0.903308
0.897595
0.891596
0.884341
-0.360626
-0.34824
-0.301847
-0.226651
-0.134522
-0.0328158
0.076093
0.192031
0.315261
0.446339
0.58058
0.699601
0.793707
0.862724
0.90267
0.91806
0.918751
0.911851
0.900146
0.896151
-0.377858
-0.365262
-0.31842
-0.242773
-0.150246
-0.0480655
0.0613161
0.17772
0.301676
0.433813
0.569992
0.692372
0.791959
0.867597
0.911154
0.929589
0.931967
0.926754
0.888155
0.836781
-0.394103
-0.380789
-0.334279
-0.258386
-0.165837
-0.0634094
0.0463281
0.16305
0.28733