/*--------------------------------*- C++ -*----------------------------------*\
  =========                 |
  \\      /  F ield         | OpenFOAM: The Open Source CFD Toolbox
   \\    /   O peration     | Website:  https://openfoam.org
    \\  /    A nd           | Version:  10
     \\/     M anipulation  |
\*---------------------------------------------------------------------------*/
FoamFile
{
    format      ascii;
    class       surfaceScalarField;
    location    "75";
    object      phi;
}
// * * * * * * * * * * * * * * * * * * * * * * * * * * * * * * * * * * * * * //

dimensions      [0 3 -1 0 0 0 0];

internalField   nonuniform List<scalar> 
17370
(
-0.0916058
0.0960093
0.284607
-0.0775944
0.0594197
0.36495
-0.0430413
0.0316208
0.427589
-0.0223162
0.0162629
0.505305
-0.0116689
0.00879435
0.602277
-0.00658238
0.00509686
0.720543
-0.00385964
0.00297935
0.863787
-0.00220661
0.00162858
1.03603
-0.00109712
0.000676055
1.24292
-0.000264188
-0.000131927
1.49159
0.000521367
-0.00093523
1.4916
0.00134133
-0.0018461
1.2432
0.00239392
-0.00313233
1.03638
0.00398643
-0.00520391
0.864124
0.00667787
-0.00887967
0.721259
0.011743
-0.0163202
0.603792
0.022356
-0.0316413
0.508725
0.0430409
-0.0594069
0.432534
0.0775863
-0.0960022
0.365191
0.0916216
0.197389
-0.127094
0.0880271
0.0390668
-0.364359
0.354035
-0.0714711
0.0817956
-0.446654
0.454259
-0.0791648
0.0715595
-0.521012
0.529115
-0.063703
0.0556002
-0.612993
0.620765
-0.0482102
0.0404377
-0.727166
0.73369
-0.033823
0.027299
-0.867583
0.872438
-0.0220922
0.0172369
-1.03857
1.04191
-0.013536
0.010194
-1.24472
1.24713
-0.00764051
0.00523142
-1.49284
1.49486
-0.00326412
0.00124674
-1.49269
1.49452
0.000575158
-0.00239676
-1.2441
1.24602
0.00437319
-0.00628725
-1.03761
1.04008
0.00862252
-0.0110969
-0.866185
0.869807
0.0143469
-0.0179687
-0.724591
0.729743
0.0227508
-0.0279025
-0.609062
0.615629
0.0343731
-0.0409401
-0.515121
0.522453
0.0486571
-0.0559895
-0.43988
0.447653
0.0640065
-0.0717793
-0.374703
0.377355
0.079265
-0.081917
-0.256892
0.224428
0.0715663
-0.0391018
-0.0688181
0.0592098
0.00960832
-0.052088
0.0589083
-0.374844
0.368024
-0.0580558
0.0542097
-0.453952
0.457799
-0.0487192
0.044156
-0.527625
0.532188
-0.0396012
0.0357002
-0.62081
0.624711
-0.0314809
0.0274798
-0.73467
0.738671
-0.0231163
0.019223
-0.873966
0.87786
-0.0151712
0.0117083
-1.04337
1.04684
-0.00818234
0.00514406
-1.24866
1.2517
-0.00193101
-0.00105398
-1.49695
1.49994
0.00401657
-0.00716748
-1.49741
1.50056
0.0101142
-0.0135131
-1.25006
1.25345
0.0168422
-0.0207377
-1.04564
1.04953
0.0244943
-0.0287245
-0.877123
0.881353
0.0326182
-0.0367303
-0.738969
0.743081
0.0405421
-0.0450092
-0.625957
0.630424
0.0494991
-0.054918
-0.535005
0.540424
0.0586806
-0.0594351
-0.458064
0.458819
0.0524771
-0.0320776
-0.336746
0.316346
0.00967757
-0.0686504
0.0589728
-0.0534243
0.0493169
0.00410735
-0.0332155
0.0436264
-0.358587
0.348176
-0.0472918
0.0466975
-0.459597
0.460191
-0.0437619
0.0405428
-0.53615
0.539369
-0.036858
0.0334957
-0.628417
0.631779
-0.0298529
0.0266032
-0.742058
0.745308
-0.0231405
0.0199339
-0.881363
0.88457
-0.0163307
0.0129698
-1.05027
1.05363
-0.00926084
0.005848
-1.25497
1.25838
-0.00204971
-0.00157143
-1.50329
1.50691
0.00515991
-0.00886334
-1.50406
1.50776
0.012146
-0.0156739
-1.25701
1.26053
0.0188449
-0.0222257
-1.05324
1.05662
0.0252375
-0.0285094
-0.884951
0.888223
0.0316045
-0.0350933
-0.746753
0.750242
0.0383243
-0.0418726
-0.634536
0.638084
0.0449735
-0.0477767
-0.544559
0.547363
0.0482337
-0.0443779
-0.456924
0.453068
0.0337332
-0.0163984
-0.297012
0.279677
0.00418426
-0.0531177
0.0489335
-0.046152
0.0436017
0.0025503
-0.0230104
0.0333409
-0.3376
0.32727
-0.0390572
0.039994
-0.45995
0.459014
-0.0387312
0.0363939
-0.542032
0.54437
-0.0337405
0.0311831
-0.634755
0.637312
-0.0281933
0.0253334
-0.748403
0.751263
-0.0220823
0.0190563
-0.887638
0.890664
-0.0156919
0.0125456
-1.05682
1.05997
-0.00897568
0.00556488
-1.26178
1.2652
-0.00164507
-0.0021577
-1.51065
1.51445
0.00591802
-0.00970919
-1.51153
1.51532
0.0129468
-0.0162788
-1.26398
1.26731
0.0191756
-0.0222495
-1.05982
1.0629
0.0250181
-0.0280117
-0.891404
0.894397
0.0306593
-0.0334361
-0.753407
0.756184
0.0358134
-0.0382846
-0.641025
0.643496
0.0404666
-0.0415252
-0.549185
0.550243
0.0403756
-0.0343487
-0.447924
0.441897
0.0236765
-0.0103996
-0.264464
0.251187
0.00264578
-0.0456823
0.0430365
-0.041489
0.0396951
0.00179388
-0.0168981
0.0261573
-0.317423
0.308164
-0.0327272
0.0348283
-0.457468
0.455367
-0.0343767
0.0326638
-0.54641
0.548123
-0.0304199
0.0282764
-0.639636
0.641779
-0.0258207
0.0234254
-0.753878
0.756273
-0.0205919
0.0178283
-0.893537
0.896301
-0.0146254
0.0115741
-1.06303
1.06608
-0.00809195
0.00476249
-1.26853
1.27186
-0.000911159
-0.00284228
-1.51822
1.52198
0.00654066
-0.0102287
-1.51906
1.52275
0.0133375
-0.0165178
-1.27057
1.27375
0.0192524
-0.0220833
-1.06592
1.06875
0.0245146
-0.027015
-0.897162
0.899662
0.0291365
-0.031319
-0.758606
0.760788
0.033233
-0.035242
-0.645707
0.647716
0.0367293
-0.0369021
-0.550806
0.550979
0.0344738
-0.0274487
-0.435275
0.42825
0.0177306
-0.00750607
-0.239577
0.229353
0.00191082
-0.040818
0.0389072
-0.0381523
0.0368085
0.00134382
-0.0128891
0.0208546
-0.299554
0.291588
-0.0275864
0.0304812
-0.452834
0.449939
-0.0306644
0.0295194
-0.549575
0.55072
-0.0275002
0.0255535
-0.643852
0.645798
-0.0233184
0.0211554
-0.758535
0.760699
-0.0186234
0.016133
-0.898872
0.901363
-0.0131888
0.0103119
-1.069
1.07187
-0.00696042
0.00372653
-1.27511
1.27834
2.16439e-05
-0.00365925
-1.52565
1.52929
0.00722889
-0.0107709
-1.52635
1.52989
0.0137285
-0.0167024
-1.27685
1.27982
0.0191822
-0.0216593
-1.07146
1.07394
0.0237345
-0.025849
-0.901949
0.904063
0.0276659
-0.0295533
-0.762808
0.764695
0.0312093
-0.032946
-0.649566
0.651302
0.033762
-0.03319
-0.550781
0.550208
0.0298273
-0.0224712
-0.421001
0.413645
0.0139159
-0.00581205
-0.220289
0.212185
0.00148643
-0.037235
0.0357486
-0.0356357
0.0346037
0.00103198
-0.0100535
0.0167866
-0.284262
0.277529
-0.0232592
0.0266086
-0.446794
0.443444
-0.0273619
0.0266454
-0.55164
0.552356
-0.0248553
0.0230493
-0.64771
0.649516
-0.0209608
0.0189299
-0.762795
0.764826
-0.0165412
0.0141977
-0.903719
0.906062
-0.011442
0.00874109
-1.0746
1.0773
-0.00556582
0.00247019
-1.28147
1.28457
0.00113863
-0.00464263
-1.53284
1.53634
0.00806096
-0.0114154
-1.53332
1.53668
0.0141674
-0.0168748
-1.28267
1.28538
0.019086
-0.021266
-1.07633
1.07851
0.0230966
-0.024968
-0.906057
0.907929
0.0265699
-0.0282273
-0.766458
0.768115
0.0296731
-0.0310739
-0.652893
0.654293
0.0313807
-0.0300755
-0.549284
0.547979
0.0260812
-0.0187866
-0.406293
0.398998
0.0113123
-0.00469289
-0.204893
0.198273
0.00120546
-0.0344186
0.0332131
-0.0336982
0.0328973
0.00080093
-0.00794903
0.013601
-0.271363
0.265711
-0.0195879
0.023134
-0.439983
0.436437
-0.0243624
0.0238898
-0.552977
0.55345
-0.0223686
0.0206699
-0.651315
0.653014
-0.0186756
0.016732
-0.766812
0.768755
-0.0144414
0.0121902
-0.908299
0.91055
-0.00953897
0.0069483
-1.07988
1.08247
-0.00391532
0.000956728
-1.28755
1.2905
0.00249007
-0.00583119
-1.53974
1.54308
0.0090683
-0.0122042
-1.5399
1.54304
0.01474
-0.0172022
-1.28796
1.29042
0.0191928
-0.0211368
-1.08065
1.08259
0.0227585
-0.0244144
-0.909694
0.91135
0.0258313
-0.0272953
-0.769669
0.771133
0.0285444
-0.0295611
-0.655488
0.656504
0.0294934
-0.0275118
-0.546338
0.544356
0.0231036
-0.0160614
-0.391824
0.384782
0.0094882
-0.00392168
-0.19223
0.186663
0.00101185
-0.0321164
0.0311045
-0.0321942
0.031572
0.000622175
-0.00632528
0.0110518
-0.260548
0.255821
-0.0164442
0.0199885
-0.432887
0.429343
-0.0215374
0.0212871
-0.553841
0.554092
-0.0199952
0.0183572
-0.654728
0.656366
-0.0164171
0.0145208
-0.770673
0.772569
-0.0122869
0.0100933
-0.912702
0.914896
-0.00751172
0.00499233
-1.08495
1.08747
-0.00205038
-0.000796576
-1.29335
1.2962
0.00410018
-0.00727657
-1.54631
1.54948
0.0103245
-0.0132456
-1.54604
1.54896
0.0155849
-0.0178325
-1.29278
1.29503
0.019621
-0.02134
-1.08453
1.08625
0.0227654
-0.024224
-0.912906
0.914364
0.0254751
-0.0267631
-0.772503
0.773791
0.0278632
-0.0284548
-0.657309
0.6579
0.0280124
-0.0254581
-0.542101
0.539547
0.0207907
-0.0140669
-0.377907
0.371184
0.00820339
-0.00338632
-0.181509
0.176692
0.000878273
-0.0301691
0.0292908
-0.0310295
0.0305522
0.000477284
-0.00501728
0.00894426
-0.251518
0.247591
-0.0136957
0.0170876
-0.425878
0.422486
-0.0188155
0.0187517
-0.554284
0.554348
-0.0176535
0.0160483
-0.65805
0.659655
-0.0141294
0.0122464
-0.774454
0.776337
-0.010028
0.00785469
-0.916998
0.919171
-0.00530647
0.00283091
-1.08988
1.09236
4.13878e-05
-0.0028192
-1.29895
1.30173
0.00600727
-0.00903761
-1.55255
1.55558
0.0119121
-0.014634
-1.55175
1.55447
0.0167867
-0.018825
-1.29717
1.29921
0.020415
-0.0219152
-1.08798
1.08948
0.0231555
-0.0244334
-0.915724
0.917002
0.0255347
-0.0266614
-0.77499
0.776117
0.0275668
-0.0277798
-0.6583
0.658513
0.0269225
-0.0238818
-0.536759
0.533718
0.0190516
-0.0126362
-0.364631
0.358215
0.00730958
-0.00302074
-0.172171
0.167882
0.000788653
-0.0284662
0.0276775
-0.0301425
0.029788
0.000354559
-0.00391994
0.00714328
-0.244037
0.240814
-0.0112405
0.0143689
-0.419235
0.416106
-0.0161486
0.0162325
-0.554381
0.554297
-0.0152154
0.0136791
-0.661302
0.662838
-0.0117533
0.00985048
-0.778221
0.780124
-0.00760907
0.00542047
-0.921258
0.923447
-0.00286769
0.000403541
-1.09474
1.0972
0.00244767
-0.00517182
-1.30441
1.30713
0.00827168
-0.0111824
-1.55851
1.56142
0.0139047
-0.0164406
-1.55706
1.55959
0.0184129
-0.0202458
-1.30114
1.30297
0.0216394
-0.0229235
-1.09103
1.09231
0.0239837
-0.0250885
-0.918179
0.919284
0.0260475
-0.0270093
-0.77715
0.778112
0.0276507
-0.0275702
-0.658591
0.658511
0.0262617
-0.0227758
-0.530464
0.526978
0.0178224
-0.0116577
-0.35195
0.345785
0.00671533
-0.00278445
-0.163801
0.15987
0.000732842
-0.0269254
0.0261926
-0.0294938
0.0292489
0.000244966
-0.0029566
0.00554378
-0.237927
0.23534
-0.00898632
0.0117674
-0.413166
0.410385
-0.0134837
0.0136436
-0.554223
0.554063
-0.0126638
0.0111681
-0.664438
0.665934
-0.00921166
0.00725923
-0.782036
0.783989
-0.00495854
0.00271999
-0.925552
0.927791
-0.000126799
-0.00237129
-1.09958
1.10207
0.00523039
-0.00793712
-1.30978
1.31249
0.0109814
-0.013798
-1.56424
1.56706
0.0163865
-0.0187489
-1.562
1.56436
0.0205493
-0.0221833
-1.30469
1.30633
0.0233807
-0.0244436
-1.09367
1.09474
0.0253191
-0.0262468
-0.92028
0.921207
0.0270596
-0.0278543
-0.778953
0.779748
0.0282065
-0.0278241
-0.658285
0.657902
0.0260524
-0.0221345
-0.5233
0.519382
0.0170564
-0.0110565
-0.339736
0.333736
0.00636187
-0.00265115
-0.156076
0.152366
0.000704003
-0.0254828
0.0247788
-0.0290613
0.0289205
0.000140884
-0.00206359
0.00405311
-0.233068
0.231078
-0.00683604
0.00919905
-0.407832
0.405469
-0.0107424
0.0108979
-0.553964
0.553808
-0.00992054
0.0084259
-0.667531
0.669026
-0.00641097
0.00437769
-0.785957
0.78799
-0.00197945
-0.000341795
-0.929947
0.932269
0.00302719
-0.00558671
-1.10449
1.10705
0.00849359
-0.0112163
-1.31512
1.31784
0.0142366
-0.0169814
-1.56979
1.57253
0.019451
-0.021649
-1.56659
1.56879
0.023282
-0.0247176
-1.30784
1.30928
0.0257122
-0.0265419
-1.09592
1.09675
0.0272203
-0.0279536
-0.92201
0.922743
0.0286099
-0.0292615
-0.780397
0.781048
0.0292951
-0.0285136
-0.657323
0.656542
0.0262791
-0.0219324
-0.515296
0.51095
0.0167016
-0.0107693
-0.327808
0.321876
0.00620303
-0.00260024
-0.148736
0.145133
0.000696669
-0.0240874
0.0233907
-0.0288374
0.0288015
3.58889e-05
-0.00119347
0.0026001
-0.229395
0.227988
-0.00470925
0.00658932
-0.403369
0.401489
-0.00785403
0.00792141
-0.553767
0.553699
-0.00689936
0.00536743
-0.670664
0.672195
-0.00325513
0.00110675
-0.790043
0.792191
0.00142933
-0.00387808
-0.934516
0.936965
0.00668972
-0.00935286
-1.10953
1.11219
0.0123512
-0.0151266
-1.32051
1.32328
0.0181578
-0.020856
-1.5752
1.5779
0.023223
-0.0252631
-1.57085
1.57289
0.0267282
-0.0279618
-1.31058
1.31181
0.0287492
-0.0293428
-1.09774
1.09833
0.0298187
-0.0303472
-0.923347
0.923875
0.0308325
-0.0312641
-0.781473
0.781905
0.0309977
-0.0297405
-0.655565
0.654308
0.0270038
-0.0221919
-0.506436
0.501624
0.0167469
-0.0107691
-0.315967
0.30999
0.00621702
-0.00262195
-0.141563
0.137968
0.000708365
-0.0226977
0.0219893
-0.0288253
0.0288967
-7.13215e-05
-0.000309341
0.00112378
-0.226887
0.226073
-0.00252716
0.00385608
-0.399903
0.398574
-0.00473701
0.00463129
-0.553805
0.553911
-0.00350694
0.00188546
-0.673924
0.675546
0.000361707
-0.00266626
-0.794364
0.796669
0.00538785
-0.00800714
-0.939335
0.941954
0.0109974
-0.0138088
-1.11479
1.1176
0.0169438
-0.0198095
-1.326
1.32887
0.0228862
-0.0255611
-1.58052
1.5832
0.0278382
-0.0297239
-1.57479
1.57668
0.0310181
-0.0320419
-1.31289
1.31392
0.032619
-0.0329711
-1.09911
1.09946
0.0332338
-0.0335435
-0.924263
0.924573
0.0338316
-0.0339576
-0.782014
0.78214
0.0333765
-0.0315639
-0.652866
0.651053
0.0282696
-0.0229302
-0.496636
0.491297
0.0171858
-0.0110383
-0.30398
0.297832
0.0063895
-0.00270941
-0.13436
0.13068
0.000737139
-0.0212766
0.0205395
-0.0290402
0.0292328
-0.000192667
0.000620981
-0.000433256
-0.225569
0.225381
-0.000209977
0.000911875
-0.397561
0.396859
-0.00130396
0.000937244
-0.55426
0.554626
0.00034837
-0.00213513
-0.677429
0.679216
0.00457828
-0.00708984
-0.799008
0.80152
0.0100513
-0.01289
-0.944497
0.947336
0.0161134
-0.0191219
-1.12035
1.12336
0.0224438
-0.0254395
-1.33169
1.33469
0.0285961
-0.0312683
-1.5858
1.58848
0.033463
-0.03519
-1.57841
1.58014
0.0363091
-0.0371152
-1.31475
1.31556
0.0374726
-0.0375675
-1.1
1.10009
0.0375996
-0.0376749
-0.924724
0.924799
0.0377655
-0.0374993
-0.781906
0.78164
0.0365195
-0.034071
-0.64907
0.646622
0.0301381
-0.0241738
-0.485754
0.479789
0.0180184
-0.0115646
-0.291591
0.285137
0.00670842
-0.00285582
-0.126945
0.123092
0.000780663
-0.019791
0.0190104
-0.02951
0.0298529
-0.000342908
0.00168013
-0.00213238
-0.225536
0.225988
0.00233971
-0.00237328
-0.396483
0.396517
0.00260631
-0.00334385
-0.555355
0.556093
0.00486997
-0.00686397
-0.68132
0.683314
0.00955776
-0.0123308
-0.804063
0.806836
0.0155956
-0.0187127
-0.950102
0.95322
0.0222328
-0.025493
-1.12632
1.12958
0.0290553
-0.0322225
-1.33765
1.34081
0.0354937
-0.0381824
-1.59108
1.59377
0.0402989
-0.0418571
-1.5817
1.58326
0.0427775
-0.0433541
-1.31613
1.31671
0.043482
-0.0432964
-1.10035
1.10017
0.0430733
-0.0428979
-0.924675
0.924499
0.0427795
-0.0420225
-0.780981
0.780224
0.040554
-0.0373563
-0.644019
0.640821
0.0326699
-0.0259465
-0.47358
0.466856
0.0192449
-0.0123368
-0.278523
0.271615
0.00716248
-0.00305467
-0.119145
0.115037
0.000836773
-0.0182125
0.0173757
-0.0302656
0.0307898
-0.000524243
0.00298727
-0.00421785
-0.226847
0.228078
0.00530577
-0.00615099
-0.396881
0.397726
0.0071131
-0.00832186
-0.557321
0.558529
0.0101808
-0.0124614
-0.685708
0.687989
0.0154942
-0.0186052
-0.809647
0.812758
0.0222529
-0.0257177
-0.956272
0.959737
0.0296052
-0.0331757
-1.1328
1.13637
0.0370333
-0.0404103
-1.34395
1.34733
0.0438218
-0.0465332
-1.59639
1.5991
0.0485615
-0.049934
-1.58463
1.586
0.0506319
-0.0509658
-1.31698
1.31732
0.0508431
-0.0503537
-1.10013
1.09964
0.0498591
-0.0494201
-0.924061
0.923622
0.0489676
-0.0477392
-0.779116
0.777888
0.0456166
-0.0415208
-0.637467
0.633372
0.0359289
-0.0282719
-0.459829
0.452172
0.0208626
-0.0133402
-0.264476
0.256954
0.00773704
-0.00329717
-0.110798
0.106358
0.00090235
-0.0165174
0.015615
-0.0313827
0.0321328
-0.000750085
0.00451357
-0.00664126
-0.229717
0.231845
0.00881085
-0.0105782
-0.398968
0.400735
0.0123774
-0.0141791
-0.560407
0.562209
0.0165074
-0.0191772
-0.69076
0.69343
0.0226619
-0.0261966
-0.815915
0.81945
0.0303187
-0.0342106
-0.963147
0.967039
0.0385452
-0.0424887
-1.13992
1.14386
0.0466948
-0.0503125
-1.35067
1.35429
0.0538762
-0.0566
-1.60173
1.60445
0.0585133
-0.0596622
-1.58716
1.58831
0.0601001
-0.0601544
-1.31725
1.3173
0.0597601
-0.0589437
-1.09927
1.09845
0.0581533
-0.0574226
-0.922841
0.922111
0.0565555
-0.0547842
-0.776351
0.77458
0.0518623
-0.0466645
-0.629107
0.623909
0.0399638
-0.0311521
-0.444137
0.435325
0.0228484
-0.0145433
-0.249124
0.240819
0.00840562
-0.00356856
-0.101755
0.0969176
0.000972389
-0.0146888
0.0137164
-0.0329451
0.0339891
-0.00104398
0.00642622
-0.0096231
-0.234386
0.237582
0.0130758
-0.0159151
-0.403012
0.405851
0.0186978
-0.0212181
-0.564897
0.567418
0.02416
-0.0273421
-0.696696
0.699878
0.0314103
-0.0354829
-0.823038
0.827111
0.0401892
-0.044597
-0.97089
0.975297
0.0494621
-0.0538366
-1.14778
1.15216
0.0584309
-0.062301
-1.35787
1.36174
0.0660022
-0.0687002
-1.60707
1.60977
0.0704461
-0.071311
-1.58921
1.59008
0.0714314
-0.0711503
-1.3168
1.31652
0.070463
-0.0692788
-1.0977
1.09652
0.0681563
-0.0671393
-0.920976
0.919959
0.0657349
-0.0633232
-0.772519
0.770108
0.0594114
-0.0528434
-0.618519
0.611951
0.044775
-0.034542
-0.426047
0.415815
0.0251381
-0.0158842
-0.232133
0.222879
0.00912225
-0.00384522
-0.0918954
0.0866184
0.00103937
-0.0127214
0.011682
-0.0350806
0.0365289
-0.00144833
0.00891748
-0.0134864
-0.241178
0.245747
0.018442
-0.0225276
-0.409382
0.413468
0.0264617
-0.0298549
-0.571119
0.574512
0.0335889
-0.0374451
-0.703784
0.70764
0.0422658
-0.0470097
-0.831239
0.835983
0.0524226
-0.0574376
-0.97968
0.984695
0.0629058
-0.0677473
-1.15651
1.16135
0.0727323
-0.0768239
-1.36554
1.36963
0.0805938
-0.0831783
-1.6123
1.61489
0.0846613
-0.0851444
-1.59064
1.59112
0.0848856
-0.0841944
-1.31556
1.31487
0.0831556
-0.0815932
-1.09533
1.09377
0.0801595
-0.0787124
-0.918427
0.91698
0.0767925
-0.0734865
-0.767362
0.764056
0.0683376
-0.0600553
-0.605146
0.596864
0.0502925
-0.0383245
-0.405018
0.39305
0.0276058
-0.0172577
-0.213183
0.202835
0.00981527
-0.00409294
-0.081152
0.0754297
0.0010931
-0.010626
0.00953288
-0.0379912
0.0400092
-0.00201809
0.0123845
-0.018683
-0.250625
0.256923
0.0254445
-0.0309874
-0.418574
0.424117
0.0362858
-0.0407522
-0.579463
0.583929
0.0454847
-0.050216
-0.712371
0.717102
0.0560012
-0.0615683
-0.840777
0.846344
0.0678078
-0.0734986
-0.989695
0.995386
0.079598
-0.0848866
-1.16614
1.17143
0.090192
-0.0944009
-1.37359
1.3778
0.0980915
-0.100406
-1.61722
1.61954
0.101472
-0.10143
-1.59122
1.59118
0.100702
-0.099484
-1.3134
1.31218
0.0980529
-0.0960983
-1.09213
1.09018
0.0943111
-0.0923224
-0.914865
0.912876
0.089854
-0.085386
-0.760332
0.755864
0.0786432
-0.0681876
-0.588261
0.577806
0.0563272
-0.0422748
-0.380429
0.366377
0.0300406
-0.0185045
-0.192012
0.180476
0.0103833
-0.00426643
-0.0695412
0.0634243
0.00112079
-0.008435
0.00731421
-0.0420014
0.0449052
-0.00290382
0.0173991
-0.025967
-0.263456
0.272024
0.0349738
-0.042282
-0.431252
0.43856
0.0492234
-0.0549638
-0.590422
0.596162
0.0610255
-0.0669353
-0.722878
0.728788
0.0738721
-0.0803663
-0.851932
0.858426
0.0874862
-0.0938382
-1.00104
1.00739
0.100483
-0.106083
-1.17659
1.18219
0.111505
-0.115611
-1.38175
1.38586
0.118951
-0.120738
-1.62147
1.62325
0.121154
-0.120385
-1.59064
1.58987
0.11904
-0.117203
-1.3101
1.30826
0.115342
-0.112962
-1.088
1.08562
0.110784
-0.108157
-0.910037
0.907409
0.104952
-0.0989229
-0.750826
0.744797
0.0901112
-0.0769144
-0.566914
0.553717
0.0624938
-0.0460096
-0.351622
0.335137
0.0321197
-0.0194033
-0.168495
0.155779
0.0106963
-0.00431183
-0.057204
0.0508196
0.00110833
-0.00620665
0.00509832
-0.0476983
0.0520997
-0.00440145
0.0251735
-0.0368299
-0.280837
0.292494
0.0487609
-0.0584109
-0.448468
0.458118
0.0673913
-0.0746154
-0.604594
0.611818
0.0822457
-0.0896909
-0.735679
0.743125
0.0978553
-0.105207
-0.864908
0.87226
0.113047
-0.119842
-1.01361
1.0204
0.126717
-0.132289
-1.18749
1.19306
0.137417
-0.141026
-1.3895
1.39311
0.143583
-0.144455
-1.62445
1.62532
0.143897
-0.142165
-1.58847
1.58674
0.140037
-0.137483
-1.30548
1.30293
0.135106
-0.132278
-1.0828
1.07997
0.129565
-0.126311
-0.903813
0.900559
0.121974
-0.11379
-0.737958
0.729774
0.102245
-0.0856238
-0.539903
0.523282
0.0681691
-0.0489918
-0.317998
0.298821
0.0334354
-0.0197049
-0.142762
0.129031
0.0106199
-0.00417805
-0.0444472
0.0380054
0.0010424
-0.00402546
0.00298306
-0.0561717
0.063725
-0.00755327
0.0388606
-0.0550163
-0.304943
0.321099
0.0710271
-0.0838869
-0.471845
0.484705
0.0950394
-0.103671
-0.622427
0.631059
0.112835
-0.121573
-0.751165
0.759904
0.13069
-0.138482
-0.879404
0.887196
0.146452
-0.15308
-1.02679
1.03342
0.159496
-0.164391
-1.19801
1.20291
0.168541
-0.171033
-1.39594
1.39843
0.172231
-0.171746
-1.62534
1.62486
0.169862
-0.166861
-1.58424
1.58124
0.163731
-0.160298
-1.29931
1.29588
0.157317
-0.154019
-1.07642
1.07312
0.150767
-0.14656
-0.895864
0.891657
0.140509
-0.129285
-0.720381
0.709157
0.114111
-0.0932973
-0.505738
0.484924
0.0725127
-0.0506468
-0.279218
0.257352
0.0336542
-0.0192798
-0.115345
0.100971
0.0101193
-0.00386954
-0.0317628
0.025513
0.00092818
-0.00200025
0.00107207
-0.0707569
0.0749904
-0.00423345
0.0297922
-0.0437926
-0.339808
0.353808
0.0579959
-0.069749
-0.502827
0.51458
0.0803303
-0.0902498
-0.643544
0.653464
0.101398
-0.111592
-0.768215
0.778409
0.122947
-0.133123
-0.894117
0.904293
0.144032
-0.153797
-1.03911
1.04888
0.164069
-0.172959
-1.20673
1.21562
0.181913
-0.189206
-1.3998
1.40709
0.195931
-0.200646
-1.62322
1.62793
0.203336
-0.20461
-1.57726
1.57853
0.204694
-0.204284
-1.29127
1.29086
0.204064
-0.20328
-1.06859
1.0678
0.201793
-0.19747
-0.885311
0.880988
0.188686
-0.171208
-0.696104
0.678626
0.147533
-0.116518
-0.462907
0.431892
0.0874299
-0.0585342
-0.235493
0.206598
0.0375073
-0.0207187
-0.0873313
0.0705427
0.0105091
-0.0038644
-0.0197887
0.013144
0.00088389
-0.000232031
-0.000651859
-0.0823074
0.0804473
0.00186005
0.00774727
-0.0170358
-0.370689
0.379977
0.0278586
-0.0362248
-0.531109
0.539475
0.0447576
-0.0532039
-0.66596
0.674406
0.0634579
-0.0730192
-0.788264
0.797825
0.0832327
-0.0926045
-0.913932
0.923303
0.102616
-0.111239
-1.05837
1.06699
0.120505
-0.128167
-1.22435
1.23201
0.13585
-0.141853
-1.41413
1.42013
0.146892
-0.150145
-1.63194
1.63519
0.151433
-0.151348
-1.57923
1.57914
0.150058
-0.148157
-1.28949
1.28759
0.146527
-0.144704
-1.06432
1.0625
0.142188
-0.1365
-0.872051
0.866363
0.126874
-0.110602
-0.656964
0.640692
0.0913373
-0.068441
-0.399135
0.376238
0.0490714
-0.0316781
-0.178512
0.161119
0.0198718
-0.0108758
-0.0549401
0.0459442
0.00551286
-0.00200184
-0.00687778
0.00336676
0.000393314
0.00160043
-0.00199374
-0.0838041
0.0808373
0.00296689
-0.00168218
-0.00375063
-0.391598
0.397031
0.0111644
-0.017256
-0.552106
0.558198
0.0236078
-0.0309913
-0.684995
0.692378
0.0398719
-0.0481762
-0.806479
0.814783
0.0572736
-0.0654545
-0.931923
0.940104
0.0739418
-0.0816148
-1.07543
1.0831
0.0896403
-0.0963557
-1.23922
1.24594
0.102618
-0.107296
-1.42545
1.43013
0.11119
-0.113176
-1.63776
1.63974
0.113249
-0.112006
-1.57849
1.57725
0.109836
-0.107174
-1.28525
1.28259
0.104385
-0.101483
-1.05798
1.05508
0.098084
-0.0921002
-0.85665
0.850666
0.0831397
-0.0693595
-0.621349
0.607568
0.0548824
-0.0393912
-0.351729
0.336238
0.0277642
-0.0180957
-0.143752
0.134084
0.0116923
-0.00674891
-0.0371847
0.0322413
0.00360187
-0.00128457
-1.60111e-05
-0.00230129
0.000276538
0.00261561
-0.00289215
-0.0824792
0.0796569
0.00282233
-0.00550119
0.00289149
-0.405572
0.408182
0.00192422
-0.00654972
-0.567657
0.572282
0.0118969
-0.0180684
-0.700705
0.706877
0.0256288
-0.0327247
-0.822436
0.829532
0.0404867
-0.0474871
-0.94774
0.95474
0.0551254
-0.061606
-1.09031
1.09679
0.0685604
-0.0738906
-1.25219
1.25752
0.0791395
-0.0829022
-1.43453
1.4383
0.0856257
-0.0863379
-1.64123
1.64194
0.0855855
-0.0835557
-1.57541
1.57338
0.0806928
-0.0769015
-1.27944
1.27565
0.0733376
-0.069444
-1.04996
1.04606
0.0651595
-0.0595446
-0.840518
0.834903
0.0517501
-0.0413187
-0.591283
0.580851
0.031444
-0.0221347
-0.319736
0.310426
0.0157959
-0.0108281
-0.123723
0.118756
0.00749704
-0.00472293
-0.0268717
0.0240976
0.0026429
-0.00108259
0.00472225
-0.00628255
0.000271171
0.00342926
-0.00370043
-0.0808542
0.0783173
0.00253693
-0.00681454
0.00589756
-0.414831
0.415748
-0.00236887
-0.000953238
-0.580104
0.583426
0.00527574
-0.0108456
-0.713838
0.719408
0.0171606
-0.0233467
-0.835903
0.842089
0.0300224
-0.0360498
-0.961258
0.967286
0.0425377
-0.0482194
-1.10309
1.10877
0.0540188
-0.0587561
-1.26266
1.26739
0.063081
-0.066017
-1.44161
1.44455
0.0678479
-0.0677364
-1.64238
1.64227
0.0662087
-0.0632112
-1.57054
1.56754
0.0596921
-0.0553312
-1.27156
1.2672
0.0510658
-0.0461768
-1.04047
1.03558
0.0413948
-0.0358063
-0.825055
0.819466
0.0294734
-0.0217952
-0.568145
0.560467
0.0155832
-0.0106367
-0.29983
0.294884
0.00777925
-0.00585426
-0.112888
0.110963
0.0045509
-0.00323829
-0.0207907
0.019478
0.00192531
-0.000885935
0.00819305
-0.00923243
0.000256416
0.0042133
-0.00446972
-0.0792764
0.0770679
0.00220846
-0.00685476
0.00652848
-0.421063
0.421389
-0.00445776
0.00180309
-0.589598
0.592253
0.00230688
-0.00703816
-0.724898
0.729629
0.0124156
-0.0177444
-0.847459
0.852787
0.0236204
-0.0289367
-0.972929
0.978245
0.0347692
-0.0396473
-1.11412
1.119
0.0447184
-0.0488133
-1.27177
1.27586
0.0523969
-0.0546704
-1.44712
1.44939
0.0557607
-0.0553469
-1.64193
1.64152
0.0531425
-0.049657
-1.56394
1.56045
0.0455621
-0.040564
-1.2624
1.2574
0.0359459
-0.0302916
-1.02956
1.0239
0.0250379
-0.0196565
-0.81024
0.804858
0.0142799
-0.00855633
-0.550891
0.545167
0.00481768
-0.00265003
-0.288234
0.286067
0.00208453
-0.00196035
-0.107734
0.10761
0.0018682
-0.00161372
-0.0176972
0.0174427
0.00109907
-0.000591903
0.010522
-0.0110292
0.000200834
0.00489011
-0.00509095
-0.0779857
0.0762265
0.00175915
-0.00610501
0.00618962
-0.425524
0.42544
-0.00458594
0.00264517
-0.597775
0.599715
0.00112305
-0.00536963
-0.734369
0.738616
0.0104036
-0.0149407
-0.857689
0.862226
0.0200363
-0.0246754
-0.983495
0.988134
0.0300951
-0.0344126
-1.12386
1.12818
0.0387699
-0.0424588
-1.2797
1.28339
0.0459168
-0.0477234
-1.45159
1.45339
0.0484477
-0.0475049
-1.64057
1.63962
0.0451772
-0.0410044
-1.55658
1.55241
0.0366937
-0.0314291
-1.25202
1.24675
0.0262656
-0.0203715
-1.01754
1.01164
0.0147609
-0.00910679
-0.796085
0.790431
0.0046203
-0.000189295
-0.537415
0.532984
-0.00218628
0.00270683
-0.281691
0.28117
-0.00219116
0.00135371
-0.106359
0.107197
-0.000589058
-1.22703e-05
-0.0169271
0.0175284
0.000203521
-0.000228779
0.0116599
-0.0116346
0.000116804
0.00536899
-0.0054858
-0.0771661
0.0757533
0.00141279
-0.00512135
0.00539495
-0.428878
0.428605
-0.00405142
0.00224835
-0.604763
0.606566
0.00130159
-0.00504209
-0.742775
0.746515
0.00929229
-0.0136037
-0.866675
0.870986
0.0182332
-0.0229181
-0.992541
0.997226
0.0274809
-0.0314841
-1.13254
1.13654
0.0358036
-0.0390609
-1.28688
1.29014
0.0417921
-0.0437501
-1.45501
1.45697
0.0442953
-0.0432309
-1.6386
1.63754
0.0406033
-0.0364834
-1.54827
1.54415
0.0319889
-0.0264796
-1.24096
1.23545
0.0211683
-0.0150164
-1.00507
0.998919
0.00927663
-0.00364525
-0.782385
0.776753
-0.000693179
0.0042498
-0.52628
0.522724
-0.00599539
0.00600795
-0.278137
0.278124
-0.0050352
0.00364495
-0.106982
0.108372
-0.00241987
0.00126301
-0.0178427
0.0189995
-0.000600574
0.00013554
0.0116507
-0.0111856
1.60405e-05
0.00559545
-0.00561149
-0.0768591
0.0756612
0.00119786
-0.00390253
0.00398618
-0.431734
0.431651
-0.00297862
0.00123709
-0.61105
0.612792
0.00210578
-0.00565723
-0.750465
0.754016
0.0096761
-0.0135166
-0.875044
0.878885
0.0181848
-0.0219884
-1.00129
1.00509
0.0264139
-0.0301213
-1.14065
1.14435
0.0341807
-0.0374808
-1.29331
1.29661
0.040298
-0.0418093
-1.45859
1.4601
0.042401
-0.0414067
-1.63628
1.63529
0.0390489
-0.0348165
-1.53977
1.53554
0.0303735
-0.0248437
-1.2299
1.22437
0.0195421
-0.0133021
-0.992184
0.985944
0.00764828
-0.00176373
-0.769164
0.763279
-0.00237292
0.00562371
-0.516602
0.513351
-0.00734973
0.00728632
-0.275663
0.275726
-0.00632785
0.00486546
-0.108528
0.109991
-0.00352417
0.00209865
-0.0197902
0.0212157
-0.00118629
0.000419958
0.0107605
-0.00999417
-7.78098e-05
0.00557773
-0.00549992
-0.0768202
0.0759606
0.000859605
-0.00277391
0.00242027
-0.434578
0.434932
-0.00159036
-0.00014448
-0.616524
0.618259
0.00317799
-0.00654688
-0.757546
0.760915
0.0103442
-0.0142613
-0.882546
0.886463
0.0182384
-0.0221353
-1.00907
1.01296
0.0264367
-0.029843
-1.14845
1.15185
0.0338768
-0.0370041
-1.29964
1.30277
0.039717
-0.0415868
-1.46195
1.46382
0.0424375
-0.041468
-1.63424
1.63327
0.0390732
-0.0352667
-1.53138
1.52758
0.0311134
-0.0256868
-1.21863
1.21321
0.0204121
-0.0145055
-0.979407
0.9735
0.00858399
-0.00291242
-0.755975
0.750303
-0.00140396
0.0046708
-0.507594
0.504327
-0.00638208
0.00688825
-0.273367
0.272861
-0.00635345
0.00525936
-0.110234
0.111328
-0.00401373
0.00259089
-0.022152
0.0235749
-0.00152925
0.00062047
0.00931902
-0.00841024
-0.000148738
0.00536238
-0.00521364
-0.0771977
0.0765117
0.000686016
-0.00180723
0.00153207
-0.437577
0.437852
-0.000246047
-0.0015114
-0.621915
0.623672
0.00461399
-0.00780201
-0.764029
0.767217
0.0114047
-0.0148723
-0.890007
0.893474
0.0189226
-0.0224472
-1.01683
1.02035
0.0266306
-0.0304072
-1.15567
1.15945
0.0339849
-0.0373494
-1.30588
1.30925
0.0403629
-0.0421881
-1.46551
1.46734
0.0432365
-0.0428656
-1.63244
1.63207
0.0407147
-0.0373337
-1.52357
1.52018
0.0332305
-0.0281279
-1.20777
1.20267
0.0231807
-0.0173603
-0.967053
0.961232
0.0117668
-0.00608013
-0.743218
0.737532
0.00151044
0.00213477
-0.498426
0.494781
-0.00413685
0.00507686
-0.270426
0.269486
-0.00515636
0.00454287
-0.111256
0.11187
-0.0036472
0.00250112
-0.0244026
0.0255487
-0.00154239
0.000677289
0.00764398
-0.00677888
-0.000182876
0.00501067
-0.0048278
-0.0778701
0.0773653
0.000504757
-0.00074052
0.000344794
-0.440718
0.441113
0.000941586
-0.00297921
-0.626993
0.629031
0.00596201
-0.00896395
-0.770197
0.773198
0.0126257
-0.015906
-0.896886
0.900167
0.0197568
-0.0233658
-1.02433
1.02794
0.0274007
-0.0310898
-1.16303
1.16672
0.0348259
-0.0381454
-1.31248
1.3158
0.0412545
-0.0437349
-1.4694
1.47188
0.0450952
-0.0448736
-1.63156
1.63134
0.0432683
-0.0400632
-1.51663
1.51343
0.036418
-0.0317981
-1.19749
1.19287
0.0268884
-0.0213009
-0.955071
0.949484
0.0158916
-0.010122
-0.730743
0.724973
0.005476
-0.00132525
-0.489161
0.48501
-0.00106322
0.00267833
-0.266598
0.264983
-0.00327374
0.00320171
-0.111284
0.111356
-0.00279053
0.00204856
-0.0260692
0.0268112
-0.00132876
0.000622347
0.00610318
-0.00539677
-0.000176418
0.00461328
-0.00443686
-0.078783
0.0784103
0.000372665
0.000132648