/*--------------------------------*- C++ -*----------------------------------*\
  =========                 |
  \\      /  F ield         | OpenFOAM: The Open Source CFD Toolbox
   \\    /   O peration     | Website:  https://openfoam.org
    \\  /    A nd           | Version:  10
     \\/     M anipulation  |
\*---------------------------------------------------------------------------*/
FoamFile
{
    format      ascii;
    class       volScalarField;
    location    "55";
    object      p;
}
// * * * * * * * * * * * * * * * * * * * * * * * * * * * * * * * * * * * * * //

dimensions      [0 2 -2 0 0 0 0];

internalField   nonuniform List<scalar> 
8800
(
0.909589
0.861802
0.823113
0.794117
0.773254
0.758424
0.747829
0.740351
0.735535
0.733483
0.734758
0.738953
0.745603
0.754921
0.767702
0.785437
0.810215
0.844156
0.886706
0.945408
0.74084
0.748519
0.755994
0.759302
0.757798
0.75272
0.746234
0.740158
0.735438
0.7326
0.732327
0.734839
0.739332
0.74528
0.752051
0.758332
0.761973
0.761238
0.755818
0.747127
0.719246
0.725405
0.729532
0.732475
0.734524
0.735128
0.734022
0.731919
0.729907
0.729006
0.729975
0.732362
0.735164
0.737347
0.737955
0.736757
0.734415
0.731022
0.726464
0.722703
0.713441
0.716091
0.718842
0.721243
0.722877
0.724038
0.724779
0.724898
0.724607
0.724563
0.725323
0.726498
0.727341
0.727407
0.726798
0.725707
0.723891
0.72132
0.718917
0.717413
0.708067
0.709491
0.711269
0.713299
0.715081
0.716421
0.717409
0.718208
0.718826
0.719397
0.720055
0.720556
0.720658
0.720371
0.719674
0.718425
0.716728
0.714879
0.713572
0.71274
0.703
0.70392
0.705159
0.706723
0.708353
0.709875
0.711159
0.712226
0.713194
0.714094
0.714791
0.715123
0.715082
0.714642
0.713761
0.712559
0.711231
0.709969
0.709146
0.708595
0.698104
0.698774
0.699734
0.701033
0.702438
0.703893
0.705329
0.706651
0.707852
0.708965
0.709794
0.710165
0.710081
0.709571
0.708762
0.707812
0.706797
0.705872
0.705286
0.704881
0.693335
0.693851
0.694632
0.695758
0.697031
0.6984
0.699842
0.701311
0.70274
0.704082
0.705094
0.705566
0.705539
0.705151
0.704544
0.703815
0.703037
0.702351
0.701916
0.701599
0.688621
0.689032
0.689685
0.690686
0.691886
0.693206
0.694645
0.696197
0.697817
0.699417
0.700667
0.701323
0.701482
0.701306
0.700917
0.700394
0.699818
0.699322
0.698998
0.69874
0.683877
0.684212
0.684776
0.685697
0.686846
0.68815
0.689622
0.691268
0.69307
0.694952
0.696509
0.69745
0.697877
0.697946
0.69778
0.697475
0.697089
0.69675
0.69651
0.696294
0.679017
0.679294
0.679796
0.68067
0.6818
0.683127
0.684669
0.68645
0.688473
0.69068
0.692626
0.693935
0.694683
0.695031
0.695108
0.695021
0.694822
0.694621
0.694448
0.694262
0.673952
0.674185
0.674648
0.675505
0.676655
0.678047
0.679701
0.68167
0.683979
0.686589
0.689013
0.690763
0.691887
0.692554
0.692902
0.693038
0.693026
0.692951
0.692833
0.692668
0.668594
0.668792
0.669235
0.670105
0.671317
0.672818
0.674639
0.676862
0.679536
0.682655
0.685658
0.687932
0.689494
0.690524
0.691173
0.691545
0.691735
0.691777
0.691706
0.691555
0.662844
0.663013
0.663453
0.664365
0.66568
0.667341
0.669396
0.671954
0.675094
0.678844
0.682549
0.685449
0.687524
0.68897
0.689962
0.690618
0.691004
0.691157
0.691126
0.690984
0.656586
0.656731
0.657184
0.658168
0.659631
0.661512
0.663878
0.666863
0.670589
0.675116
0.679673
0.683321
0.686006
0.68794
0.68932
0.690282
0.690893
0.691164
0.691169
0.691033
0.649687
0.649808
0.650288
0.651374
0.653039
0.65521
0.657972
0.661501
0.665959
0.671438
0.677025
0.681569
0.684977
0.687488
0.689322
0.690633
0.691497
0.691889
0.691928
0.691793
0.641974
0.64207
0.642593
0.643818
0.645741
0.64828
0.651551
0.655767
0.661132
0.667775
0.674609
0.680224
0.684484
0.687674
0.690057
0.69178
0.692918
0.693436
0.693507
0.69337
0.633215
0.633316
0.633892
0.635275
0.637528
0.640546
0.644467
0.649548
0.656044
0.664115
0.672447
0.679333
0.684598
0.688581
0.691613
0.693811
0.695265
0.695919
0.69602
0.695877
0.623117
0.623199
0.623864
0.625471
0.628156
0.631789
0.636531
0.642701
0.650603
0.660421
0.67055
0.678937
0.685391
0.69031
0.694083
0.696847
0.698657
0.699454
0.699584
0.699431
0.61131
0.611376
0.612141
0.61406
0.6173
0.621723
0.627519
0.63507
0.644725
0.656672
0.66895
0.679103
0.686938
0.692955
0.697589
0.70101
0.703213
0.704158
0.704312
0.704146
0.597254
0.597309
0.598215
0.600546
0.604518
0.609983
0.617153
0.626477
0.638332
0.652877
0.667702
0.679909
0.689328
0.696609
0.702247
0.706408
0.709036
0.710129
0.7103
0.710117
0.58019
0.580231
0.581353
0.584267
0.589247
0.596121
0.605124
0.616762
0.631393
0.64909
0.666897
0.681455
0.692673
0.701375
0.708136
0.713127
0.716196
0.717423
0.7176
0.717398
0.558988
0.559028
0.560492
0.564278
0.570704
0.579561
0.591076
0.605767
0.623899
0.64539
0.666634
0.68383
0.697053
0.707341
0.715313
0.72121
0.724709
0.72604
0.726208
0.725984
0.531921
0.53198
0.534026
0.539223
0.547885
0.559659
0.574714
0.593463
0.615967
0.641941
0.66708
0.687164
0.702548
0.714553
0.723835
0.73064
0.73451
0.73589
0.736028
0.73578
0.495973
0.496128
0.499371
0.50717
0.519615
0.535837
0.555936
0.580021
0.607895
0.639055
0.668467
0.691607
0.709242
0.72302
0.733679
0.741315
0.745428
0.746771
0.746853
0.746585
0.445397
0.446359
0.452806
0.465944
0.484964
0.508063
0.535118
0.565939
0.600132
0.63705
0.67099
0.697277
0.717191
0.732724
0.744713
0.753013
0.757174
0.758374
0.75838
0.758097
0.371321
0.378508
0.393427
0.416555
0.445385
0.477689
0.513244
0.551831
0.593058
0.636259
0.675088
0.704785
0.727197
0.744686
0.75808
0.766957
0.771086
0.772135
0.77209
0.771842
0.291595
0.308641
0.332833
0.366615
0.405639
0.447303
0.491458
0.538038
0.586731
0.636946
0.681634
0.715649
0.741234
0.761154
0.776314
0.785692
0.789527
0.790325
0.790301
0.790153
0.22517
0.245267
0.277137
0.319951
0.367987
0.418467
0.470947
0.525354
0.581367
0.638408
0.688708
0.726771
0.755329
0.777388
0.793732
0.803187
0.806777
0.807497
0.807505
0.807406
0.170765
0.192513
0.229878
0.279094
0.334246
0.392159
0.452023
0.513636
0.576545
0.640085
0.695711
0.737563
0.768796
0.792687
0.810108
0.819913
0.823668
0.824476
0.824518
0.824459
0.125434
0.14837
0.189519
0.243823
0.304701
0.368755
0.434956
0.502963
0.572173
0.641789
0.702452
0.747885
0.781652
0.807366
0.825931
0.836482
0.840532
0.841274
0.841355
0.841329
0.086919
0.110535
0.154539
0.212889
0.278579
0.347854
0.419558
0.493256
0.568214
0.643481
0.708889
0.757722
0.793926
0.821417
0.841139
0.85245
0.856844
0.857674
0.8578
0.857806
0.0532103
0.07728
0.123558
0.185231
0.254989
0.328807
0.405393
0.484222
0.564452
0.644989
0.714869
0.766924
0.805422
0.83458
0.855383
0.867352
0.872125
0.873128
0.873289
0.873308
0.0228295
0.0473013
0.0954375
0.159953
0.23322
0.311016
0.391974
0.475476
0.560594
0.646098
0.720234
0.775333
0.815962
0.846573
0.868358
0.880944
0.886067
0.887296
0.887463
0.887478
-0.00517053
0.0196692
0.0693908
0.136352
0.212708
0.294026
0.378916
0.466702
0.556391
0.646621
0.724855
0.782862
0.825481
0.857436
0.880047
0.893106
0.898491
0.89986
0.900037
0.90004
-0.0315791
-0.00632544
0.044899
0.113931
0.193039
0.277499
0.365942
0.457667
0.551642
0.646405
0.728639
0.789497
0.834012
0.867191
0.890384
0.903848
0.909393
0.910857
0.911034
0.911018
-0.0567637
-0.0310774
0.0213358
0.09238
0.173916
0.261195
0.352856
0.448207
0.54621
0.645351
0.731545
0.795263
0.841654
0.875958
0.899763
0.913323
0.918966
0.920491
0.920638
0.920594
-0.0811298
-0.0548781
-0.0014294
0.0714407
0.15514
0.244947
0.339529
0.438216
0.540003
0.643376
0.733544
0.800198
0.848508
0.883923
0.908204
0.921842
0.927491
0.928999
0.929129
0.929061
-0.104808
-0.0781463
-0.0235166
0.0509554
0.136592
0.228666
0.325888
0.427638
0.532963
0.640429
0.734614
0.804348
0.854697
0.891273
0.915964
0.929576
0.935137
0.936574
0.936682
0.936591
-0.127925
-0.10073
-0.045071
0.0308457
0.118219
0.212316
0.311908
0.416445
0.525062
0.636467
0.734721
0.807737
0.86033
0.898155
0.923178
0.936647
0.942037
0.943369
0.943412
0.943289
-0.150605
-0.122826
-0.0661654
0.0110809
0.0999957
0.195897
0.297607
0.404658
0.516303
0.631461
0.733815
0.810355
0.865498
0.904719
0.929994
0.943176
0.948246
0.949395
0.94937
0.949223
-0.172859
-0.144413
-0.0868172
-0.00833941
0.081953
0.179437
0.283028
0.39232
0.506713
0.62539
0.731832
0.812158
0.870247
0.911115
0.936598
0.94928
0.953837
0.954727
0.954634
0.954479
-0.194532
-0.165454
-0.106963
-0.0273919
0.0641231
0.163001
0.26823
0.379502
0.496348
0.618274
0.728704
0.813067
0.874553
0.917477
0.943282
0.95522
0.958933
0.95942
0.959248
0.959084
-0.215602
-0.185924
-0.126589
-0.0460256
0.046562
0.146647
0.253303
0.366281
0.485285
0.610138
0.724379
0.812956
0.878313
0.923871
0.950427
0.961503
0.963859
0.963568
0.963259
0.963144
-0.236134
-0.205785
-0.14567
-0.0642101
0.0293325
0.130458
0.238332
0.352761
0.473616
0.601044
0.71881
0.811676
0.881326
0.930188
0.958366
0.968998
0.969524
0.967585
0.9668
0.966951
-0.255957
-0.225013
-0.164147
-0.0818835
0.0124923
0.114515
0.223412
0.33905
0.461454
0.591085
0.711988
0.809054
0.8833
0.936062
0.967045
0.978676
0.977936
0.973523
0.970739
0.970221
-0.275164
-0.243599
-0.182039
-0.0990736
-0.00399168
0.0987759
0.208488
0.325092
0.448734
0.580188
0.703779
0.804814
0.883912
0.940955
0.975778
0.990753
0.991432
0.985331
0.976947
0.962726
-0.29368
-0.261528
-0.199462
-0.11598
-0.0204028
0.0829114
0.193148
0.310412
0.434927
0.567725
0.693543
0.798172
0.882578
0.94411
0.982777
1.00287
1.00579
0.993535
0.974
0.961971
-0.311329
-0.278933
-0.216223
-0.132395
-0.0363971
0.0672637
0.177618
0.295331
0.420335
0.553954
0.681349
0.788657
0.878494
0.944391
0.983759
1.00365
1.00952
0.986631
0.918786
0.888261
-0.327443
-0.297055
-0.231986
-0.147805
-0.0512009
0.0523339
0.162209
0.280077
0.405174
0.538997
0.667134
0.775958
0.870279
0.94116
0.973797
0.988059
0.978407
0.924624
0.855487
0.812927
-0.383297
-0.313042
-0.246324
-0.163317
-0.0664156
0.0366689
0.146856
0.26437
0.389075
0.522397
0.6503
0.759442
0.854124
0.931631
0.9372
0.94065
0.891966
0.822131
0.745575
0.702954
-0.34461
-0.328511
-0.267736
-0.18394
-0.0888452
0.014161
0.123336
0.240189
0.363873
0.495698
0.621517
0.72872
0.815361
0.897154
0.884844
0.772349
0.667551
0.59462
0.521322
0.552171
-0.375752
-0.346277
-0.284545
-0.201539
-0.106449
-0.00359773
0.105842
0.222054
0.344658
0.474644
0.597614
0.700464
0.778178
0.821457
0.7735
0.625227
0.497703
0.406537
0.307849
0.358245
-0.399756
-0.367335
-0.304333
-0.22114
-0.125949
-0.0231919
0.086172
0.201555
0.322757
0.450326
0.569562
0.666198
0.73477
0.744077
0.638058
0.46554
0.313074
0.194478
0.0634609
0.0964533
-0.423271
-0.389291
-0.325083
-0.240967
-0.145658
-0.0430327
0.065825
0.180256
0.299875
0.424663
0.539252
0.628182
0.681218
0.65944
0.501438
0.305476
0.115366
-0.0524014
-0.240856
-0.258895
-0.446197
-0.411751
-0.346632
-0.261729
-0.166239
-0.0638103
0.0444213
0.157786
0.275572
0.397202
0.506448
0.587624
0.62158
0.563633
0.371588
0.161423
-0.0556661
-0.244856
-0.486863
-0.785127
-0.469428
-0.434966
-0.369284
-0.28387
-0.188165
-0.0858748
0.0218067
0.134079
0.249938
0.368172
0.471779
0.544723
0.557965
0.448952
0.258725
0.0491385
-0.154994
-0.327263
-0.396462
-0.475874
-0.493924
-0.459388
-0.393389
-0.307718
-0.211933
-0.10987
-0.00282433
0.108193
0.221821
0.33616
0.433786
0.495817
0.484256
0.341617
0.158549
-0.0321091
-0.194736
-0.287552
-0.311643
-0.32757
-0.519996
-0.485328
-0.419122
-0.333359
-0.237676
-0.136007
-0.0298302
0.0796417
0.190642
0.300468
0.391624
0.439787
0.410687
0.242115
0.0678388
-0.0978135
-0.224152
-0.263154
-0.276048
-0.277368
-0.54785
-0.512968
-0.446551
-0.36079
-0.265346
-0.164292
-0.0592293
0.0483779
0.156336
0.261104
0.344914
0.378802
0.330569
0.150321
-0.0149843
-0.163365
-0.239507
-0.256552
-0.257803
-0.257588
-0.577554
-0.542369
-0.4757
-0.390008
-0.29496
-0.194714
-0.0910257
0.0143877
0.118919
0.218141
0.293734
0.316252
0.231931
0.0664644
-0.0904849
-0.21304
-0.249721
-0.247871
-0.246737
-0.246077
-0.608823
-0.573359
-0.506469
-0.420929
-0.326431
-0.227221
-0.125189
-0.0223029
0.0784304
0.171684
0.238931
0.244562
0.141753
-0.011447
-0.15006
-0.225887
-0.236204
-0.238849
-0.239553
-0.239197
-0.641105
-0.605488
-0.538605
-0.453326
-0.359576
-0.26166
-0.16157
-0.0615637
0.0350512
0.122095
0.180962
0.171466
0.0602144
-0.0774887
-0.192846
-0.224568
-0.23295
-0.234594
-0.234477
-0.234201
-0.673937
-0.638214
-0.571662
-0.486809
-0.394056
-0.297714
-0.199896
-0.103111
-0.0109549
0.0700808
0.11886
0.102381
-0.0156484
-0.132327
-0.221701
-0.237701
-0.230899
-0.230194
-0.230247
-0.230113
-0.706433
-0.670817
-0.604759
-0.52079
-0.429333
-0.334918
-0.239732
-0.146481
-0.0591332
0.0162602
0.0556021
0.0398384
-0.0834741
-0.178688
-0.222843
-0.234966
-0.231764
-0.229005
-0.227858
-0.227503
-0.736996
-0.702113
-0.636949
-0.554346
-0.464651
-0.372586
-0.28044
-0.191021
-0.108683
-0.0388349
-0.00252122
-0.0283552
-0.138227
-0.232467
-0.227885
-0.238202
-0.234954
-0.228622
-0.225832
-0.22472
-0.76406
-0.730261
-0.6671
-0.586302
-0.498978
-0.409796
-0.321175
-0.23593
-0.158541
-0.0943738
-0.057215
-0.0907135
-0.175397
-0.278561
-0.303091
-0.268317
-0.242102
-0.230252
-0.225771
-0.223971
-0.785483
-0.753461
-0.69314
-0.615253
-0.531039
-0.445416
-0.360882
-0.280232
-0.207689
-0.149006
-0.113198
-0.135511
-0.176909
-0.27985
-0.346604
-0.279109
-0.251773
-0.244075
-0.240056
-0.237371
-0.799055
-0.769779
-0.713188
-0.639318
-0.559322
-0.478126
-0.398371
-0.322774
-0.255234
-0.201732
-0.165879
-0.16856
-0.12527
-0.115122
-0.149043
-0.219728
-0.266134
-0.280106
-0.279923
-0.280273
-0.802112
-0.776946
-0.725286
-0.65666
-0.582121
-0.506506
-0.432303
-0.362336
-0.30021
-0.25224
-0.21048
-0.216143
-0.118964
0.0999822
-0.0513996
-0.215714
-0.293965
-0.313053
-0.317502
-0.320304
-0.792455
-0.772198
-0.727216
-0.665644
-0.597913
-0.528973
-0.461244
-0.397553
-0.341773
-0.299621
-0.256018
-0.316123
-0.382659
-0.321395
-0.360613
-0.406026
-0.408334
-0.402443
-0.402554
-0.404228
-0.768099
-0.752842
-0.717162
-0.66499
-0.6056
-0.544362
-0.4838
-0.426731
-0.378144
-0.343384
-0.322978
-0.487174
-0.832042
-1.32992
-1.25035
-0.851181
-0.611745
-0.517873
-0.49235
-0.485715
-0.731425
-0.721599
-0.695816
-0.65476
-0.604995
-0.552171
-0.498837
-0.448149
-0.405374
-0.379845
-0.373951
-0.505257
-0.676629
-0.919058
-0.890635
-0.597489
-0.412968
-0.340392
-0.322578
-0.316991
-0.688918
-0.683405
-0.667855
-0.637586
-0.597813
-0.552838
-0.505991
-0.460239
-0.420296
-0.393859
-0.385219
-0.295245
-0.020662
0.360154
0.557594
0.384959
0.109679
-0.0464092
-0.0804297
-0.0765674
-0.650004
-0.646746
-0.639211
-0.618646
-0.586855
-0.548235
-0.50624
-0.462686
-0.422209
-0.390616
-0.380654
-0.261414
-0.0629353
0.114589
0.0521442
-0.246976
-0.410727
-0.353202
-0.249727
-0.241742
-0.621167
-0.61915
-0.615393
-0.602321
-0.576542
-0.54166
-0.501657
-0.457906
-0.41287
-0.377054
-0.365604
-0.376167
-0.461155
-0.780029
-1.14017
-1.40778
-1.49002
-1.37285
-1.2241
-1.14261
-0.598487
-0.597682
-0.59652
-0.589952
-0.56942
-0.536327
-0.494984
-0.44731
-0.396995
-0.344012
-0.308536
-0.313268
-0.469554
-0.702208
-0.977648
-1.06812
-0.962319
-0.744206
-0.569607
-0.489949
-0.584963
-0.584622
-0.584162
-0.581458
-0.565938
-0.532647
-0.487381
-0.434705
-0.373203
-0.299574
-0.230663
-0.133385
-0.0707035
-0.0186896
0.0356211
0.152491
0.39865
0.636901
0.7861
0.840419
-0.575634
-0.575483
-0.575158
-0.575007
-0.564588
-0.530865
-0.481513
-0.421712
-0.349124
-0.263661
-0.152862
-0.00435743
0.197851
0.486662
0.841409
1.21712
1.55084
1.77375
1.88424
1.91765
-0.568377
-0.568663
-0.569297
-0.570263
-0.562583
-0.530203
-0.478036
-0.411642
-0.33057
-0.227694
-0.102545
0.0214512
0.263895
0.649803
1.12431
1.55584
1.88722
2.08099
2.1637
2.18398
-0.559923
-0.560274
-0.560564
-0.560288
-0.554499
-0.528439
-0.478588
-0.408288
-0.318664
-0.209237
-0.0865201
0.043978
0.220593
0.603597
1.02551
1.40901
1.68526
1.83379
1.89365
1.90687
-0.561505
-0.558891
-0.549332
-0.534893
-0.532241
-0.529705
-0.488403
-0.412889
-0.316028
-0.203342
-0.0852615
0.0338797
0.160729
0.450433
0.789685
1.07766
1.2858
1.39393
1.4352
1.44355
-0.605962
-0.599956
-0.586602
-0.574044
-0.574832
-0.573247
-0.51779
-0.424915
-0.317032
-0.202027
-0.0913888
0.012262
0.105113
0.304703
0.545727
0.744871
0.887247
0.958662
0.985429
0.990489
-0.703745
-0.70961
-0.729384
-0.746369
-0.740251
-0.692575
-0.57167
-0.439239
-0.315811
-0.199578
-0.0997427
-0.0147463
0.0584481
0.195335
0.350327
0.475441
0.562539
0.605233
0.620708
0.623758
-0.793359
-0.812848
-0.848935
-0.870016
-0.85452
-0.765791
-0.595356
-0.435306
-0.304438
-0.194315
-0.108975
-0.0395938
0.0177431
0.110196
0.207526
0.279969
0.324227
0.344977
0.353825
0.355247
-0.727881
-0.749035
-0.781796
-0.803836
-0.78513
-0.685688
-0.529889
-0.387696
-0.271029
-0.178834
-0.112195
-0.0624917
-0.021277
0.039305
0.0982209
0.140759
0.164681
0.175009
0.180155
0.181434
-0.470299
-0.486195
-0.511898
-0.533479
-0.525316
-0.464211
-0.376562
-0.289787
-0.213932
-0.150438
-0.106821
-0.0781602
-0.0536034
-0.00672536
0.0345216
0.0611708
0.0752299
0.0809629
0.0838658
0.0844174
-0.155941
-0.163715
-0.179538
-0.200883
-0.216493
-0.215856
-0.200793
-0.174604
-0.14381
-0.112832
-0.0949735
-0.0925683
-0.0898983
-0.0493737
-0.0106026
0.0152309
0.0290953
0.0361357
0.039217
0.0395754
0.0679672
0.0646727
0.0536693
0.0309373
-0.00247007
-0.0364866
-0.0617674
-0.0750896
-0.076423
-0.0713447
-0.0733808
-0.0926901
-0.103798
-0.0600264
-0.0219188
0.00179478
0.0154166
0.0217522
0.0238816
0.0236815
0.170751
0.168755
0.160087
0.138934
0.103792
0.0624815
0.0249858
-0.00312003
-0.020256
-0.0284282
-0.0372665
-0.056141
-0.0602593
-0.0251869
0.00291039
0.0170647
0.0235284
0.0260219
0.0269471
0.0268863
0.197349
0.195864
0.189322
0.172883
0.144822
0.110103
0.074979
0.0450826
0.0239585
0.0130633
0.00928406
0.00700886
0.0182859
0.0371868
0.0452934
0.0484911
0.0489692
0.0494642
0.0503465
0.0500288
0.189969
0.188954
0.184499
0.173149
0.15337
0.127755
0.100018
0.0749827
0.0565874
0.0492154
0.055397
0.0729183
0.0987028
0.103479
0.0964269
0.0898141
0.0853743
0.0841796
0.0831109
0.0826497
0.170724
0.170129
0.167337
0.160008
0.146868
0.129227
0.109275
0.090745
0.0777617
0.0759165
0.0919512
0.122401
0.152777
0.150622
0.136805
0.127404
0.124055
0.123941
0.12359
0.122459
0.148453
0.148155
0.146524
0.142021
0.133663
0.122079
0.108625
0.0960895
0.0882268
0.0909604
0.111864
0.145613
0.175364
0.168042
0.155581
0.149204
0.14818
0.149186
0.148809
0.147429
0.126097
0.126001
0.125128
0.122482
0.117351
0.110008
0.101331
0.0933437
0.0891333
0.0940142
0.11462
0.144379
0.166639
0.159388
0.149891
0.148289
0.150226
0.151797
0.151009
0.149485
0.104668
0.104655
0.1042
0.10272
0.0996851
0.0951787
0.0897441
0.0847544
0.0824655
0.0867659
0.10313
0.123706
0.135657
0.127044
0.123207
0.125746
0.129282
0.130275
0.129362
0.128279
0.0842131
0.084261
0.084066
0.083293
0.0816054
0.0789161
0.0755228
0.0721805
0.0702375
0.0718827
0.0796872
0.0893492
0.0932377
0.084724
0.0831411
0.0908845
0.0955194
0.0965783
0.0959173
0.0950477
0.0649248
0.0649823
0.0649237
0.0645924
0.0637225
0.0622101
0.0600575
0.0574831
0.0549211
0.052577
0.0500547
0.0453169
0.0360493
0.0277811
0.0366334
0.0476692
0.0543826
0.0562272
0.0562183
0.0557231
0.0469271
0.0469655
0.0469838
0.046902
0.0465756
0.0458236
0.0444478
0.0422062
0.0389008
0.0326754
0.0199994
-0.000547797
-0.017756
-0.0178662
-0.00431267
0.00880298
0.0156482
0.0178812
0.0183045
0.0180746
0.0304849
0.0304988
0.0305364
0.0306463
0.0306995
0.030449
0.0297198
0.0278293
0.024104
0.0158731
-0.00365397
-0.0361863
-0.0592498
-0.050304
-0.0311957
-0.0176098
-0.0124756
-0.0109634
-0.0102356
-0.0101672
0.0157455
0.015726
0.0157407
0.0158953
0.016125
0.0161816
0.0157917
0.0148417
0.0122674
0.00540594
-0.0128832
-0.0443213
-0.0698887
-0.055059
-0.0351225
-0.0256104
-0.0226289
-0.0225282
-0.0217154
-0.0213611
0.0027595
0.00274451
0.00271011
0.00277123
0.0030658
0.00337124
0.00346253
0.00332063
0.00282872
0.00177822
-0.001716
-0.0117818
-0.0243084
-0.0206852
-0.0171899
-0.0173466
-0.018355
-0.016186
-0.0123655
-0.0104739
-0.011547
0.155585
0.350759
0.521103
0.657291
0.764632
0.853444
0.929038
0.963454
0.940179
0.291789
0.412666
0.542738
0.655178
0.749979
0.82845
0.891995
0.937111
0.959699
0.971787
0.511045
0.593978
0.682886
0.761419
0.828976
0.885503
0.930464
0.963317
0.987066
1.00505
0.672097
0.731442
0.793199
0.850372
0.900107
0.942351
0.977053
1.00474
1.02754
1.04585
0.797709
0.840886
0.886906
0.930768
0.969518
1.00337
1.03235
1.05647
1.07686
1.0947
0.902134
0.935048
0.973201
1.00878
1.04145
1.07073
1.09631
1.11782
1.13568
1.15303
0.994748
1.02346
1.05746
1.08962
1.11959
1.14679
1.17055
1.19028
1.2058
1.22287
1.08338
1.1126
1.14662
1.17868
1.2083
1.2349
1.25777
1.27627
1.28965
1.30668
1.17872
1.21193
1.24859
1.28218
1.31223
1.33842
1.36038
1.37767
1.38954
1.40694
1.29373
1.33156
1.37021
1.40446
1.43381
1.45856
1.47894
1.49483
1.5063
1.52437
1.43868
1.47722
1.51337
1.54406
1.56974
1.59184
1.6109
1.62643
1.63886
1.65685
1.61376
1.64538
1.67157
1.69402
1.71399
1.73272
1.75043
1.76691
1.78226
1.80033
1.80238
1.81958
1.83462
1.85085
1.86676
1.88129
1.89449
1.90842
1.92596
1.94612
1.9841
1.99364
2.00518
2.01599
2.02527
2.03486
2.04564
2.05701
2.06837
2.08372
2.19134
2.195
2.18005
2.16524
2.15897
2.16464
2.18312
2.21343
2.24561
2.27226
2.49765
2.36279
2.28615
2.24377
2.22635
2.23031
2.25771
2.31413
2.41674
2.64111
0.800189
0.79806
0.793577
0.784952
0.772727
0.760597
0.750366
0.74247
0.736851
0.733596
0.733239
0.735976
0.741078
0.748299
0.757684
0.769222
0.781872
0.792906
0.799017
0.802071
0.724643
0.73049
0.736822
0.741314
0.743783
0.743458
0.740719
0.736908
0.733396
0.731135
0.730986
0.733181
0.736841
0.741127
0.744932
0.746813
0.745875
0.742392
0.737228
0.730608
0.716219
0.718515
0.721918
0.724913
0.726987
0.728481
0.729235
0.728916
0.727889
0.727005
0.727177
0.7286
0.730411
0.731713
0.73189
0.730997
0.729446
0.727108
0.723844
0.720923
0.710709
0.711796
0.713628
0.716004
0.718026
0.719451
0.720469
0.721219
0.721618
0.721838
0.722325
0.723127
0.72372
0.723781
0.723364
0.722512
0.721039
0.718953
0.716865
0.715482
0.705508
0.706171
0.707278
0.708981
0.71076
0.712389
0.713681
0.714693
0.715573
0.71636
0.717084
0.717628
0.717814
0.717641
0.717068
0.716008
0.714576
0.713029
0.711709
0.710929
0.700535
0.700996
0.701781
0.703076
0.70456
0.706073
0.707533
0.708827
0.709958
0.711008
0.711917
0.712475
0.71261
0.712327
0.711621
0.710625
0.709494
0.708357
0.70744
0.706922
0.69571
0.696055
0.696664
0.697729
0.699019
0.700388
0.70182
0.70326
0.704626
0.705899
0.707
0.707678
0.707842
0.707554
0.706944
0.706159
0.7053
0.704429
0.703753
0.703375
0.690979
0.691247
0.691739
0.692644
0.693808
0.695098
0.696485
0.697965
0.699497
0.701006
0.702341
0.703192
0.703476
0.703339
0.702933
0.702361
0.701703
0.701057
0.700562
0.700273
0.686262
0.686475
0.686883
0.687677
0.68876
0.69
0.691376
0.6929
0.694559
0.696301
0.697914
0.699019
0.699534
0.699632
0.699449
0.699093
0.698637
0.698181
0.697824
0.697598
0.68147
0.681642
0.681992
0.682712
0.683748
0.684965
0.686366
0.68797
0.689781
0.69177
0.693717
0.695168
0.695996
0.696371
0.696433
0.696299
0.69605
0.695763
0.695521
0.695341
0.676519
0.676658
0.676966
0.677641
0.678659
0.679898
0.681363
0.683089
0.685104
0.687394
0.689749
0.691631
0.692834
0.693532
0.69387
0.693973
0.693928
0.693803
0.693658
0.693513
0.671319
0.671431
0.671711
0.672366
0.673401
0.674707
0.67628
0.678182
0.680467
0.683141
0.685999
0.688399
0.690045
0.691114
0.691764
0.692122
0.692285
0.692324
0.692264
0.692146
0.665778
0.665867
0.666131
0.666791
0.667878
0.669294
0.671029
0.673174
0.675807
0.678969
0.682446
0.685467
0.687635
0.689133
0.690133
0.69079
0.691184
0.691374
0.691388
0.691292
0.659789
0.659857
0.660115
0.660802
0.66198
0.663552
0.665513
0.66798
0.671059
0.674832
0.679066
0.682836
0.685623
0.687624
0.689025
0.690012
0.69066
0.691014
0.691099
0.69102
0.653228
0.653276
0.653534
0.654271
0.655581
0.657365
0.659626
0.662504
0.666148
0.670676
0.675833
0.680505
0.684031
0.686626
0.688495
0.689851
0.690792
0.691323
0.691477
0.691413
0.645943
0.645973
0.646236
0.647047
0.648532
0.650594
0.653236
0.656641
0.660994
0.666451
0.67273
0.678488
0.682894
0.68619
0.688616
0.690406
0.691681
0.692401
0.692624
0.692571
0.637747
0.637765
0.638029
0.638938
0.640652
0.643057
0.646194
0.650267
0.655507
0.662113
0.669758
0.676812
0.68226
0.68638
0.689461
0.691779
0.693429
0.694356
0.694648
0.694604
0.628331
0.628318
0.628645
0.62969
0.631692
0.634549
0.638318
0.643235
0.649585
0.65761
0.66691
0.675512
0.682189
0.687278
0.691129
0.694062
0.696144
0.697301
0.697667
0.697628
0.617419
0.617381
0.617752
0.618991
0.621362
0.624804
0.629377
0.635364
0.643108
0.652886
0.664189
0.674626
0.682746
0.688974
0.693728
0.697369
0.699953
0.701358
0.701795
0.701759
0.604534
0.604469
0.604917
0.606407
0.609261
0.613468
0.619083
0.626444
0.635947
0.647885
0.661596
0.674206
0.684006
0.691555
0.697366
0.701821
0.704968
0.706637
0.707141
0.707103
0.589038
0.588943
0.589514
0.591353
0.594856
0.600084
0.607083
0.616244
0.628001
0.64262
0.659215
0.674345
0.686068
0.695116
0.702139
0.707518
0.711285
0.713222
0.713784
0.713737
0.570001
0.569879
0.570649
0.573001
0.577418
0.584065
0.592955
0.604514
0.619169
0.637098
0.657108
0.675132
0.689026
0.699759
0.708119
0.714532
0.718957
0.72115
0.721751
0.721689
0.546032
0.545893
0.546992
0.550137
0.555929
0.564649
0.57622
0.591044
0.609444
0.631425
0.65542
0.676693
0.692978
0.705557
0.715359
0.722904
0.727978
0.730384
0.730994
0.730908
0.514828
0.514709
0.516415
0.520933
0.529013
0.540959
0.556458
0.575761
0.598954
0.625811
0.654355
0.679191
0.698028
0.712565
0.723909
0.732612
0.738254
0.740785
0.741359
0.741242
0.472273
0.472313
0.475354
0.482733
0.495047
0.51226
0.533577
0.558921
0.588096
0.620656
0.654224
0.682825
0.704289
0.72083
0.733737
0.743539
0.749573
0.752076
0.752563
0.752411
0.410669
0.411852
0.41929
0.43305
0.453093
0.478674
0.508171
0.541195
0.577432
0.616341
0.655237
0.687698
0.711789
0.730287
0.744659
0.755356
0.761555
0.763799
0.764116
0.763936
0.337503
0.33923
0.353472
0.377113
0.408005
0.443472
0.481916
0.523158
0.567008
0.612968
0.658077
0.69533
0.722871
0.743912
0.760131
0.771873
0.77818
0.780278
0.780562
0.780475
0.261944
0.268059
0.289104
0.322911
0.364152
0.409223
0.456581
0.506092
0.557635
0.610758
0.662285
0.704533
0.735653
0.759417
0.777708
0.79031
0.79634
0.798041
0.798266
0.798245
0.200138
0.208543
0.234148
0.274934
0.324261
0.377524
0.432916
0.490168
0.549069
0.609107
0.666788
0.713742
0.748175
0.774337
0.794175
0.80733
0.813343
0.814875
0.815171
0.815209
0.149853
0.158853
0.187994
0.233998
0.289448
0.349318
0.411514
0.475612
0.541225
0.607724
0.671226
0.72263
0.760131
0.788483
0.809809
0.823713
0.829857
0.831798
0.832188
0.832273
0.107713
0.116999
0.148592
0.198589
0.259062
0.324414
0.392373
0.462447
0.534094
0.606553
0.675518
0.731135
0.771572
0.802061
0.824871
0.839746
0.846443
0.848697
0.849129
0.849202
0.0713701
0.0807761
0.11422
0.167417
0.232038
0.302066
0.37505
0.450422
0.527534
0.605489
0.679574
0.739171
0.782393
0.814918
0.839189
0.854973
0.862373
0.864825
0.86533
0.865407
0.0391687
0.0486215
0.08349
0.139392
0.207495
0.281552
0.35898
0.439116
0.521227
0.604289
0.683203
0.746569
0.792421
0.826804
0.852391
0.869042
0.877073
0.879756
0.880298
0.880372
0.00984474
0.0193491
0.0553862
0.113628
0.184718
0.262301
0.343676
0.42813
0.51485
0.602718
0.686234
0.753203
0.801515
0.837606
0.864343
0.881711
0.890289
0.893171
0.893734
0.893793
-0.0174584
-0.00789439
0.0291899
0.0894151
0.163175
0.243877
0.328782
0.417163
0.508161
0.600574
0.688528
0.758991
0.809658
0.847349
0.875055
0.893014
0.901918
0.904947
0.905536
0.905564
-0.0432937
-0.0336622
0.00440146
0.0663195
0.14248
0.225957
0.314042
0.406004
0.500972
0.597705
0.689983
0.763905
0.816896
0.85608
0.88469
0.903041
0.912092
0.915226
0.915853
0.915859
-0.068165
-0.0583549
-0.0194394
0.0440907
0.122366
0.208319
0.299273
0.394503
0.493166
0.594012
0.690534
0.767948
0.823298
0.863956
0.893354
0.912001
0.921123
0.924266
0.924872
0.924867
-0.0922956
-0.0822537
-0.0425782
0.0225084
0.102656
0.190823
0.284363
0.382577
0.484664
0.589426
0.690134
0.771125
0.828938
0.871124
0.901286
0.920141
0.929237
0.932321
0.93288
0.932828
-0.115792
-0.105536
-0.065034
0.00142208
0.0832506
0.173404
0.26926
0.370179
0.475424
0.583889
0.688737
0.773443
0.833893
0.877735
0.908659
0.927606
0.936575
0.939546
0.94004
0.93997
-0.138804
-0.128239
-0.0869761
-0.0192315
0.064106
0.156028
0.253951
0.357308
0.465444
0.577389
0.6863
0.774877
0.838218
0.88392
0.915612
0.934526
0.943268
0.946042
0.946436
0.946328
-0.161297
-0.150446
-0.108434
-0.039485
0.0452169
0.138709
0.23847
0.344
0.454749
0.56992
0.682782
0.775371
0.841937
0.889798
0.922312
0.941038
0.949351
0.95182
0.952083
0.951942
-0.183322
-0.172157
-0.129345
-0.0593222
0.0266055
0.121481
0.222859
0.330314
0.443391
0.561503
0.678141
0.774851
0.845017
0.895445
0.928961
0.94737
0.954973
0.95695
0.957051
0.956885
-0.204701
-0.193293
-0.149705
-0.0786981
0.0083199
0.104415
0.207186
0.316322
0.431445
0.552197
0.672358
0.773229
0.847366
0.900871
0.935798
0.953911
0.960425
0.961555
0.961389
0.96121
-0.225574
-0.213813
-0.169495
-0.0975912
-0.00960706
0.0875518
0.191542
0.302105
0.418998
0.54208
0.665438
0.770402
0.848821
0.905965
0.942993
0.961231
0.966373
0.965986
0.965171
0.964974
-0.245773
-0.233691
-0.188684
-0.115955
-0.0270951
0.0709764
0.176008
0.287785
0.40616
0.531219
0.657422
0.766271
0.849175
0.910463
0.950461
0.969929
0.974135
0.971497
0.968927
0.96791
-0.265359
-0.252968
-0.207217
-0.133735
-0.0441071
0.0547581
0.16067
0.27344
0.393044
0.519749
0.648381
0.760738
0.848188
0.913955
0.957662
0.980006
0.985246
0.98126
0.974727
0.966149
-0.284247
-0.271603
-0.225187
-0.151087
-0.0608503
0.0386243
0.145195
0.258676
0.379205
0.507173
0.637782
0.753244
0.845345
0.916038
0.963867
0.990634
0.99992
0.996417
0.986375
0.980719
-0.302389
-0.289515
-0.24258
-0.167978
-0.0773275
0.0225795
0.129598
0.243473
0.364597
0.493372
0.625435
0.743404
0.839866
0.915921
0.967047
0.997343
1.00908
1.00997
0.972296
0.920344
-0.319489
-0.305924
-0.259259
-0.184334
-0.0936392
0.00647198
0.113828
0.227947
0.349277
0.478404
0.611267
0.73098
0.830658
0.913029
0.964985
0.990688
1.0025
0.984748
0.928192
0.865858
-0.335873
-0.32139
-0.275086
-0.199443
-0.109321
-0.00923509
0.0976592