/*--------------------------------*- C++ -*----------------------------------*\
  =========                 |
  \\      /  F ield         | OpenFOAM: The Open Source CFD Toolbox
   \\    /   O peration     | Website:  https://openfoam.org
    \\  /    A nd           | Version:  10
     \\/     M anipulation  |
\*---------------------------------------------------------------------------*/
FoamFile
{
    format      ascii;
    class       surfaceScalarField;
    location    "55";
    object      phi;
}
// * * * * * * * * * * * * * * * * * * * * * * * * * * * * * * * * * * * * * //

dimensions      [0 3 -1 0 0 0 0];

internalField   nonuniform List<scalar> 
17370
(
-0.0916069
0.0960098
0.284608
-0.0775955
0.0594212
0.36495
-0.0430443
0.0316256
0.427587
-0.0223232
0.0162718
0.505303
-0.0116796
0.00880597
0.602276
-0.00659451
0.00510919
0.720543
-0.00387196
0.00299139
0.863787
-0.00221821
0.00163994
1.03603
-0.00110852
0.000687642
1.24292
-0.000276561
-0.000116888
1.49158
0.000505046
-0.000918229
1.4916
0.0013221
-0.00182665
1.24319
0.00237768
-0.00312164
1.03638
0.00397975
-0.00519926
0.864126
0.00667396
-0.00887618
0.72126
0.0117398
-0.0163179
0.603793
0.0223549
-0.0316419
0.508726
0.0430436
-0.0594105
0.432535
0.0775888
-0.0960037
0.36519
0.0916208
0.19739
-0.12709
0.0880213
0.039069
-0.364355
0.354029
-0.0714767
0.081803
-0.446654
0.454253
-0.0791725
0.0715734
-0.521011
0.529108
-0.0637222
0.0556258
-0.612991
0.620759
-0.0482401
0.0404717
-0.727164
0.733684
-0.0338601
0.0273392
-0.86758
0.872433
-0.022135
0.0172823
-1.03856
1.04191
-0.0135833
0.0102431
-1.24472
1.24713
-0.00769183
0.00528536
-1.49284
1.49486
-0.00332032
0.00130456
-1.49269
1.49451
0.000516231
-0.0023371
-1.24411
1.24602
0.00431099
-0.00622266
-1.03761
1.04009
0.00855889
-0.0110391
-0.866187
0.869816
0.0142987
-0.0179282
-0.724594
0.729749
0.022715
-0.0278695
-0.609064
0.615634
0.0343432
-0.0409126
-0.515123
0.522459
0.0486323
-0.0559678
-0.43988
0.447658
0.0639902
-0.0717686
-0.374707
0.377355
0.0792647
-0.0819123
-0.256897
0.224436
0.0715623
-0.0391007
-0.0688097
0.0591973
0.00961233
-0.0521105
0.0589379
-0.374836
0.368009
-0.0580916
0.0542507
-0.453946
0.457786
-0.0487653
0.0442072
-0.527617
0.532175
-0.0396586
0.0357633
-0.620801
0.624697
-0.0315505
0.0275548
-0.734659
0.738655
-0.0231968
0.0193082
-0.873956
0.877844
-0.0152618
0.0118039
-1.04336
1.04682
-0.00828352
0.00524969
-1.24865
1.25169
-0.00204002
-0.000943103
-1.49695
1.49993
0.00390433
-0.0070533
-1.49742
1.50057
0.00999884
-0.0134011
-1.25006
1.25347
0.0167399
-0.0206501
-1.04565
1.04956
0.0244178
-0.0286548
-0.877135
0.881372
0.032553
-0.0366708
-0.738981
0.743098
0.0404876
-0.0449592
-0.625969
0.63044
0.049453
-0.0548756
-0.535015
0.540437
0.0586436
-0.0594034
-0.458074
0.458834
0.0524561
-0.0320663
-0.336762
0.316372
0.00967396
-0.0686614
0.0589875
-0.0534082
0.0492965
0.00411164
-0.0332442
0.0436684
-0.358563
0.348139
-0.047345
0.0467592
-0.45958
0.460166
-0.043832
0.0406207
-0.536133
0.539345
-0.0369448
0.0335907
-0.628396
0.631751
-0.029957
0.0267154
-0.742035
0.745277
-0.0232614
0.0200623
-0.881338
0.884537
-0.0164676
0.0131144
-1.05025
1.0536
-0.00941378
0.00600759
-1.25495
1.25835
-0.00221508
-0.00140272
-1.50328
1.5069
0.00498952
-0.00869163
-1.50406
1.50777
0.0119745
-0.0155083
-1.25703
1.26056
0.0186924
-0.0220928
-1.05326
1.05666
0.0251189
-0.0283992
-0.884979
0.88826
0.0315002
-0.0349962
-0.74678
0.750276
0.0382346
-0.0417908
-0.634559
0.638115
0.0448986
-0.0477095
-0.544579
0.54739
0.0481749
-0.0443307
-0.456949
0.453104
0.0337005
-0.0163827
-0.297052
0.279734
0.00417961
-0.0531367
0.0489571
-0.0461273
0.0435718
0.0025555
-0.0230472
0.0333967
-0.337548
0.327198
-0.0391307
0.04008
-0.459918
0.458968
-0.0388291
0.0365014
-0.542002
0.54433
-0.0338598
0.0313141
-0.634719
0.637265
-0.0283377
0.0254898
-0.748362
0.75121
-0.0222513
0.0192363
-0.887592
0.890607
-0.0158836
0.0127477
-1.05678
1.05991
-0.00918909
0.00578756
-1.26175
1.26515
-0.00187589
-0.00192261
-1.51063
1.51443
0.00568138
-0.00947193
-1.51155
1.51534
0.0127103
-0.0160496
-1.26402
1.26736
0.0189631
-0.0220622
-1.05986
1.06296
0.0248493
-0.0278538
-0.891453
0.894457
0.0305084
-0.0332944
-0.753454
0.75624
0.0356819
-0.0381638
-0.641066
0.643548
0.040355
-0.0414255
-0.549223
0.550293
0.0402893
-0.0342822
-0.447976
0.441969
0.0236326
-0.0103791
-0.264542
0.251288
0.0026398
-0.0457119
0.0430721
-0.0414536
0.0396535
0.00180011
-0.0169433
0.0262276
-0.317331
0.308047
-0.0328226
0.0349419
-0.457409
0.45529
-0.0345064
0.0328067
-0.546361
0.54806
-0.0305787
0.0284507
-0.639579
0.641707
-0.0260128
0.0236334
-0.753812
0.756192
-0.0208166
0.0180678
-0.893465
0.896214
-0.0148809
0.0118438
-1.06296
1.06599
-0.00837621
0.00505894
-1.26847
1.27179
-0.00121827
-0.00252944
-1.51819
1.52194
0.00622616
-0.00991447
-1.51908
1.52277
0.0130252
-0.0162147
-1.27063
1.27382
0.0189687
-0.0218296
-1.06599
1.06885
0.0242825
-0.0267953
-0.89724
0.899753
0.0289253
-0.03112
-0.75868
0.760875
0.0330475
-0.035071
-0.645771
0.647794
0.0365721
-0.0367622
-0.55087
0.551061
0.034355
-0.0273603
-0.435373
0.428378
0.0176739
-0.00748003
-0.239706
0.229513
0.00190335
-0.0408612
0.0389578
-0.0381041
0.0367528
0.00135136
-0.0129442
0.0209416
-0.299408
0.291411
-0.0277073
0.0306276
-0.452737
0.449817
-0.0308327
0.0297067
-0.549501
0.550627
-0.0277064
0.0257792
-0.643768
0.645695
-0.0235663
0.0214233
-0.758438
0.760581
-0.018913
0.0164421
-0.898764
0.901235
-0.0135192
0.0106613
-1.06889
1.07175
-0.00732933
0.0041113
-1.27502
1.27824
-0.000377987
-0.0032523
-1.52561
1.52924
0.00681859
-0.0103608
-1.52638
1.52992
0.013321
-0.0163052
-1.27693
1.27991
0.0188082
-0.0213221
-1.07156
1.07408
0.0234229
-0.0255521
-0.902064
0.904193
0.0273797
-0.0292824
-0.762916
0.764819
0.0309559
-0.0327121
-0.649658
0.651414
0.0335485
-0.033001
-0.550883
0.550336
0.0296695
-0.0223567
-0.421167
0.413854
0.0138436
-0.00577918
-0.220485
0.21242
0.0014771
-0.0372951
0.0358181
-0.0355723
0.0345314
0.00104096
-0.0101196
0.016892
-0.28405
0.277278
-0.0234084
0.0267925
-0.446644
0.443259
-0.0275768
0.026885
-0.551529
0.552221
-0.0251203
0.0233382
-0.647592
0.649374
-0.0212765
0.0192699
-0.762656
0.764663
-0.0169076
0.0145886
-0.903565
0.905884
-0.0118602
0.0091846
-1.07445
1.07712
-0.00603592
0.00296182
-1.28134
1.28442
0.00062898
-0.0041215
-1.53277
1.53626
0.00753495
-0.01089
-1.53336
1.53672
0.0136463
-0.0163669
-1.28278
1.2855
0.0186067
-0.0208306
-1.07646
1.07869
0.0226906
-0.0245784
-0.906218
0.908106
0.0261926
-0.0278683
-0.766609
0.768284
0.0293353
-0.0307627
-0.65302
0.654448
0.0310928
-0.0298251
-0.549439
0.548172
0.0258752
-0.01864
-0.406555
0.399319
0.0112208
-0.00465165
-0.205174
0.198605
0.00119385
-0.0344998
0.033306
-0.0336167
0.0328053
0.000811472
-0.00802716
0.0137267
-0.27107
0.265371
-0.0197685
0.0233601
-0.439761
0.436169
-0.0246299
0.0241884
-0.55282
0.553262
-0.0226983
0.0210275
-0.651154
0.652825
-0.0190644
0.0171502
-0.766622
0.768537
-0.0148929
0.0126732
-0.908088
0.910308
-0.0100575
0.0074992
-1.07966
1.08222
-0.00450027
0.00157129
-1.28736
1.29029
0.00184977
-0.0051728
-1.53964
1.54296
0.00840053
-0.011534
-1.53995
1.54308
0.0140721
-0.0165471
-1.28811
1.29058
0.0185704
-0.0205656
-1.08083
1.08283
0.0222201
-0.0238941
-0.90991
0.911584
0.025327
-0.026816
-0.769869
0.771358
0.0280951
-0.0291515
-0.655663
0.65672
0.0291152
-0.0271845
-0.546576
0.544645
0.0228389
-0.015876
-0.392216
0.385253
0.00937364
-0.0038704
-0.19262
0.187117
0.000997521
-0.0322239
0.0312264
-0.0320914
0.0314569
0.000634513
-0.00641691
0.0111999
-0.260156
0.255373
-0.0166598
0.0202622
-0.432571
0.428968
-0.0218656
0.0216562
-0.553625
0.553835
-0.0204057
0.0188011
-0.654514
0.656119
-0.0168994
0.0150394
-0.770421
0.772281
-0.0128463
0.0106914
-0.91242
0.914575
-0.00815364
0.00567539
-1.08466
1.08714
-0.00277956
-2.73437e-05
-1.2931
1.29591
0.00330017
-0.00645419
-1.54616
1.54932
0.00948934
-0.0124058
-1.54608
1.549
0.0147471
-0.0170097
-1.29297
1.29523
0.0188395
-0.0206221
-1.08476
1.08655
0.0220848
-0.0235604
-0.913186
0.914662
0.0248265
-0.0261411
-0.772765
0.77408
0.0272727
-0.0279184
-0.657551
0.658197
0.0275179
-0.0250346
-0.542452
0.539969
0.0204516
-0.0138317
-0.378473
0.371853
0.00805898
-0.00332205
-0.182037
0.1773
0.000860408
-0.0303092
0.0294488
-0.0309017
0.03041
0.00049167
-0.00512416
0.00911774
-0.25101
0.247017
-0.01395
0.0174132
-0.425443
0.42198
-0.0192091
0.0191959
-0.55399
0.554003
-0.0181482
0.016582
-0.657773
0.659339
-0.0147082
0.0128685
-0.774124
0.775964
-0.0107004
0.0085762
-0.916628
0.918752
-0.00608472
0.00366165
-1.0895
1.09192
-0.000839933
-0.00188287
-1.29861
1.30133
0.00502133
-0.0080161
-1.55235
1.55534
0.0108673
-0.0135772
-1.55179
1.5545
0.0157272
-0.0177776
-1.2974
1.29945
0.0194125
-0.0209842
-1.08828
1.08985
0.0222649
-0.0235626
-0.916082
0.917379
0.0246843
-0.0258446
-0.775323
0.776484
0.0267922
-0.0270695
-0.658636
0.658913
0.0262819
-0.0233364
-0.537266
0.534321
0.0186192
-0.0123393
-0.365424
0.359144
0.00712862
-0.00294074
-0.172873
0.168685
0.000766562
-0.0286466
0.02788
-0.0299855
0.0296143
0.000371245
-0.00404385
0.0073448
-0.243393
0.240092
-0.0115375
0.0147523
-0.418655
0.41544
-0.0166166
0.0167657
-0.553987
0.553838
-0.0158096
0.0143233
-0.660946
0.662432
-0.012453
0.0106043
-0.777797
0.779646
-0.00842564
0.00629782
-0.920778
0.922905
-0.00381464
0.00141221
-1.09423
1.09664
0.00136299
-0.00402179
-1.30396
1.30662
0.0070581
-0.00992008
-1.55823
1.56109
0.0126082
-0.0151244
-1.55709
1.5596
0.0170911
-0.0189375
-1.30141
1.30326
0.0203869
-0.0217563
-1.0914
1.09276
0.022858
-0.023978
-0.918624
0.919744
0.0249525
-0.0259458
-0.77757
0.778563
0.0266444
-0.0266192
-0.659047
0.659022
0.025429
-0.022077
-0.531185
0.527833
0.0172742
-0.0112851
-0.353038
0.347049
0.00648993
-0.00268564
-0.164721
0.160916
0.000705819
-0.0271552
0.0264494
-0.0293028
0.0290387
0.000264135
-0.00309916
0.00577582
-0.237124
0.234447
-0.00932892
0.0122118
-0.412411
0.409528
-0.0140308
0.0142718
-0.5537
0.553459
-0.013368
0.0119348
-0.663979
0.665412
-0.0100464
0.00815963
-0.781495
0.783382
-0.00593555
0.0037721
-0.924937
0.9271
-0.00126186
-0.00114681
-1.09893
1.10134
0.00391216
-0.00653656
-1.30918
1.31181
0.00949813
-0.0122506
-1.56384
1.5666
0.0147921
-0.0171232
-1.562
1.56433
0.0189078
-0.0205471
-1.30501
1.30665
0.021807
-0.0229695
-1.09412
1.09528
0.0238865
-0.0248268
-0.920823
0.921763
0.0256568
-0.0264772
-0.779471
0.780291
0.0268972
-0.0266167
-0.658863
0.658583
0.0249837
-0.0212475
-0.524309
0.520573
0.0163671
-0.0105921
-0.341205
0.33543
0.0060831
-0.00253004
-0.15727
0.153717
0.000671234
-0.0257732
0.025102
-0.0288309
0.0286682
0.000162724
-0.0022263
0.00431785
-0.232083
0.229991
-0.00722715
0.00970854
-0.406869
0.404388
-0.0113745
0.0116278
-0.553281
0.553028
-0.0107406
0.00931904
-0.666943
0.668365
-0.00738327
0.00542968
-0.785273
0.787227
-0.00312862
0.00090095
-0.929164
0.931392
0.00166905
-0.00412033
-1.10365
1.1061
0.00690871
-0.00952519
-1.31434
1.31696
0.0124355
-0.0150915
-1.56924
1.5719
0.0174921
-0.0196414
-1.56654
1.56869
0.0212459
-0.0226775
-1.30819
1.30962
0.0237413
-0.0246811
-1.09644
1.09738
0.0253968
-0.0261394
-0.92266
0.923403
0.0268152
-0.0274923
-0.78102
0.781697
0.027612
-0.0269771
-0.658078
0.657443
0.0249229
-0.0208175
-0.516694
0.512589
0.0158425
-0.0101958
-0.329767
0.32412
0.00586166
-0.00245348
-0.150271
0.146863
0.000657481
-0.0244512
0.0237937
-0.0285612
0.0285007
6.04826e-05
-0.00137622
0.00289788
-0.228202
0.226681
-0.00514961
0.00716638
-0.402163
0.400147
-0.00857805
0.00876606
-0.55289
0.552702
-0.00785602
0.00641694
-0.669917
0.671356
-0.00440173
0.00235414
-0.789186
0.791234
5.84231e-05
-0.00239179
-0.933523
0.935856
0.00506612
-0.00759749
-1.10846
1.111
0.0104472
-0.0130874
-1.31949
1.32213
0.0159772
-0.0185587
-1.57445
1.57704
0.0208314
-0.0228011
-1.57071
1.57268
0.0242195
-0.0254345
-1.31095
1.31216
0.0262955
-0.0270005
-1.09834
1.09904
0.0274992
-0.0280265
-0.924112
0.92464
0.0285366
-0.029014
-0.782212
0.782689
0.0288454
-0.0277989
-0.656555
0.655508
0.0252918
-0.0207922
-0.508354
0.503854
0.0156765
-0.0100611
-0.318549
0.312934
0.00579952
-0.00244449
-0.14352
0.140165
0.00066162
-0.0231496
0.022488
-0.0284963
0.0285446
-4.82835e-05
-0.000502462
0.00144902
-0.225463
0.224516
-0.00301526
0.00450181
-0.398421
0.396934
-0.00555411
0.00558983
-0.55269
0.552654
-0.00459775
0.00308527
-0.672973
0.674485
-0.000957401
-0.00122568
-0.793291
0.795474
0.00379925
-0.00627097
-0.938092
0.940564
0.00908739
-0.0117317
-1.11344
1.11608
0.0146781
-0.0173708
-1.32469
1.32738
0.0202634
-0.0227816
-1.57951
1.58203
0.024928
-0.0267101
-1.57451
1.57629
0.0279289
-0.0289071
-1.31326
1.31423
0.0295439
-0.0300016
-1.09978
1.10023
0.0302753
-0.0305724
-0.925143
0.92544
0.0308938
-0.0311071
-0.782889
0.783102
0.0306692
-0.0291257
-0.65419
0.652646
0.0261204
-0.0211854
-0.499243
0.494308
0.0158632
-0.0101732
-0.307354
0.301664
0.00588506
-0.00249796
-0.136837
0.13345
0.000682341
-0.0218331
0.0211508
-0.0286478
0.0288116
-0.000163823
0.000419996
-7.90807e-05
-0.223888
0.223547
-0.000752257
0.00162809
-0.395768
0.394892
-0.00221642
0.00201276
-0.552865
0.553068
-0.000880077
-0.0007712
-0.676236
0.677887
0.00306551
-0.00542877
-0.797672
0.800036
0.00820856
-0.0108646
-0.942941
0.945597
0.0138728
-0.0166737
-1.11864
1.12144
0.0197589
-0.0225344
-1.32999
1.33277
0.025452
-0.0279155
-1.58444
1.58691
0.0299314
-0.0315116
-1.57792
1.5795
0.0325203
-0.0332434
-1.31507
1.31579
0.0336396
-0.0338302
-1.10071
1.10091
0.0338583
-0.033902
-0.925708
0.925752
0.0340195
-0.0339095
-0.782943
0.782833
0.0331365
-0.0309981
-0.650866
0.648728
0.0274444
-0.0220085
-0.489263
0.483828
0.0163951
-0.0105175
-0.295966
0.290088
0.00610634
-0.00260782
-0.130055
0.126556
0.000717767
-0.0204694
0.0197516
-0.0290549
0.0293585
-0.000303627
0.00141152
-0.00171858
-0.223565
0.223872
0.00172722
-0.0015692
-0.394332
0.394174
0.00157484
-0.00212068
-0.553619
0.554164
0.00347063
-0.00530452
-0.679836
0.681669
0.00781576
-0.0104055
-0.802408
0.804998
0.013448
-0.0163441
-0.948162
0.951059
0.0196038
-0.0226111
-1.12417
1.12718
0.0258819
-0.0287744
-1.33547
1.33837
0.0317435
-0.0341634
-1.58926
1.59168
0.036044
-0.0373981
-1.58091
1.58227
0.0381704
-0.0386027
-1.31634
1.31678
0.0387317
-0.0386343
-1.10108
1.10098
0.0383944
-0.0381595
-0.925742
0.925507
0.0380645
-0.0375158
-0.782251
0.781702
0.0363059
-0.0335049
-0.646418
0.643617
0.0293203
-0.0232881
-0.478273
0.472241
0.017279
-0.0110904
-0.284154
0.277966
0.00645844
-0.00277115
-0.123016
0.119329
0.000766922
-0.0190299
0.018263
-0.0297337
0.0302136
-0.000479868
0.00269262
-0.00374374
-0.224562
0.225613
0.00462056
-0.00525784
-0.39434
0.394977
0.00598277
-0.00698087
-0.555191
0.556189
0.0086346
-0.0107266
-0.683867
0.685959
0.013538
-0.0164254
-0.807601
0.810489
0.0198021
-0.0229961
-0.953869
0.957063
0.0265629
-0.0298211
-1.13012
1.13337
0.0333179
-0.0363531
-1.34119
1.34422
0.039383
-0.0417472
-1.59399
1.59635
0.0434637
-0.0445587
-1.58342
1.58452
0.0450372
-0.0451518
-1.317
1.31712
0.0449801
-0.0445588
-1.1008
1.10038
0.044021
-0.043478
-0.925171
0.924628
0.043077
-0.0420773
-0.780646
0.779647
0.0403169
-0.0367396
-0.640686
0.637109
0.0318145
-0.025057
-0.46607
0.459313
0.0185247
-0.0118902
-0.27167
0.265036
0.00693686
-0.00298456
-0.115568
0.111616
0.000828446
-0.0174881
0.0166596
-0.0307634
0.0314612
-0.000697843
0.00417859
-0.00611797
-0.227083
0.229022
0.00805649
-0.00959287
-0.396004
0.397541
0.0111391
-0.012715
-0.557837
0.559413
0.0148161
-0.0172623
-0.688502
0.690948
0.0204771
-0.023741
-0.813397
0.816661
0.0275317
-0.0310931
-0.960178
0.96374
0.0350382
-0.0386024
-1.13657
1.14013
0.0423683
-0.0455644
-1.34718
1.35037
0.0486509
-0.0509334
-1.59857
1.60085
0.0524433
-0.0532262
-1.58539
1.58617
0.0533563
-0.0531064
-1.31697
1.31672
0.0525884
-0.05179
-1.0998
1.09901
0.0509132
-0.0500196
-0.923922
0.923028
0.0492221
-0.0477306
-0.778116
0.776624
0.0452829
-0.0407893
-0.633433
0.62894
0.0349805
-0.0273363
-0.452388
0.444743
0.0201341
-0.0129084
-0.258241
0.251016
0.00753158
-0.0032414
-0.107561
0.10327
0.000899767
-0.0158202
0.0149205
-0.0322239
0.0332088
-0.000984906
0.00605568
-0.00904719
-0.231383
0.234374
0.0122436
-0.0148377
-0.399587
0.402181
0.0173511
-0.0196261
-0.561832
0.564107
0.0223027
-0.0252168
-0.693933
0.696847
0.0289486
-0.0326872
-0.819956
0.823695
0.0369975
-0.041015
-0.967238
0.971256
0.0454189
-0.0493404
-1.14364
1.14756
0.053404
-0.056762
-1.35347
1.35683
0.0598786
-0.062029
-1.60295
1.6051
0.0632623
-0.0636438
-1.58668
1.58706
0.0633697
-0.0626764
-1.31611
1.31541
0.0617653
-0.0605386
-1.09797
1.09674
0.0592765
-0.0580182
-0.921897
0.920639
0.0567013
-0.0546078
-0.77457
0.772477
0.0513365
-0.0457421
-0.624361
0.618766
0.0388674
-0.0301375
-0.4369
0.42817
0.0220965
-0.014125
-0.243577
0.235606
0.00822422
-0.00353046
-0.0988522
0.0941584
0.000976761
-0.0140091
0.0130324
-0.0342449
0.0356205
-0.00137559
0.00849546
-0.0128467
-0.237779
0.24213
0.0175295
-0.0213604
-0.405462
0.409293
0.0250132
-0.0281439
-0.567502
0.570632
0.0315801
-0.0351241
-0.700416
0.70396
0.0395412
-0.0438861
-0.827476
0.831821
0.048829
-0.0533793
-0.975221
0.979771
0.0582967
-0.0625966
-1.15142
1.15572
0.0669462
-0.0704211
-1.36006
1.36354
0.0734785
-0.0753837
-1.60701
1.60892
0.0762208
-0.0760836
-1.58711
1.58697
0.0753211
-0.0740612
-1.31422
1.31296
0.0726987
-0.0709949
-1.09516
1.09346
0.0693201
-0.067625
-0.919035
0.917339
0.0657071
-0.0628929
-0.769784
0.76697
0.0586069
-0.0516679
-0.613087
0.606148
0.0434957
-0.0334409
-0.419207
0.409152
0.0243734
-0.0154985
-0.227375
0.2185
0.00898169
-0.00383382
-0.0893202
0.0841723
0.00105349
-0.0120464
0.0109929
-0.0370197
0.0389534
-0.0019337
0.0119063
-0.0179608
-0.246812
0.252866
0.0244457
-0.0297306
-0.414119
0.419404
0.0347359
-0.0389111
-0.575249
0.579425
0.0433207
-0.0477009
-0.708299
0.71268
0.0530033
-0.0580911
-0.836209
0.841296
0.0637718
-0.0689134
-0.98427
0.989412
0.0743638
-0.0790162
-1.15992
1.16457
0.0835746
-0.0870547
-1.36681
1.37029
0.0898943
-0.0913854
-1.61049
1.61198
0.0916548
-0.0908341
-1.58641
1.58559
0.0894415
-0.0875045
-1.31112
1.30918
0.0855827
-0.0833546
-1.09126
1.08903
0.0812352
-0.0789441
-0.91516
0.912869
0.0764568
-0.0726851
-0.763419
0.759647
0.0671491
-0.0585716
-0.599109
0.590531
0.048825
-0.0371709
-0.398844
0.387189
0.0268768
-0.0169496
-0.209337
0.19941
0.00974643
-0.00412197
-0.0788802
0.0732558
0.00112041
-0.00993727
0.00881686
-0.0408736
0.0436747
-0.00280107
0.0168369
-0.0251462
-0.259184
0.267493
0.0338728
-0.0409101
-0.426226
0.433263
0.0475595
-0.0529965
-0.585551
0.590988
0.0586333
-0.0640841
-0.718
0.723451
0.0704774
-0.0764327
-0.846411
0.852367
0.0829178
-0.0886454
-0.994487
1.00021
0.0945518
-0.0994234
-1.16904
1.17392
0.103984
-0.107243
-1.37344
1.3767
0.109585
-0.110393
-1.61298
1.61379
0.109843
-0.108109
-1.58422
1.58248
0.105911
-0.10316
-1.30659
1.30384
0.100569
-0.0977359
-1.08611
1.08328
0.0951304
-0.0921651
-0.909904
0.906939
0.0890236
-0.0840415
-0.754994
0.750012
0.0769422
-0.066365
-0.581802
0.571225
0.0547249
-0.0411722
-0.37529
0.361737
0.0294524
-0.0183518
-0.189207
0.178106
0.0104313
-0.00435284
-0.0675155
0.061437
0.0011647
-0.00770688
0.00654217
-0.0463798
0.0506435
-0.0042637
0.0244917
-0.0358694
-0.276066
0.287444
0.0475015
-0.056862
-0.442804
0.452165
0.0655202
-0.0724157
-0.598995
0.605891
0.0795658
-0.0864829
-0.729882
0.7368
0.0940262
-0.100769
-0.858289
0.865032
0.107893
-0.113986
-1.00577
1.01186
0.120029
-0.124782
-1.17844
1.18319
0.128937
-0.131583
-1.37943
1.38208
0.13299
-0.132721
-1.61391
1.61364
0.131007
-0.12808
-1.58005
1.57713
0.124893
-0.121176
-1.30034
1.29662
0.117825
-0.114311
-1.07956
1.07604
0.11117
-0.107426
-0.903061
0.899317
0.103414
-0.0968452
-0.74395
0.737382
0.0878001
-0.0747936
-0.56038
0.547373
0.0609195
-0.0451831
-0.347993
0.332257
0.0318685
-0.0195291
-0.166827
0.154488
0.0109199
-0.00447229
-0.055321
0.0488734
0.00116984
-0.00540644
0.0042366
-0.0546009
0.0619331
-0.00733218
0.037945
-0.0537912
-0.299599
0.315445
0.0694846
-0.0820392
-0.465503
0.478057
0.0928666
-0.101117
-0.616034
0.624284
0.109775
-0.117939
-0.744332
0.752496
0.126359
-0.133474
-0.871555
0.87867
0.140654
-0.146511
-1.01751
1.02337
0.152018
-0.156016
-1.18728
1.19128
0.159097
-0.160511
-1.38387
1.38529
0.160391
-0.15857
-1.6124
1.61057
0.155326
-0.15091
-1.57335
1.56894
0.146496
-0.141608
-1.29206
1.28717
0.137369
-0.133109
-1.07141
1.06715
0.129319
-0.124737
-0.894397
0.889815
0.119437
-0.110792
-0.729448
0.720803
0.0992845
-0.0833178
-0.533839
0.517872
0.0668937
-0.048818
-0.316432
0.298356
0.0338601
-0.0203396
-0.142242
0.128722
0.0111382
-0.004453
-0.0425654
0.0358803
0.00112353
-0.00312212
0.00199859
-0.0687773
0.0728919
-0.00411468
0.0290938
-0.0428197
-0.333777
0.347503
0.0567074
-0.0681858
-0.495763
0.507242
0.0784123
-0.0879159
-0.63624
0.645743
0.0984555
-0.108035
-0.760268
0.769848
0.11863
-0.128034
-0.88492
0.894324
0.137998
-0.146794
-1.02827
1.03707
0.155867
-0.163507
-1.19416
1.2018
0.170881
-0.176497
-1.3855
1.39112
0.181065
-0.183446
-1.60749
1.60987
0.183595
-0.182067
-1.56344
1.56191
0.179499
-0.175963
-1.28134
1.27781
0.17277
-0.169047
-1.06146
1.05774
0.165801
-0.161223
-0.883462
0.878884
0.154066
-0.141498
-0.71034
0.697772
0.124519
-0.101855
-0.501065
0.478401
0.0796379
-0.0560982
-0.280184
0.256645
0.0376532
-0.0218254
-0.115839
0.100011
0.0115616
-0.00448013
-0.0297609
0.0226794
0.00111028
-0.000970075
-0.000140209
-0.0800204
0.0782
0.00182036
0.00748192
-0.0165187
-0.364049
0.373086
0.0270501
-0.0351504
-0.52342
0.53152
0.043318
-0.0513518
-0.657694
0.665727
0.0610564
-0.070031
-0.779105
0.78808
0.079528
-0.0881741
-0.903183
0.911829
0.0972982
-0.105008
-1.04557
1.05328
0.113124
-0.119572
-1.20922
1.21567
0.125698
-0.130019
-1.39637
1.40069
0.13285
-0.133646
-1.61131
1.61211
0.13219
-0.129013
-1.55949
1.55631
0.124806
-0.11954
-1.27355
1.26828
0.114681
-0.109323
-1.05209
1.04674
0.104351
-0.0982226
-0.869468
0.86334
0.0907956
-0.0798272
-0.681262
0.670293
0.0671191
-0.051848
-0.454244
0.438973
0.0383194
-0.0255577
-0.233433
0.220672
0.0164945
-0.00927655
-0.0851553
0.0779373
0.00484716
-0.00187523
-0.0160641
0.0130922
0.000413613
0.00122358
-0.0016372
-0.0814771
0.0786068
0.00287028
-0.00166854
-0.00358396
-0.384481
0.389734
0.0107613
-0.0166156
-0.543808
0.549662
0.0226742
-0.0296822
-0.675819
0.682827
0.0380617
-0.0458499
-0.796196
0.803984
0.0543216
-0.0618672
-0.919741
0.927286
0.0695705
-0.076419
-1.06079
1.06764
0.083398
-0.0889983
-1.22164
1.22724
0.0938219
-0.0969269
-1.40427
1.40737
0.098729
-0.0983583
-1.61209
1.61172
0.0957633
-0.0914589
-1.55239
1.54809
0.0863534
-0.0803108
-1.26266
1.25662
0.0743048
-0.067835
-1.03991
1.03344
0.0617891
-0.0548223
-0.853789
0.846822
0.0479719
-0.0389218
-0.655832
0.646782
0.0298097
-0.0202446
-0.421853
0.412288
0.0133053
-0.00798949
-0.207273
0.201957
0.00489673
-0.00284044
-0.0706491
0.0685928
0.0016382
-0.00074895
-0.0101149
0.00922566
0.000116508
0.00221228
-0.00232879
-0.0802424
0.0775304
0.00271206
-0.00526906
0.00273435
-0.39811
0.400644
0.00190434
-0.00633299
-0.558869
0.563298
0.0114512
-0.017322
-0.690776
0.696646
0.0244793
-0.031149
-0.81116
0.81783
0.0383881
-0.0448548
-0.934307
0.940774
0.0518259
-0.0576089
-1.07405
1.07983
0.0636722
-0.0680554
-1.2324
1.23678
0.0720651
-0.0744617
-1.41021
1.41261
0.0753501
-0.0739723
-1.61083
1.60945
0.0708122
-0.0659783
-1.54315
1.53831
0.0604101
-0.053526
-1.25019
1.24331
0.0470794
-0.0400669
-1.02591
1.0189
0.0333909
-0.0263559
-0.837201
0.830166
0.0198197
-0.012659
-0.634681
0.627521
0.00647393
-0.00157026
-0.401464
0.39656
-0.000791979
0.00168927
-0.194918
0.19402
-0.00163172
0.00102141
-0.0654761
0.0660864
-0.000525125
0.000178417
-0.00800978
0.00835649
-0.000106421
0.00272899
-0.00262257
-0.0787612
0.0763586
0.00240265
-0.00639423
0.005455
-0.407204
0.408143
-0.0020437
-0.00117382
-0.570936
0.574154
0.00533738
-0.0106649
-0.703318
0.708646
0.0166802
-0.0225344
-0.823816
0.829671
0.0287985
-0.0344029
-0.946788
0.952392
0.0403624
-0.0454898
-1.08547
1.09059
0.0505857
-0.0545677
-1.24101
1.24499
0.0579038
-0.0597416
-1.41461
1.41644
0.0600792
-0.0582451
-1.60784
1.606
0.0547088
-0.0493594
-1.53272
1.52737
0.0435652
-0.0366262
-1.2363
1.22936
0.0299973
-0.022583
-1.01113
1.00371
0.0158074
-0.0086508
-0.82088
0.813724
0.00272587
0.00293441
-0.61766
0.611999
-0.00696949
0.00908641
-0.389289
0.387172
-0.00903566
0.0076536
-0.19078
0.192162
-0.00586243
0.0037807
-0.0658121
0.0678938
-0.00214595
0.000846957
-0.0085065
0.0098055
-0.000278661
0.00276843
-0.00248977
-0.0773852
0.0753267
0.00205851
-0.00627646
0.00584332
-0.413445
0.413879
-0.0038147
0.00123065
-0.580236
0.58282
0.00283856
-0.00739504
-0.713952
0.718509
0.0125675
-0.0176512
-0.834747
0.839831
0.0232214
-0.0282265
-0.957646
0.962651
0.0336728
-0.0381529
-1.09544
1.09992
0.0427174
-0.0462667
-1.24867
1.25222
0.0491334
-0.050605
-1.41799
1.41946
0.0505991
-0.0489142
-1.60405
1.60236
0.0452438
-0.040042
-1.5216
1.51639
0.0342862
-0.027388
-1.22224
1.21534
0.0210013
-0.0134582
-0.995879
0.988336
0.00663255
0.00029703
-0.80504
0.79811
-0.00572471
0.0103661
-0.603684
0.599042
-0.0133286
0.0144215
-0.382116
0.381023
-0.0131812
0.0107616
-0.191237
0.193656
-0.00830447
0.00548212
-0.0691548
0.0719771
-0.00319629
0.00131857
-0.0108957
0.0127734
-0.000400928
0.00236308
-0.00196215
-0.0763414
0.0747376
0.00160381
-0.00540349
0.00530173
-0.418083
0.418185
-0.00367662
0.00173491
-0.588338
0.59028
0.00207775
-0.00619621
-0.723154
0.727273
0.0111029
-0.0154811
-0.844523
0.848901
0.0203766
-0.0248167
-0.967625
0.972065
0.0299896
-0.0340606
-1.10443
1.1085
0.0381052
-0.0414511
-1.25558
1.25892
0.0444515
-0.0457549
-1.42094
1.42225
0.0457913
-0.0440588
-1.60029
1.59856
0.0408062
-0.0355425
-1.51102
1.50576
0.0301472
-0.0236429
-1.20832
1.20181
0.0173641
-0.0103315
-0.98073
0.973697
0.00379119
0.00290215
-0.789923
0.78323
-0.00790201
0.0121128
-0.591493
0.587282
-0.0146677
0.0154092
-0.377139
0.376397
-0.0142727
0.0118305
-0.19369
0.196132
-0.00922494
0.00621187
-0.0739688
0.0769819
-0.00371844
0.00161414
-0.0142962
0.0164005
-0.00046169
0.00167641
-0.00121472
-0.0757984
0.0745403
0.00125807
-0.00433484
0.00435788
-0.421767
0.421744
-0.00293125
0.00108228
-0.595384
0.597233
0.00258289
-0.00625915
-0.731414
0.73509
0.010462
-0.0146856
-0.853222
0.857446
0.0192098
-0.0237899
-0.976312
0.980892
0.0282423
-0.0321334
-1.11266
1.11655
0.0363061
-0.0394086
-1.26215
1.26525
0.0419372
-0.0436594
-1.42346
1.42518
0.0438888
-0.0424492
-1.5969
1.59546
0.0393556
-0.0346483
-1.50071
1.496
0.0295698
-0.0234382
-1.19506
1.18893
0.0176485
-0.0111028
-0.966556
0.96001
0.00505148
0.00110384
-0.775849
0.769694
-0.00607035
0.0100639
-0.580216
0.576223
-0.0123022
0.0133667
-0.37314
0.372076
-0.0127609
0.0107133
-0.196148
0.198195
-0.00847726
0.0057956
-0.0788807
0.0815623
-0.00353369
0.00156985
-0.0179589
0.0199228
-0.00044689
0.000857959
-0.000411069
-0.0757806
0.0747357
0.00104492
-0.00306752
0.00285522
-0.425072
0.425285
-0.00166883
-0.000162763
-0.601843
0.603674
0.00363073
-0.00718147
-0.739085
0.742636
0.0112133
-0.0150335
-0.861448
0.865268
0.0196748
-0.023472
-0.984895
0.988693
0.0278949
-0.0316071
-1.12059
1.1243
0.0356681
-0.0389708
-1.26833
1.27163
0.0417946
-0.0433159
-1.42667
1.42819
0.0439024
-0.0428694
-1.59395
1.59292
0.0404137
-0.0360462
-1.49121
1.48685
0.0314775
-0.0258893
-1.183
1.17741
0.0206601
-0.0146371
-0.953341
0.947318
0.00918368
-0.00331644
-0.762845
0.756978
-0.00157195
0.00566692
-0.569812
0.565717
-0.0080354
0.00918081
-0.368763
0.367617
-0.00924939
0.00804091
-0.197807
0.199016
-0.00652598
0.00454885
-0.0829699
0.084947
-0.00281727
0.00128366
-0.0211652
0.0226988
-0.000361649
6.41985e-05
0.00029745
-0.0760442
0.0753208
0.000723402
-0.00192258
0.00128138
-0.428474
0.429115
-0.000281151
-0.0018394
-0.607481
0.609601
0.00490021
-0.00829892
-0.746232
0.749631
0.012163
-0.0161115
-0.868942
0.87289
0.0201389
-0.0240968
-0.992691
0.996649
0.0284839
-0.0319923
-1.12843
1.13194
0.0361488
-0.0394163
-1.27473
1.278
0.0423168
-0.0443851
-1.43012
1.43219
0.0454813
-0.0447598
-1.59194
1.59121
0.0426099
-0.0390756
-1.48273
1.47919
0.0352035
-0.0301743
-1.17185
1.16683
0.0253595
-0.0200208
-0.941302
0.935964
0.0145939
-0.00920598
-0.750492
0.745104
0.00449136
-1.67233e-05
-0.559952
0.555477
-0.00257717
0.00426751
-0.363761
0.362071
-0.00488967
0.0046682
-0.198179
0.198401
-0.00390938
0.00281766
-0.0855798
0.0866715
-0.00182936
0.000877575
-0.0234564
0.0244082
-0.000270273
-0.000530217
0.00080049
-0.0767314
0.0761635
0.000567859
-0.000953047
0.000417837
-0.432106
0.432641
0.00127235
-0.00322699
-0.613348
0.615302
0.00643363
-0.00970321
-0.752863
0.756132
0.0134206
-0.0169697
-0.876497
0.880046
0.0211213
-0.0247668
-1.0006
1.00425
0.0291063
-0.0330523
-1.13589
1.13984
0.0368605
-0.0404704
-1.28131
1.28492
0.0438105
-0.0459946
-1.43416
1.43634
0.0474967
-0.0476119
-1.59074
1.59085
0.0460063
-0.0432431
-1.47563
1.47287
0.0397255
-0.0352851
-1.16196
1.15752
0.0309642
-0.0258593
-0.930255
0.925151
0.02089
-0.0156859
-0.738925
0.733721
0.0110674
-0.00640315
-0.549773
0.545109
0.00312405
-0.000806051
-0.357887
0.355569
-0.00053972
0.00116093
-0.196874
0.196253
-0.00125074
0.00104297
-0.0864604
0.0866682
-0.000749978
0.000406368
-0.0245996
0.0249432
-0.000142799
-0.000907945
0.00105074
-0.0776898
0.0773076
0.000382203
7.43487e-05
-0.00087787
-0.435843
0.436647
0.00243358
-0.00471008
-0.618795
0.621072
0.00783989
-0.0109497
-0.759267
0.762377
0.0147561
-0.0181561
-0.883562
0.886962
0.0221532
-0.0259235
-1.00837
1.01214
0.0301699
-0.0340881
-1.14363
1.14755
0.0381296
-0.0417818
-1.28845
1.2921
0.0453297
-0.0482825
-1.43882
1.44177
0.0502666
-0.050741
-1.59093
1.59141
0.0499139
-0.0475631
-1.47007
1.46772
0.0446536
-0.0407749
-1.15309
1.14921
0.0365453
-0.0317423
-0.919797
0.914994
0.0270698
-0.0219323
-0.727907
0.722769
0.017404
-0.0124238
-0.539548
0.534568
0.0086574
-0.00551795
-0.351007
0.347867
0.00353337
-0.00208423
-0.193875
0.192426
0.00111198
-0.000459165
-0.0856343
0.0849815
0.000106079
6.18454e-05
-0.0246039
0.024436
-5.69208e-05
-0.00103359
0.00109051
-0.0788806
0.0786309
0.00024968